----- GAMESS execution script 'rungms' -----
This job is running on host pietdev
under operating system Linux at za 16 mei 2020 13:43:45 CEST
Available scratch disk space (Kbyte units) at beginning of the job is
Filesystem     1K-blocks     Used Available Use% Mounted on
/dev/sda2      244568380 30191660 201883664  14% /
GAMESS temporary binary files will be written to /home/piet/scr
GAMESS supplementary output files will be written to /home/piet/gamess/scr
Copying input file arginine_fukui_acid.inp to your run's scratch directory...
cp arginine_fukui_acid.inp /home/piet/scr/arginine_fukui_acid.F05
unset echo
 
Assuming a single but multicore node.
 
/home/piet/gamess/ddikick.x /home/piet/gamess/gamess.03.x arginine_fukui_acid -ddi 1 6 pietdev:cpus=6 -scr /home/piet/scr

 Distributed Data Interface kickoff program.
 Initiating 6 compute processes on 1 nodes to run the following command:
 /home/piet/gamess/gamess.03.x arginine_fukui_acid 

          ******************************************************
          *         GAMESS VERSION = 30 SEP 2019 (R2)          *
          *             FROM IOWA STATE UNIVERSITY             *
          * M.W.SCHMIDT, K.K.BALDRIDGE, J.A.BOATZ, S.T.ELBERT, *
          *   M.S.GORDON, J.H.JENSEN, S.KOSEKI, N.MATSUNAGA,   *
          *          K.A.NGUYEN, S.J.SU, T.L.WINDUS,           *
          *       TOGETHER WITH M.DUPUIS, J.A.MONTGOMERY       *
          *         J.COMPUT.CHEM.  14, 1347-1363(1993)        *
          **************** 64 BIT LINUX VERSION ****************

  SINCE 1993, STUDENTS AND POSTDOCS WORKING AT IOWA STATE UNIVERSITY
  AND ALSO IN THEIR VARIOUS JOBS AFTER LEAVING ISU HAVE MADE IMPORTANT
  CONTRIBUTIONS TO THE CODE:
     IVANA ADAMOVIC, CHRISTINE AIKENS, YURI ALEXEEV, POOJA ARORA,
     ANDREY ASADCHEV, ROB BELL, PRADIPTA BANDYOPADHYAY, JONATHAN BENTZ,
     COLLEEN BERTONI, BRETT BODE, KURT BRORSEN, CALEB CARLIN, GALINA CHABAN,
     WEI CHEN, CHEOL HO CHOI, PAUL DAY, ALBERT DEFUSCO, NUWAN DESILVA,
     TIM DUDLEY, DMITRI FEDOROV, ALEX FINDLATER, GRAHAM FLETCHER, 
     MARK FREITAG, KURT GLAESEMANN, EMILIE B GUIDEZ, ANASTASIA GUNINA, 
     DAN KEMP, SAROM SOK LEANG, GRANT MERRILL,
     NORIYUKI MINEZAWA, JONATHAN MULLIN,
     TAKESHI NAGATA, SEAN NEDD, HEATHER NETZLOFF, BOSILJKA NJEGIC, RYAN OLSON,
     MIKE PAK, BUU PHAM, DAVID POOLE,
     SPENCER PRUITT, LUKE ROSKOP, TOSAPORN SATTASATHUCHANA,
     JIM SHOEMAKER, LYUDMILA SLIPCHENKO,
     TONY SMITH, JIE SONG, TETSUYA TAKETSUGU, SIMON WEBB,
     JORGE LUIS GALVEZ VALLEJO, PENG XU, SOOHAENG YOO,
     FEDERICO ZAHARIEV

  ADDITIONAL CODE HAS BEEN PROVIDED BY COLLABORATORS IN OTHER GROUPS:
     IOWA STATE UNIVERSITY:
          JOE IVANIC, AARON WEST, LAIMUTIS BYTAUTAS, KLAUS RUEDENBERG
     UNIVERSITY OF TOKYO: KIMIHIKO HIRAO, TAKAHITO NAKAJIMA,
          TAKAO TSUNEDA, MUNEAKI KAMIYA, SUSUMU YANAGISAWA,
          KIYOSHI YAGI, MAHITO CHIBA, SEIKEN TOKURA, NAOAKI KAWAKAMI
     UNIVERSITY OF AARHUS: FRANK JENSEN
     UNIVERSITY OF IOWA: VISVALDAS KAIRYS, HUI LI
     NATIONAL INST. OF STANDARDS AND TECHNOLOGY: WALT STEVENS, DAVID GARMER
     UNIVERSITY OF PISA: BENEDETTA MENNUCCI, JACOPO TOMASI
     UNIVERSITY OF MEMPHIS: HENRY KURTZ, PRAKASHAN KORAMBATH
     UNIVERSITY OF ALBERTA: TOBY ZENG, MARIUSZ KLOBUKOWSKI
     UNIVERSITY OF NEW ENGLAND: MARK SPACKMAN
     MIE UNIVERSITY: HIROAKI UMEDA
     NAT. INST. OF ADVANCED INDUSTRIAL SCIENCE AND TECHNOLOGY: KAZUO KITAURA
     MICHIGAN STATE UNIVERSITY:
          KAROL KOWALSKI, MARTA WLOCH, JEFFREY GOUR, JESSE LUTZ,
          WEI LI, JUN SHEN, J. EMILIANO DEUSTUA, PIOTR PIECUCH
     UNIVERSITY OF MINNESOTA:
          ANDREW SAND, PRACHI SHARMA, YINAN SHU
     UNIVERSITY OF SILESIA: MONIKA MUSIAL, STANISLAW KUCHARSKI
     FACULTES UNIVERSITAIRES NOTRE-DAME DE LA PAIX:
          OLIVIER QUINET, BENOIT CHAMPAGNE
     UNIVERSITY OF CALIFORNIA - SANTA BARBARA: BERNARD KIRTMAN
     INSTITUTE FOR MOLECULAR SCIENCE:
          KAZUYA ISHIMURA, MICHIO KATOUDA, AND SHIGERU NAGASE
     UNIVERSITY OF NOTRE DAME: ANNA POMOGAEVA, DAN CHIPMAN
     KYUSHU UNIVERSITY:
          HARUYUKI NAKANO,
          FENG LONG GU, JACEK KORCHOWIEC, MARCIN MAKOWSKI, AND YURIKO AOKI,
          HIROTOSHI MORI AND EISAKU MIYOSHI
     PENNSYLVANIA STATE UNIVERSITY:
          TZVETELIN IORDANOV, CHET SWALINA, JONATHAN SKONE,
          SHARON HAMMES-SCHIFFER
     WASEDA UNIVERSITY:
          MASATO KOBAYASHI, TOMOKO AKAMA, TSUGUKI TOUMA,
          TAKESHI YOSHIKAWA, YASUHIRO IKABATA, JUNJI SEINO,
          YUYA NAKAJIMA, HIROMI NAKAI
     NANJING UNIVERSITY: SHUHUA LI
     UNIVERSITY OF NEBRASKA:
          PEIFENG SU, DEJUN SI, NANDUN THELLAMUREGE, YALI WANG, HUI LI
     UNIVERSITY OF ZURICH: ROBERTO PEVERATI, KIM BALDRIDGE
     N. COPERNICUS UNIVERSITY AND JACKSON STATE UNIVERSITY:
          MARIA BARYSZ
     UNIVERSITY OF COPENHAGEN: Jimmy Kromann, CASPER STEINMANN
     TOKYO INSTITUTE OF TECHNOLOGY: HIROYA NAKATA
     NAGOYA UNIVERSITY: YOSHIO NISHIMOTO, STEPHAN IRLE
     MOSCOW STATE UNIVERSITY: VLADIMIR MIRONOV
     A.N.NESMEYANOV INSTITUTE OF ORGANOELEMENT COMPOUNDS OF RUSSIAN ACADEMY OF SCIENCES:
          IGOR S. GERASIMOV
     JOHANNES KEPLER UNIVERSITY LINZ:
          CHRISTIAN FRIEDL


 PARALLEL VERSION RUNNING ON        6 PROCESSORS IN        1 NODES.

 EXECUTION OF GAMESS BEGUN Sat May 16 13:43:45 2020

            ECHO OF THE FIRST FEW INPUT CARDS -
 INPUT CARD> $BASIS GBASIS=N21 NGAUSS=3 $END                                                
 INPUT CARD> $CONTRL SCFTYP=UHF MAXIT=60 MULT=2 ICHARG=-1 $END                              
 INPUT CARD> $SYSTEM MEMDDI=1000 MWORDS=30 $END                                             
 INPUT CARD> $SCF DIRSCF=.TRUE. $END                                                        
 INPUT CARD> $STATPT OPTTOL=0.0001 NSTEP=999 $END                                           
 INPUT CARD> $DATA                                                                          
 INPUT CARD>                                                                                
 INPUT CARD>C1                                                                              
 INPUT CARD>C 6.0000000 2.0025413511 0.7127237771 -0.2699196978                             
 INPUT CARD>H 1.0000000 1.2521818107 -0.9234646185 0.9471744206                             
 INPUT CARD>H 1.0000000 2.1238125269 1.4176128905 0.5611551589                              
 INPUT CARD>C 6.0000000 0.9304298076 -0.3455179115 0.0701595279                             
 INPUT CARD>C 6.0000000 -0.4466727243 0.2877754578 0.3599383593                             
 INPUT CARD>C 6.0000000 -1.5254968132 -0.7766222425 0.6709600916                            
 INPUT CARD>C 6.0000000 -3.9077905226 -0.1621337632 0.0818542312                            
 INPUT CARD>N 7.0000000 -3.5104316033 -0.1653880640 -1.2588536771                           
 INPUT CARD>N 7.0000000 -5.1091543515 -0.1503103595 0.5532577029                            
 INPUT CARD>H 1.0000000 0.8346328448 -1.0539155490 -0.7644638426                            
 INPUT CARD>N 7.0000000 -2.8393263676 -0.1895838370 0.9742456317                            
 INPUT CARD>H 1.0000000 -0.3711517752 0.9763482732 1.2113387075                             
 INPUT CARD>H 1.0000000 -0.7672996540 0.8843826073 -0.5058862000                            
 INPUT CARD>H 1.0000000 -1.6313956600 -1.4555062867 -0.1833459236                           
 INPUT CARD>H 1.0000000 -1.1960507846 -1.3708046708 1.5328026795                            
 INPUT CARD>H 1.0000000 -2.6291431627 0.2632136922 -1.5189261451                            
 INPUT CARD>H 1.0000000 -4.2304888294 -0.1942441150 -1.9700860306                           
 INPUT CARD>H 1.0000000 -5.8253418866 0.0031955353 -0.1732479362                            
 INPUT CARD>H 1.0000000 1.7110022663 1.2825224965 -1.1602685973                             
 INPUT CARD>H 1.0000000 2.9727054919 0.2425477576 -0.4662092885                             
 INPUT CARD>H 1.0000000 -3.1376619641 -0.1380410698 1.9428208280                            
 INPUT CARD> $END                                                                           
   30000000 WORDS OF MEMORY AVAILABLE

     BASIS OPTIONS
     -------------
     GBASIS=N21          IGAUSS=       3      POLAR=NONE    
     NDFUNC=       0     NFFUNC=       0     DIFFSP=       F
     NPFUNC=       0      DIFFS=       F     BASNAM=        


     RUN TITLE
     ---------
                                                                                 

 THE POINT GROUP OF THE MOLECULE IS C1      
 THE ORDER OF THE PRINCIPAL AXIS IS     0

 ATOM      ATOMIC                      COORDINATES (BOHR)
           CHARGE         X                   Y                   Z
 C           6.0     3.7842544327        1.3468526437       -0.5100742675
 H           1.0     2.3662805090       -1.7450950883        1.7899001175
 H           1.0     4.0134237251        2.6788999197        1.0604294869
 C           6.0     1.7582573872       -0.6529341766        0.1325822832
 C           6.0    -0.8440890551        0.5438167612        0.6801848715
 C           6.0    -2.8827709721       -1.4676032343        1.2679307218
 C           6.0    -7.3846533051       -0.3063883858        0.1546820679
 N           7.0    -6.6337538289       -0.3125381226       -2.3788885084
 N           7.0    -9.6549017533       -0.2840453926        1.0455054591
 H           1.0     1.5772273770       -1.9916116018       -1.4446271900
 N           7.0    -5.3655488245       -0.3582615036        1.8410572886
 H           1.0    -0.7013751550        1.8450307049        2.2890982355
 H           1.0    -1.4499860965        1.6712407961       -0.9559862990
 H           1.0    -3.0828907750       -2.7505080553       -0.3464735566
 H           1.0    -2.2602082503       -2.5904452105        2.8965770575
 H           1.0    -4.9683601600        0.4974017545       -2.8703542098
 H           1.0    -7.9944646817       -0.3670681521       -3.7229227701
 H           1.0   -11.0082999505        0.0060386861       -0.3273911274
 H           1.0     3.2333254477        2.4236160915       -2.1925897211
 H           1.0     5.6175988219        0.4583488008       -0.8810078082
 H           1.0    -5.9293213542       -0.2608597970        3.6713990082

          INTERNUCLEAR DISTANCES (ANGS.)
          ------------------------------

                1 C          2 H          3 H          4 C          5 C     

   1 C       0.0000000    2.1728944 *  1.0964765 *  1.5443291 *  2.5643619 *
   2 H       2.1728944 *  0.0000000    2.5277252 *  1.0984998 *  2.1674998 *
   3 H       1.0964765 *  2.5277252 *  0.0000000    2.1849186 *  2.8150338 *
   4 C       1.5443291 *  1.0984998 *  2.1849186 *  0.0000000    1.5431927 *
   5 C       2.5643619 *  2.1674998 *  2.8150338 *  1.5431927 *  0.0000000  
   6 C       3.9434071    2.7952380 *  4.2595990    2.5648368 *  1.5471065 *
   7 C       5.9850767    5.2871276    6.2534442    4.8417086    3.5012977  
   8 N       5.6693864    5.3031808    6.1288687    4.6389625    3.4946335  
   9 N       7.2110100    6.4202442    7.4009632    6.0620184    4.6870061  
  10 H       2.1747641 *  1.7666551 *  3.0866977    1.0989088 *  2.1693683 *
  11 N       5.0799399    4.1568922    5.2332086    3.8797872    2.5159564 *
  12 H       2.8103458 *  2.5128239 *  2.6157790 *  2.1780116 *  1.0975967 *
  13 H       2.7851690 *  3.0753865    3.1275296    2.1741134 *  1.0992697 *
  14 H       4.2325187    3.1426364    4.7865106    2.8034423 *  2.1766390 *
  15 H       4.2215981    2.5567394 *  4.4430692    2.7771312 *  2.1651943 *
  16 H       4.8181509    4.7491621    5.3150695    3.9454160    2.8799153 *
  17 H       6.5240955    6.2531471    7.0272620    5.5516274    4.4697451  
  18 H       7.8605682    7.2253295    8.1073411    6.7691432    5.4125184  
  19 H       1.0965340 *  3.0851599    1.7753764 *  2.1848941 *  2.8206581 *
  20 H       1.0958164 *  2.5134518 *  1.7767597 *  2.1918948 *  3.5180553  
  21 H       5.6605399    4.5693468    5.6579301    4.4832218    3.1509141  

                6 C          7 C          8 N          9 N         10 H     

   1 C       3.9434071    5.9850767    5.6693864    7.2110100    2.1747641 *
   2 H       2.7952380 *  5.2871276    5.3031808    6.4202442    1.7666551 *
   3 H       4.2595990    6.2534442    6.1288687    7.4009632    3.0866977  
   4 C       2.5648368 *  4.8417086    4.6389625    6.0620184    1.0989088 *
   5 C       1.5471065 *  3.5012977    3.4946335    4.6870061    2.1693683 *
   6 C       0.0000000    2.5298152 *  2.8350934 *  3.6398794    2.7762466 *
   7 C       2.5298152 *  0.0000000    1.3983570 *  1.2905952 *  4.8991947  
   8 N       2.8350934 *  1.3983570 *  0.0000000    2.4165863 *  4.4624531  
   9 N       3.6398794    1.2905952 *  2.4165863 *  0.0000000    6.1547948  
  10 H       2.7762466 *  4.8991947    4.4624531    6.1547948    0.0000000  
  11 N       1.4706272 *  1.3923834 *  2.3318877 *  2.3088725 *  4.1554971  
  12 H       2.1673549 *  3.8832577    4.1545746    4.9143767    3.0789095  
  13 H       2.1722724 *  3.3620408    3.0321199    4.5873824    2.5278548 *
  14 H       1.0963288 *  2.6315617 *  2.5202972 *  3.7869416    2.5652036 *
  15 H       1.0974334 *  3.3044923    3.8213522    4.2144388    3.0824549  
  16 H       2.6636246 *  2.0924525 *  1.0139065 *  3.2581288    3.7817704  
  17 H       3.8250844    2.0774080 *  1.0125051 *  2.6723111 *  5.2771221  
  18 H       4.4507831    1.9414979 *  2.5623758 *  1.0316487 *  6.7692159  
  19 H       4.2506943    5.9330206    5.4193667    7.1766091    2.5265842 *
  20 H       4.7503353    6.9141425    6.5441396    8.1553730    2.5181596 *
  21 H       2.1504632 *  2.0141686 *  3.2234182    2.4120154 *  4.8936022  

               11 N         12 H         13 H         14 H         15 H     

   1 C       5.0799399    2.8103458 *  2.7851690 *  4.2325187    4.2215981  
   2 H       4.1568922    2.5128239 *  3.0753865    3.1426364    2.5567394 *
   3 H       5.2332086    2.6157790 *  3.1275296    4.7865106    4.4430692  
   4 C       3.8797872    2.1780116 *  2.1741134 *  2.8034423 *  2.7771312 *
   5 C       2.5159564 *  1.0975967 *  1.0992697 *  2.1766390 *  2.1651943 *
   6 C       1.4706272 *  2.1673549 *  2.1722724 *  1.0963288 *  1.0974334 *
   7 C       1.3923834 *  3.8832577    3.3620408    2.6315617 *  3.3044923  
   8 N       2.3318877 *  4.1545746    3.0321199    2.5202972 *  3.8213522  
   9 N       2.3088725 *  4.9143767    4.5873824    3.7869416    4.2144388  
  10 H       4.1554971    3.0789095    2.5278548 *  2.5652036 *  3.0824549  
  11 N       0.0000000    2.7399811 *  2.7636007 *  2.0980168 *  2.0994340 *
  12 H       2.7399811 *  0.0000000    1.7647244 *  3.0736422    2.5085702 *
  13 H       2.7636007 *  1.7647244 *  0.0000000    2.5151092 *  3.0701709  
  14 H       2.0980168 *  3.0736422    2.5151092 *  0.0000000    1.7725308 *
  15 H       2.0994340 *  2.5085702 *  3.0701709    1.7725308 *  0.0000000  
  16 H       2.5426577 *  3.6140603    2.2087467 *  2.3944254 *  3.7465742  
  17 H       3.2564465    5.1367531    3.9116488    3.3968379    4.7814578  
  18 H       3.2047143    5.7107177    5.1449908    4.4403939    5.1214081  
  19 H       5.2372453    3.1707459    2.5939761 *  4.4297634    4.7690393  
  20 H       6.0034459    3.8123499    3.7948867    4.9153989    4.8966809  
  21 H       1.0147900 *  3.0709133    3.5581082    2.9197839 *  2.3361667 *

               16 H         17 H         18 H         19 H         20 H     

   1 C       4.8181509    6.5240955    7.8605682    1.0965340 *  1.0958164 *
   2 H       4.7491621    6.2531471    7.2253295    3.0851599    2.5134518 *
   3 H       5.3150695    7.0272620    8.1073411    1.7753764 *  1.7767597 *
   4 C       3.9454160    5.5516274    6.7691432    2.1848941 *  2.1918948 *
   5 C       2.8799153 *  4.4697451    5.4125184    2.8206581 *  3.5180553  
   6 C       2.6636246 *  3.8250844    4.4507831    4.2506943    4.7503353  
   7 C       2.0924525 *  2.0774080 *  1.9414979 *  5.9330206    6.9141425  
   8 N       1.0139065 *  1.0125051 *  2.5623758 *  5.4193667    6.5441396  
   9 N       3.2581288    2.6723111 *  1.0316487 *  7.1766091    8.1553730  
  10 H       3.7817704    5.2771221    6.7692159    2.5265842 *  2.5181596 *
  11 N       2.5426577 *  3.2564465    3.2047143    5.2372453    6.0034459  
  12 H       3.6140603    5.1367531    5.7107177    3.1707459    3.8123499  
  13 H       2.2087467 *  3.9116488    5.1449908    2.5939761 *  3.7948867  
  14 H       2.3944254 *  3.3968379    4.4403939    4.4297634    4.9153989  
  15 H       3.7465742    4.7814578    5.1214081    4.7690393    4.8966809  
  16 H       0.0000000    1.7254335 *  3.4776638    4.4726377    5.6999428  
  17 H       1.7254335 *  0.0000000    2.4106360 *  6.1755939    7.3714612  
  18 H       3.4776638    2.4106360 *  0.0000000    7.7076177    8.8061770  
  19 H       4.4726377    6.1755939    7.7076177    0.0000000    1.7762772 *
  20 H       5.6999428    7.3714612    8.8061770    1.7762772 *  0.0000000  
  21 H       3.5218303    4.0630370    3.4236411    5.9293094    6.5791234  

               21 H     

   1 C       5.6605399  
   2 H       4.5693468  
   3 H       5.6579301  
   4 C       4.4832218  
   5 C       3.1509141  
   6 C       2.1504632 *
   7 C       2.0141686 *
   8 N       3.2234182  
   9 N       2.4120154 *
  10 H       4.8936022  
  11 N       1.0147900 *
  12 H       3.0709133  
  13 H       3.5581082  
  14 H       2.9197839 *
  15 H       2.3361667 *
  16 H       3.5218303  
  17 H       4.0630370  
  18 H       3.4236411  
  19 H       5.9293094  
  20 H       6.5791234  
  21 H       0.0000000  

  * ... LESS THAN  3.000


     ATOMIC BASIS SET
     ----------------
 THE CONTRACTED PRIMITIVE FUNCTIONS HAVE BEEN UNNORMALIZED
 THE CONTRACTED BASIS FUNCTIONS ARE NOW NORMALIZED TO UNITY

  SHELL TYPE  PRIMITIVE        EXPONENT          CONTRACTION COEFFICIENT(S)

 C         

      1   S       1           172.2560000    0.061766907377
      1   S       2            25.9109000    0.358794042852
      1   S       3             5.5333500    0.700713083689

      2   L       4             3.6649800   -0.395895162119    0.236459946619
      2   L       5             0.7705450    1.215834355681    0.860618805716

      3   L       6             0.1958570    1.000000000000    1.000000000000

 H         

      4   S       7             5.4471780    0.156284978695
      4   S       8             0.8245472    0.904690876670

      5   S       9             0.1831916    1.000000000000

 H         

      6   S      10             5.4471780    0.156284978695
      6   S      11             0.8245472    0.904690876670

      7   S      12             0.1831916    1.000000000000

 C         

      8   S      13           172.2560000    0.061766907377
      8   S      14            25.9109000    0.358794042852
      8   S      15             5.5333500    0.700713083689

      9   L      16             3.6649800   -0.395895162119    0.236459946619
      9   L      17             0.7705450    1.215834355681    0.860618805716

     10   L      18             0.1958570    1.000000000000    1.000000000000

 C         

     11   S      19           172.2560000    0.061766907377
     11   S      20            25.9109000    0.358794042852
     11   S      21             5.5333500    0.700713083689

     12   L      22             3.6649800   -0.395895162119    0.236459946619
     12   L      23             0.7705450    1.215834355681    0.860618805716

     13   L      24             0.1958570    1.000000000000    1.000000000000

 C         

     14   S      25           172.2560000    0.061766907377
     14   S      26            25.9109000    0.358794042852
     14   S      27             5.5333500    0.700713083689

     15   L      28             3.6649800   -0.395895162119    0.236459946619
     15   L      29             0.7705450    1.215834355681    0.860618805716

     16   L      30             0.1958570    1.000000000000    1.000000000000

 C         

     17   S      31           172.2560000    0.061766907377
     17   S      32            25.9109000    0.358794042852
     17   S      33             5.5333500    0.700713083689

     18   L      34             3.6649800   -0.395895162119    0.236459946619
     18   L      35             0.7705450    1.215834355681    0.860618805716

     19   L      36             0.1958570    1.000000000000    1.000000000000

 N         

     20   S      37           242.7660000    0.059865700508
     20   S      38            36.4851000    0.352955002994
     20   S      39             7.8144900    0.706513005993

     21   L      40             5.4252200   -0.413300077430    0.237972016222
     21   L      41             1.1491500    1.224417266851    0.858953058551

     22   L      42             0.2832050    1.000000000000    1.000000000000

 N         

     23   S      43           242.7660000    0.059865700508
     23   S      44            36.4851000    0.352955002994
     23   S      45             7.8144900    0.706513005993

     24   L      46             5.4252200   -0.413300077430    0.237972016222
     24   L      47             1.1491500    1.224417266851    0.858953058551

     25   L      48             0.2832050    1.000000000000    1.000000000000

 H         

     26   S      49             5.4471780    0.156284978695
     26   S      50             0.8245472    0.904690876670

     27   S      51             0.1831916    1.000000000000

 N         

     28   S      52           242.7660000    0.059865700508
     28   S      53            36.4851000    0.352955002994
     28   S      54             7.8144900    0.706513005993

     29   L      55             5.4252200   -0.413300077430    0.237972016222
     29   L      56             1.1491500    1.224417266851    0.858953058551

     30   L      57             0.2832050    1.000000000000    1.000000000000

 H         

     31   S      58             5.4471780    0.156284978695
     31   S      59             0.8245472    0.904690876670

     32   S      60             0.1831916    1.000000000000

 H         

     33   S      61             5.4471780    0.156284978695
     33   S      62             0.8245472    0.904690876670

     34   S      63             0.1831916    1.000000000000

 H         

     35   S      64             5.4471780    0.156284978695
     35   S      65             0.8245472    0.904690876670

     36   S      66             0.1831916    1.000000000000

 H         

     37   S      67             5.4471780    0.156284978695
     37   S      68             0.8245472    0.904690876670

     38   S      69             0.1831916    1.000000000000

 H         

     39   S      70             5.4471780    0.156284978695
     39   S      71             0.8245472    0.904690876670

     40   S      72             0.1831916    1.000000000000

 H         

     41   S      73             5.4471780    0.156284978695
     41   S      74             0.8245472    0.904690876670

     42   S      75             0.1831916    1.000000000000

 H         

     43   S      76             5.4471780    0.156284978695
     43   S      77             0.8245472    0.904690876670

     44   S      78             0.1831916    1.000000000000

 H         

     45   S      79             5.4471780    0.156284978695
     45   S      80             0.8245472    0.904690876670

     46   S      81             0.1831916    1.000000000000

 H         

     47   S      82             5.4471780    0.156284978695
     47   S      83             0.8245472    0.904690876670

     48   S      84             0.1831916    1.000000000000

 H         

     49   S      85             5.4471780    0.156284978695
     49   S      86             0.8245472    0.904690876670

     50   S      87             0.1831916    1.000000000000

 TOTAL NUMBER OF BASIS SET SHELLS             =   50
 NUMBER OF CARTESIAN GAUSSIAN BASIS FUNCTIONS =   98
 NUMBER OF ELECTRONS                          =   65
 CHARGE OF MOLECULE                           =   -1
 SPIN MULTIPLICITY                            =    2
 NUMBER OF OCCUPIED ORBITALS (ALPHA)          =   33
 NUMBER OF OCCUPIED ORBITALS (BETA )          =   32
 TOTAL NUMBER OF ATOMS                        =   21
 THE NUCLEAR REPULSION ENERGY IS      378.6389808113

     $CONTRL OPTIONS
     ---------------
 SCFTYP=UHF          RUNTYP=ENERGY       EXETYP=RUN     
 MPLEVL=       0     CITYP =NONE         CCTYP =NONE         VBTYP =NONE    
 DFTTYP=NONE         TDDFT =NONE    
 MULT  =       2     ICHARG=      -1     NZVAR =       0     COORD =UNIQUE  
 PP    =NONE         RELWFN=NONE         LOCAL =NONE         NUMGRD=       F
 ISPHER=      -1     NOSYM =       0     MAXIT =      60     UNITS =ANGS    
 PLTORB=       F     MOLPLT=       F     AIMPAC=       F     FRIEND=        
 NPRINT=       7     IREST =       0     GEOM  =INPUT   
 NORMF =       0     NORMP =       0     ITOL  =      20     ICUT  =       9
 INTTYP=BEST         GRDTYP=BEST         QMTTOL= 1.0E-06

     $SYSTEM OPTIONS
     ---------------
  REPLICATED MEMORY=    30000000 WORDS (ON EVERY NODE).
 DISTRIBUTED MEMDDI=        1000 MILLION WORDS IN AGGREGATE,
 MEMDDI DISTRIBUTED OVER   6 PROCESSORS IS   166666666 WORDS/PROCESSOR.
 TOTAL MEMORY REQUESTED ON EACH PROCESSOR=   196666666 WORDS.
 TIMLIM=      525600.00 MINUTES, OR     365.0 DAYS.
 PARALL= T  BALTYP=  DLB     KDIAG=    0  COREFL= F
 MXSEQ2=     300 MXSEQ3=     150  mem10=         0

          ----------------
          PROPERTIES INPUT
          ----------------

     MOMENTS            FIELD           POTENTIAL          DENSITY
 IEMOM =       1   IEFLD =       0   IEPOT =       0   IEDEN =       0
 WHERE =COMASS     WHERE =NUCLEI     WHERE =NUCLEI     WHERE =NUCLEI  
 OUTPUT=BOTH       OUTPUT=BOTH       OUTPUT=BOTH       OUTPUT=BOTH    
 IEMINT=       0   IEFINT=       0                     IEDINT=       0
                                                       MORB  =       0
          EXTRAPOLATION IN EFFECT
          SOSCF IN EFFECT
          DIIS or SOSCF will be reset if energy rises
 ORBITAL PRINTING OPTION: NPREO=     1    98     2     1

     -------------------------------
     INTEGRAL TRANSFORMATION OPTIONS
     -------------------------------
     NWORD  =            0
     CUTOFF = 1.0E-09     MPTRAN =       0
     DIRTRF =       T     AOINTS =DUP     

          ----------------------
          INTEGRAL INPUT OPTIONS
          ----------------------
 NOPK  =       1 NORDER=       0 SCHWRZ=       T

     ------------------------------------------
     THE POINT GROUP IS C1 , NAXIS= 0, ORDER= 1
     ------------------------------------------

     DIMENSIONS OF THE SYMMETRY SUBSPACES ARE
 A   =   98

 ..... DONE SETTING UP THE RUN .....
 CPU     0: STEP CPU TIME=     0.02 TOTAL CPU TIME=          0.0 (      0.0 MIN)
 TOTAL WALL CLOCK TIME=          0.0 SECONDS, CPU UTILIZATION IS    66.67%

          ********************
          1 ELECTRON INTEGRALS
          ********************
 ...... END OF ONE-ELECTRON INTEGRALS ......
 CPU     0: STEP CPU TIME=     0.02 TOTAL CPU TIME=          0.0 (      0.0 MIN)
 TOTAL WALL CLOCK TIME=          0.1 SECONDS, CPU UTILIZATION IS    80.00%

          -------------
          GUESS OPTIONS
          -------------
          GUESS =HUCKEL            NORB  =       0          NORDER=       0
          MIX   =       F          PRTMO =       F          PUNMO =       F
          TOLZ  = 1.0E-08          TOLE  = 1.0E-05
          SYMDEN=       F          PURIFY=       F

 INITIAL GUESS ORBITALS GENERATED BY HUCKEL   ROUTINE.
 HUCKEL GUESS REQUIRES     96150 WORDS.

 SYMMETRIES FOR INITIAL GUESS ORBITALS FOLLOW.  ALPHA SET(S).
    33 ORBITALS ARE OCCUPIED (    8 CORE ORBITALS).
     9=A       10=A       11=A       12=A       13=A       14=A       15=A   
    16=A       17=A       18=A       19=A       20=A       21=A       22=A   
    23=A       24=A       25=A       26=A       27=A       28=A       29=A   
    30=A       31=A       32=A       33=A       34=A       35=A       36=A   
    37=A       38=A       39=A       40=A       41=A       42=A       43=A   

 SYMMETRIES FOR INITIAL GUESS ORBITALS FOLLOW.   BETA SET(S).
    32 ORBITALS ARE OCCUPIED (    8 CORE ORBITALS).
     9=A       10=A       11=A       12=A       13=A       14=A       15=A   
    16=A       17=A       18=A       19=A       20=A       21=A       22=A   
    23=A       24=A       25=A       26=A       27=A       28=A       29=A   
    30=A       31=A       32=A       33=A       34=A       35=A       36=A   
    37=A       38=A       39=A       40=A       41=A       42=A   
 ...... END OF INITIAL ORBITAL SELECTION ......
 CPU     0: STEP CPU TIME=     0.03 TOTAL CPU TIME=          0.1 (      0.0 MIN)
 TOTAL WALL CLOCK TIME=          0.1 SECONDS, CPU UTILIZATION IS    63.64%

                    ----------------------
                    AO INTEGRAL TECHNOLOGY
                    ----------------------
     S,P,L SHELL ROTATED AXIS INTEGRALS, REPROGRAMMED BY
        KAZUYA ISHIMURA (IMS) AND JOSE SIERRA (SYNSTAR).
     S,P,D,L SHELL ROTATED AXIS INTEGRALS PROGRAMMED BY
        KAZUYA ISHIMURA (INSTITUTE FOR MOLECULAR SCIENCE).
     S,P,D,F,G SHELL TO TOTAL QUARTET ANGULAR MOMENTUM SUM 5,
        ERIC PROGRAM BY GRAHAM FLETCHER (ELORET AND NASA ADVANCED
        SUPERCOMPUTING DIVISION, AMES RESEARCH CENTER).
     S,P,D,F,G,L SHELL GENERAL RYS QUADRATURE PROGRAMMED BY
        MICHEL DUPUIS (PACIFIC NORTHWEST NATIONAL LABORATORY).

          --------------------
          2 ELECTRON INTEGRALS
          --------------------

 DIRECT SCF METHOD SKIPS INTEGRAL STORAGE ON DISK.
 DIRECT TRANSFORMATION SKIPS AO INTEGRAL STORAGE ON DISK.
  ...... END OF TWO-ELECTRON INTEGRALS .....
 CPU     0: STEP CPU TIME=     0.01 TOTAL CPU TIME=          0.1 (      0.0 MIN)
 TOTAL WALL CLOCK TIME=          0.1 SECONDS, CPU UTILIZATION IS    61.54%

          ---------------------------
                  UHF SCF CALCULATION
          ---------------------------

     NUCLEAR ENERGY =       378.6389808113
     MAXIT = 60     NPUNCH=  2     MULT=  2
     EXTRAP=T  DAMP=F  SHIFT=F  RSTRCT=F  DIIS=F  SOSCF=T
     DENSITY MATRIX CONV=  2.00E-05
     SOSCF WILL OPTIMIZE    2145 ALPHA AND    2112 BETA ROTATION ANGLES.
     SOGTOL= 2.500E-01
     MEMORY REQUIRED FOR UHF/ROHF ITERS=    174313 WORDS.

 DIRECT SCF CALCULATION, SCHWRZ=T   FDIFF=T
 SCHWARZ INEQUALITY OVERHEAD:      4483 INTEGRALS, T=        0.00

                                                                                NONZERO     BLOCKS
 ITER EX      TOTAL ENERGY        E CHANGE  DENSITY CHANGE    ORB. GRAD       INTEGRALS    SKIPPED
   1  0     -357.1126223266  -357.1126223266   0.688618876   0.000000000        6755476     399970
          ---------------START SECOND ORDER SCF---------------
   2  1     -357.9654126567    -0.8527903301   0.320504150   0.054411292        6734544     407727
   3  2     -358.0240324082    -0.0586197515   0.134790416   0.041303628        6663423     423699
   4  3     -358.0418142587    -0.0177818505   0.051277550   0.006110073        6629637     429966
   5  4     -358.0427424513    -0.0009281926   0.039927146   0.004792235        6540757     443750
   6  5     -358.0431819273    -0.0004394760   0.019571376   0.002086211        6535445     443608
   7  6     -358.0433997729    -0.0002178457   0.021938397   0.000983224        6398771     460070
   8  7     -358.0435063518    -0.0001065788   0.010553033   0.000754802        6355487     463034
   9  8     -358.0435335619    -0.0000272101   0.005811925   0.000344676        6265158     472943
  10  9     -358.0435430499    -0.0000094879   0.001796970   0.000163573        6150688     484774
  11 10     -358.0435453326    -0.0000022827   0.001011621   0.000081853        5883704     506185
  12 11     -358.0435459926    -0.0000006601   0.000737421   0.000056878        5761972     515555
  13 12     -358.0435461988    -0.0000002062   0.000280934   0.000035325        5681206     521705
  14 13     -358.0435462558    -0.0000000570   0.000173745   0.000021457        5529693     531278
  15 14     -358.0435462757    -0.0000000199   0.000080712   0.000011238        5289008     547992
  16 15     -358.0435462818    -0.0000000060   0.000040436   0.000005730        4987344     568458
  17 16     -358.0435462833    -0.0000000016   0.000026642   0.000003034        4778934     583899
  18 17     -358.0435462836    -0.0000000003   0.000008662   0.000001093        4579501     595006
  19 18     -358.0435462827     0.0000000010   0.000004954   0.000000485        4263982     614084

          -----------------
          DENSITY CONVERGED
          -----------------
     TIME TO FORM FOCK OPERATORS=       1.8 SECONDS (       0.1 SEC/ITER)
     FOCK TIME ON FIRST ITERATION=       0.1, LAST ITERATION=       0.1
     TIME TO SOLVE SCF EQUATIONS=       0.1 SECONDS (       0.0 SEC/ITER)

 FINAL UHF ENERGY IS     -358.0435462827 AFTER  19 ITERATIONS

          --------------------
          SPIN SZ   =    0.500
          S-SQUARED =    0.764
          --------------------

  ----- ALPHA SET ----- 

          ------------
          EIGENVECTORS
          ------------

                      1          2          3          4          5
                  -15.2430   -15.2353   -15.0970   -11.0607   -11.0522
                     A          A          A          A          A   
    1  C  1  S   -0.000042   0.000016  -0.000015   0.987460   0.010976
    2  C  1  S   -0.000238   0.000111  -0.000081   0.101674  -0.001195
    3  C  1  X   -0.000046  -0.000074  -0.000022  -0.000046  -0.000484
    4  C  1  Y    0.000027   0.000043  -0.000008   0.000166  -0.000256
    5  C  1  Z   -0.000008  -0.000008   0.000002   0.000004   0.000137
    6  C  1  S    0.001751  -0.000037   0.000476  -0.080745   0.020304
    7  C  1  X   -0.000263   0.000381  -0.000122   0.003980  -0.008812
    8  C  1  Y   -0.001084  -0.000502  -0.000073   0.002668  -0.007925
    9  C  1  Z    0.000338   0.000324   0.000100  -0.001141   0.002749
   10  H  2  S   -0.000320  -0.000039   0.000030  -0.001128   0.000972
   11  H  2  S    0.000222   0.000293  -0.000018   0.000785   0.014580
   12  H  3  S   -0.000062   0.000045  -0.000033   0.000331  -0.001333
   13  H  3  S    0.000064  -0.000012  -0.000052   0.014360   0.000701
   14  C  4  S   -0.000102  -0.000047   0.000011  -0.011767   0.987874
   15  C  4  S   -0.000647  -0.000284   0.000049  -0.003145   0.104337
   16  C  4  X    0.000469   0.000138   0.000065   0.000077   0.000172
   17  C  4  Y    0.000202   0.000022   0.000064  -0.000062   0.000186
   18  C  4  Z   -0.000078   0.000115  -0.000006  -0.000005  -0.000037
   19  C  4  S    0.001565   0.000965  -0.000600   0.019100  -0.091379
   20  C  4  X   -0.003452  -0.001262  -0.000011   0.008530   0.001754
   21  C  4  Y   -0.001132  -0.000434  -0.000483   0.007977  -0.006056
   22  C  4  Z    0.000439  -0.000570  -0.000241  -0.002735  -0.000029
   23  C  5  S    0.000090   0.000056   0.000018  -0.003802  -0.004073
   24  C  5  S    0.000126   0.000230   0.000153  -0.001245  -0.002963
   25  C  5  X    0.000665  -0.000059  -0.000150  -0.000898   0.000434
   26  C  5  Y   -0.000015  -0.000266   0.000032  -0.000561   0.000128
   27  C  5  Z   -0.000249  -0.000137  -0.000063   0.000246  -0.000098
   28  C  5  S   -0.003205  -0.001632   0.000113  -0.000143   0.022415
   29  C  5  X   -0.000060   0.001248   0.000736   0.002387   0.011686
   30  C  5  Y    0.001467   0.002852  -0.000844   0.003461  -0.005287
   31  C  5  Z    0.000979  -0.000058   0.000786  -0.000774  -0.002490
   32  C  6  S   -0.000543  -0.000091  -0.000112  -0.003246  -0.007043
   33  C  6  S   -0.002219  -0.000249  -0.001019  -0.001372  -0.001511
   34  C  6  X   -0.001160  -0.000575   0.001123  -0.000290  -0.000578
   35  C  6  Y    0.000444   0.000053  -0.000456   0.000002   0.000003
   36  C  6  Z    0.000388   0.000362   0.000119   0.000038   0.000144
   37  C  6  S    0.017688   0.005267  -0.000844   0.004547   0.000411
   38  C  6  X   -0.009221  -0.000183  -0.001716   0.003134   0.000497
   39  C  6  Y    0.003079   0.002928  -0.000119   0.000977  -0.001541
   40  C  6  Z   -0.000371  -0.000609  -0.001009  -0.000700  -0.000138
   41  C  7  S   -0.000334  -0.000323   0.000008  -0.000090  -0.000106
   42  C  7  S   -0.001550  -0.001591  -0.000930  -0.000097  -0.000095
   43  C  7  X    0.000620  -0.000048   0.000127  -0.000054  -0.000045
   44  C  7  Y   -0.000121   0.000007  -0.000010   0.000028   0.000014
   45  C  7  Z    0.000421  -0.000418  -0.000072  -0.000015   0.000037
   46  C  7  S    0.018118   0.016923   0.028853   0.000133   0.000633
   47  C  7  X    0.018673   0.009710  -0.036384   0.000596  -0.000191
   48  C  7  Y   -0.001114   0.000442   0.000487  -0.000021  -0.000209
   49  C  7  Z    0.010754  -0.025640   0.012000  -0.000044   0.001149
   50  N  8  S   -0.007296   0.985976   0.000813   0.000010  -0.000019
   51  N  8  S   -0.000729   0.102009  -0.000520   0.000094  -0.000182
   52  N  8  X    0.000668  -0.000575  -0.000966   0.000059  -0.000050
   53  N  8  Y   -0.000081   0.001423  -0.000094   0.000018   0.000001
   54  N  8  Z   -0.000282   0.001018  -0.000579  -0.000010  -0.000030
   55  N  8  S   -0.001053  -0.067757   0.005341  -0.000431   0.000754
   56  N  8  X   -0.005225   0.003198   0.008575  -0.000330   0.000108
   57  N  8  Y    0.000135  -0.002556   0.000606  -0.000101   0.000039
   58  N  8  Z   -0.001829  -0.011867   0.004656  -0.000055   0.000336
   59  N  9  S   -0.001247  -0.000954   0.986115  -0.000007   0.000010
   60  N  9  S   -0.001035  -0.000733   0.103187  -0.000052   0.000050
   61  N  9  X   -0.000286  -0.000497   0.002579   0.000003  -0.000029
   62  N  9  Y    0.000026   0.000055   0.000472  -0.000005  -0.000008
   63  N  9  Z    0.000464  -0.000550  -0.004081   0.000011   0.000017
   64  N  9  S    0.004231   0.006355  -0.077355   0.000352  -0.000548
   65  N  9  X   -0.000002   0.004864  -0.018597   0.000098  -0.000231
   66  N  9  Y    0.000147  -0.000379  -0.000713   0.000016   0.000067
   67  N  9  Z   -0.004575   0.004994   0.013619  -0.000108  -0.000109
   68  H 10  S   -0.000454  -0.000186  -0.000004  -0.001129   0.000967
   69  H 10  S    0.000017  -0.000458  -0.000227   0.000710   0.014538
   70  N 11  S    0.986139   0.007357   0.001085  -0.000006  -0.000034
   71  N 11  S    0.103248   0.000654  -0.000655  -0.000107  -0.000420
   72  N 11  X   -0.000146   0.001110  -0.000454  -0.000023  -0.000405
   73  N 11  Y   -0.001535  -0.000034  -0.000013   0.000049  -0.000128
   74  N 11  Z   -0.000874  -0.000129   0.000968  -0.000003   0.000115
   75  N 11  S   -0.071245  -0.000644   0.004051   0.000358   0.000878
   76  N 11  X    0.002999  -0.006777   0.003778   0.000156   0.002114
   77  N 11  Y    0.004491   0.000298   0.000093  -0.000384   0.000440
   78  N 11  Z    0.008911   0.004366  -0.007885   0.000142  -0.000519
   79  H 12  S    0.000017  -0.000116  -0.000011  -0.000184  -0.001352
   80  H 12  S   -0.000654  -0.000659  -0.000011  -0.001410   0.000768
   81  H 13  S    0.000244   0.000783  -0.000015  -0.000169  -0.001372
   82  H 13  S   -0.000088  -0.002898   0.001107  -0.001513   0.000774
   83  H 14  S   -0.001555  -0.000651  -0.000127  -0.000378   0.000045
   84  H 14  S   -0.002486   0.000358   0.000286  -0.000090  -0.001402
   85  H 15  S   -0.000949  -0.000086   0.000108  -0.000439   0.000014
   86  H 15  S   -0.000457   0.000251   0.000800  -0.000069  -0.001242
   87  H 16  S    0.001143   0.001453  -0.002040  -0.000004  -0.000018
   88  H 16  S    0.000155   0.007583  -0.000296   0.000482  -0.000103
   89  H 17  S   -0.001355   0.001464   0.002286  -0.000017  -0.000015
   90  H 17  S    0.000269   0.006244   0.000825  -0.000084   0.000150
   91  H 18  S   -0.001215   0.001320   0.002722  -0.000033  -0.000024
   92  H 18  S    0.001311   0.000726   0.005582   0.000040   0.000014
   93  H 19  S   -0.000035  -0.000003   0.000004   0.000326  -0.001334
   94  H 19  S    0.000215   0.000548  -0.000078   0.014403   0.000717
   95  H 20  S   -0.000174  -0.000055  -0.000019   0.000168  -0.001066
   96  H 20  S   -0.000111  -0.000206  -0.000026   0.013676   0.000271
   97  H 21  S    0.001427  -0.001535   0.001487  -0.000092   0.000071
   98  H 21  S    0.006105   0.000572   0.001766   0.000109   0.000374

                      6          7          8          9         10
                  -11.0311   -11.0209   -10.9260    -1.0253    -0.9521
                     A          A          A          A          A   
    1  C  1  S    0.002973   0.003775   0.000059  -0.006713  -0.095105
    2  C  1  S   -0.000737  -0.000637  -0.000158   0.008463   0.096008
    3  C  1  X    0.000392   0.000825  -0.000031  -0.003820  -0.030601
    4  C  1  Y   -0.000067   0.000032  -0.000009  -0.002347  -0.023871
    5  C  1  Z   -0.000101  -0.000194  -0.000034   0.001218   0.009324
    6  C  1  S    0.003431   0.001185   0.001021   0.006524   0.227848
    7  C  1  X   -0.003205  -0.000883  -0.000222   0.003983   0.004147
    8  C  1  Y   -0.000353   0.000324  -0.000316   0.003886   0.001189
    9  C  1  Z    0.000831   0.000100   0.000680  -0.002849  -0.000583
   10  H  2  S   -0.000087  -0.001347   0.000099   0.007418   0.060577
   11  H  2  S   -0.001365   0.000748   0.000525  -0.001247   0.000238
   12  H  3  S   -0.000458  -0.000037  -0.000107   0.003683   0.047313
   13  H  3  S   -0.000061  -0.000957  -0.000202   0.000362   0.002180
   14  C  4  S    0.006897   0.003253   0.000111  -0.015719  -0.127131
   15  C  4  S   -0.000141  -0.002086  -0.000045   0.016890   0.122686
   16  C  4  X    0.000791  -0.000504   0.000247  -0.008991  -0.009356
   17  C  4  Y    0.000448  -0.000081   0.000133   0.002260   0.027878
   18  C  4  Z   -0.000223   0.000107   0.000118   0.001510   0.000698
   19  C  4  S   -0.000276   0.020981  -0.000700   0.034924   0.314572
   20  C  4  X   -0.001778  -0.012143  -0.001011   0.010478   0.006586
   21  C  4  Y   -0.002500   0.004624  -0.001057   0.006441   0.008626
   22  C  4  Z    0.000770   0.002627  -0.001530   0.001380  -0.002839
   23  C  5  S   -0.014394   0.987901  -0.000001  -0.032773  -0.105842
   24  C  5  S   -0.004206   0.104624   0.000006   0.032786   0.103637
   25  C  5  X    0.000053   0.000454  -0.000209  -0.013051   0.024253
   26  C  5  Y   -0.000029  -0.000075   0.000000  -0.011593  -0.023753
   27  C  5  Z    0.000039  -0.000096  -0.000452   0.003877  -0.003828
   28  C  5  S    0.023272  -0.093045   0.000825   0.066710   0.253559
   29  C  5  X   -0.011297  -0.000979   0.001349  -0.002235   0.004201
   30  C  5  Y   -0.008750   0.006115  -0.000711  -0.000806  -0.008400
   31  C  5  Z    0.002737   0.000382   0.003635  -0.008118   0.000858
   32  C  6  S    0.987713   0.013394   0.001397  -0.072034  -0.067483
   33  C  6  S    0.102812  -0.001411  -0.001114   0.075851   0.070165
   34  C  6  X    0.000376   0.000636   0.001309  -0.040827   0.019836
   35  C  6  Y    0.000107  -0.000004  -0.000102   0.020723   0.020971
   36  C  6  Z   -0.000149   0.000012   0.000790   0.003385  -0.001248
   37  C  6  S   -0.084241   0.021706   0.001683   0.139804   0.144146
   38  C  6  X   -0.004421   0.008260  -0.005294   0.016460   0.000400
   39  C  6  Y   -0.005032   0.009847   0.000026   0.000216  -0.003778
   40  C  6  Z    0.001319  -0.003080  -0.004531   0.011183   0.000990
   41  C  7  S   -0.001616  -0.000041   0.985872  -0.118944   0.047071
   42  C  7  S   -0.001254  -0.000079   0.093290   0.139173  -0.052645
   43  C  7  X   -0.000886   0.000037   0.001105   0.028863   0.018828
   44  C  7  Y    0.000262   0.000086  -0.000101  -0.001528  -0.002865
   45  C  7  Z    0.000244  -0.000204   0.000077   0.006704   0.031357
   46  C  7  S    0.000913   0.001052  -0.038165   0.124097  -0.062538
   47  C  7  X    0.008932  -0.000117  -0.006476  -0.010656  -0.019824
   48  C  7  Y   -0.000830  -0.000331   0.000318   0.003805   0.002711
   49  C  7  Z   -0.002384  -0.000088   0.001616   0.000371  -0.007689
   50  N  8  S    0.000073  -0.000011   0.000058  -0.103649   0.080471
   51  N  8  S    0.000383  -0.000039  -0.000070   0.092845  -0.072182
   52  N  8  X   -0.000096   0.000071   0.000103  -0.006490   0.009737
   53  N  8  Y   -0.000045  -0.000103   0.000001   0.008627  -0.007848
   54  N  8  Z   -0.000340   0.000264  -0.000599   0.034356  -0.009740
   55  N  8  S   -0.003558   0.000740   0.006132   0.301705  -0.241407
   56  N  8  X   -0.000711   0.000144   0.000645  -0.003252   0.014869
   57  N  8  Y    0.000241   0.000508   0.000059   0.009675  -0.011025
   58  N  8  Z   -0.000698  -0.001195   0.002489   0.033601  -0.009911
   59  N  9  S   -0.000136   0.000012   0.000215  -0.058106   0.035218
   60  N  9  S   -0.001196   0.000130   0.000135   0.054220  -0.030689
   61  N  9  X   -0.000247   0.000062  -0.001501   0.040587  -0.017484
   62  N  9  Y   -0.000069  -0.000027   0.000100   0.000801  -0.000666
   63  N  9  Z    0.000073   0.000007   0.000334  -0.024218   0.018442
   64  N  9  S    0.006499  -0.000474   0.000247   0.147074  -0.104726
   65  N  9  X    0.002917  -0.000375  -0.000548   0.023134  -0.014207
   66  N  9  Y    0.000278   0.000142  -0.000324   0.001104  -0.002332
   67  N  9  Z   -0.001096   0.000045   0.001435  -0.022368   0.023612
   68  H 10  S   -0.000141  -0.001326  -0.000204   0.008179   0.060052
   69  H 10  S   -0.001050   0.000725  -0.000809   0.001590  -0.000935
   70  N 11  S   -0.000175   0.000051   0.000133  -0.145869  -0.026898
   71  N 11  S   -0.000584  -0.000128   0.000369   0.128077   0.024249
   72  N 11  X    0.000158  -0.000258   0.000110  -0.015945   0.032697
   73  N 11  Y   -0.000165  -0.000027  -0.000213  -0.015675  -0.008049
   74  N 11  Z   -0.000402   0.000108   0.000303  -0.024033   0.010327
   75  N 11  S    0.009099  -0.001363   0.003814   0.432144   0.083456
   76  N 11  X    0.006262  -0.001291  -0.000718  -0.009493   0.010848
   77  N 11  Y   -0.001484  -0.000350   0.001178  -0.023831  -0.006135
   78  N 11  Z    0.001742   0.000425  -0.001040  -0.033724   0.002736
   79  H 12  S   -0.001501   0.001018  -0.000335   0.014520   0.048962
   80  H 12  S    0.000832   0.014559  -0.001129   0.002741  -0.001007
   81  H 13  S   -0.001398   0.000793   0.000376   0.013369   0.048686
   82  H 13  S    0.000063   0.015810   0.001511   0.000588  -0.005015
   83  H 14  S    0.000793  -0.001570  -0.001384   0.033192   0.028755
   84  H 14  S    0.014361   0.001257  -0.000500   0.004792  -0.004312
   85  H 15  S    0.000645  -0.001320   0.000635   0.026797   0.033264
   86  H 15  S    0.014837   0.001381   0.001680  -0.007197   0.000865
   87  H 16  S   -0.000003   0.000302  -0.000829   0.047603  -0.038707
   88  H 16  S    0.000751  -0.002386   0.001240   0.008114  -0.004865
   89  H 17  S    0.000054  -0.000291  -0.000404   0.045377  -0.041226
   90  H 17  S    0.000216  -0.000106   0.001922   0.006869  -0.011162
   91  H 18  S   -0.000349  -0.000002  -0.000062   0.021361  -0.014877
   92  H 18  S    0.000983  -0.000104   0.002057  -0.001993  -0.005340
   93  H 19  S   -0.000457   0.000019   0.000007   0.003530   0.047096
   94  H 19  S   -0.000010  -0.001226   0.000182  -0.001009   0.002718
   95  H 20  S   -0.000031  -0.000263  -0.000055   0.003121   0.044753
   96  H 20  S    0.001204   0.001608  -0.000019  -0.001391  -0.002096
   97  H 21  S   -0.001376   0.000041  -0.000527   0.064917   0.013734
   98  H 21  S    0.001321  -0.000387   0.002368   0.007035   0.003917

                     11         12         13         14         15
                   -0.9205    -0.8559    -0.8188    -0.7151    -0.6591
                     A          A          A          A          A   
    1  C  1  S   -0.083028  -0.072122  -0.115933   0.090556  -0.019719
    2  C  1  S    0.080359   0.067370   0.106370  -0.080345   0.017147
    3  C  1  X   -0.017514   0.002376   0.022758  -0.068267   0.005304
    4  C  1  Y   -0.016488  -0.003651   0.008556  -0.075272   0.065044
    5  C  1  Z    0.005546  -0.000175  -0.006152   0.022344  -0.006156
    6  C  1  S    0.219295   0.213260   0.364241  -0.335100   0.085662
    7  C  1  X   -0.002449  -0.000290   0.004524  -0.024474  -0.008416
    8  C  1  Y   -0.002534  -0.002896  -0.000078  -0.029941   0.034065
    9  C  1  Z    0.000649  -0.000003  -0.001008   0.007810  -0.000746
   10  H  2  S    0.037872   0.007883  -0.012081   0.093078  -0.082403
   11  H  2  S   -0.000468  -0.000956  -0.004206   0.032009  -0.047096
   12  H  3  S    0.042030   0.040184   0.069380  -0.078196   0.035000
   13  H  3  S    0.003218   0.006071   0.013608  -0.033317   0.024601
   14  C  4  S   -0.079629  -0.017701   0.017802  -0.123321   0.068496
   15  C  4  S    0.073811   0.014081  -0.017993   0.104575  -0.058022
   16  C  4  X    0.019213   0.048099   0.089748  -0.015376  -0.063842
   17  C  4  Y    0.020919   0.012625   0.019200  -0.058514   0.103368
   18  C  4  Z   -0.006312  -0.012424  -0.023496   0.008712   0.007658
   19  C  4  S    0.212237   0.060720  -0.046898   0.453818  -0.280352
   20  C  4  X   -0.002799  -0.000558   0.010493  -0.006144  -0.023405
   21  C  4  Y    0.003971   0.003621   0.003304  -0.015726   0.050982
   22  C  4  Z    0.000810   0.001725  -0.002829   0.004231   0.002515
   23  C  5  S   -0.015185   0.059332   0.113063   0.016593  -0.116498
   24  C  5  S    0.015167  -0.055089  -0.102753  -0.016301   0.098855
   25  C  5  X    0.046289   0.029423   0.004246   0.100600   0.004896
   26  C  5  Y    0.005888   0.015841   0.016968   0.004927   0.119221
   27  C  5  Z   -0.013087  -0.006019  -0.002630  -0.023969  -0.009536
   28  C  5  S    0.036541  -0.170280  -0.338638  -0.061412   0.449925
   29  C  5  X   -0.003480  -0.010382  -0.015599   0.010023   0.009937
   30  C  5  Y   -0.007270   0.011788   0.009625   0.003592   0.048318
   31  C  5  Z    0.002981  -0.003716   0.003613  -0.004540  -0.008603
   32  C  6  S    0.066109   0.066299   0.033889   0.108676   0.101356
   33  C  6  S   -0.063615  -0.062312  -0.034315  -0.100605  -0.092041
   34  C  6  X    0.048328  -0.022334  -0.079141  -0.030254   0.014575
   35  C  6  Y   -0.012646  -0.011555  -0.013737   0.015297   0.098037
   36  C  6  Z   -0.017134   0.006432   0.019286   0.002599  -0.015500
   37  C  6  S   -0.168577  -0.169133  -0.094369  -0.347457  -0.358526
   38  C  6  X   -0.009188  -0.002626  -0.022953  -0.025434  -0.025223
   39  C  6  Y   -0.005410   0.000490   0.001792   0.010602   0.045387
   40  C  6  Z   -0.005525   0.013175   0.002166   0.006961   0.004492
   41  C  7  S   -0.029071  -0.071458   0.026056  -0.021163  -0.023779
   42  C  7  S    0.031599   0.080404  -0.029052   0.023302   0.025861
   43  C  7  X   -0.038469  -0.107519   0.121175   0.073828   0.049329
   44  C  7  Y    0.005619   0.001644  -0.003109   0.002891   0.010064
   45  C  7  Z   -0.086000   0.093917  -0.007476   0.031203   0.027513
   46  C  7  S    0.039363   0.099593  -0.028365   0.050988   0.056001
   47  C  7  X    0.023684   0.039195  -0.022247   0.013156   0.018553
   48  C  7  Y   -0.004079  -0.000172   0.000691   0.000962   0.003948
   49  C  7  Z    0.018524  -0.031801   0.011187  -0.002626  -0.003513
   50  N  8  S   -0.136052   0.102398  -0.025052   0.004008   0.006678
   51  N  8  S    0.121764  -0.090094   0.021938  -0.002315  -0.004500
   52  N  8  X   -0.012933  -0.017613   0.016369   0.006481   0.008107
   53  N  8  Y    0.014584  -0.011524   0.002265   0.000560   0.004573
   54  N  8  Z   -0.001629   0.028525  -0.004824   0.016297   0.019530
   55  N  8  S    0.419669  -0.349527   0.091674  -0.021708  -0.034496
   56  N  8  X   -0.024155  -0.019483   0.025168   0.010283   0.008306
   57  N  8  Y    0.018758  -0.013595   0.004282   0.001723   0.004531
   58  N  8  Z    0.009349  -0.003187   0.004040   0.008671   0.012230
   59  N  9  S   -0.026384  -0.142711   0.110238   0.045653   0.027108
   60  N  9  S    0.021782   0.125977  -0.096504  -0.040056  -0.024002
   61  N  9  X    0.007337   0.054742  -0.026741   0.008976   0.014628
   62  N  9  Y    0.000766   0.003437  -0.003144  -0.001273   0.000468
   63  N  9  Z   -0.021197  -0.050781   0.048112   0.026331   0.018010
   64  N  9  S    0.082904   0.449347  -0.352096  -0.146760  -0.086056
   65  N  9  X    0.007309   0.059851  -0.035574   0.000663   0.008077
   66  N  9  Y    0.002647   0.004856  -0.004114  -0.001214   0.000284
   67  N  9  Z   -0.030492  -0.049633   0.050836   0.027137   0.017748
   68  H 10  S    0.037835   0.007749  -0.011975   0.092401  -0.081942
   69  H 10  S   -0.000351   0.000114  -0.003856   0.031550  -0.045641
   70  N 11  S    0.114854  -0.018838  -0.079504  -0.056962  -0.029956
   71  N 11  S   -0.099282   0.015491   0.067522   0.047919   0.026386
   72  N 11  X   -0.019419  -0.060750  -0.012035  -0.086193  -0.074412
   73  N 11  Y    0.019240   0.006755  -0.007508   0.020858   0.045538
   74  N 11  Z   -0.017219   0.006404   0.007869   0.008260  -0.002444
   75  N 11  S   -0.369399   0.063409   0.277742   0.216298   0.118160
   76  N 11  X   -0.005210  -0.052790   0.007052  -0.055766  -0.054799
   77  N 11  Y    0.022263   0.001674  -0.012700   0.009127   0.034268
   78  N 11  Z    0.000939   0.016778  -0.011397   0.000348  -0.003420
   79  H 12  S    0.007183  -0.029230  -0.059747  -0.015381   0.110802
   80  H 12  S   -0.000377  -0.000345  -0.004233  -0.006394   0.053911
   81  H 13  S    0.008635  -0.030535  -0.058785  -0.014992   0.111867
   82  H 13  S    0.007591  -0.009857   0.000094  -0.007584   0.050531
   83  H 14  S   -0.024931  -0.034421  -0.019700  -0.069556  -0.089943
   84  H 14  S    0.003775  -0.002503   0.003108  -0.009866  -0.035614
   85  H 15  S   -0.029612  -0.034679  -0.021496  -0.074940  -0.099066
   86  H 15  S    0.000267  -0.007424   0.001486  -0.018825  -0.050020
   87  H 16  S    0.071397  -0.068611   0.018660  -0.004745  -0.001673
   88  H 16  S    0.019156  -0.029330   0.003681  -0.003303   0.004302
   89  H 17  S    0.075689  -0.062934   0.012948  -0.009610  -0.014463
   90  H 17  S    0.023921  -0.024203   0.004205  -0.007974  -0.011306
   91  H 18  S    0.013796   0.068024  -0.060904  -0.036999  -0.027702
   92  H 18  S    0.008724   0.024475  -0.027755  -0.021776  -0.018031
   93  H 19  S    0.042054   0.039937   0.069400  -0.078135   0.034660
   94  H 19  S    0.002482   0.005900   0.013013  -0.033251   0.024281
   95  H 20  S    0.041624   0.042641   0.076047  -0.075682   0.001556
   96  H 20  S    0.003740   0.010112   0.022862  -0.032268  -0.001432
   97  H 21  S   -0.063289   0.017806   0.051064   0.051779   0.030628
   98  H 21  S   -0.018746   0.007978   0.016917   0.022239   0.015236

                     16         17         18         19         20
                   -0.5600    -0.5216    -0.4787    -0.4692    -0.4531
                     A          A          A          A          A   
    1  C  1  S   -0.003038  -0.000989   0.001213   0.000500  -0.000323
    2  C  1  S    0.002512   0.000761  -0.001938   0.000464   0.001677
    3  C  1  X    0.009143   0.052661   0.224885  -0.091628  -0.119093
    4  C  1  Y    0.005564   0.021193  -0.169087   0.041864  -0.092976
    5  C  1  Z   -0.027234   0.183562  -0.000699   0.166825   0.004804
    6  C  1  S    0.013368   0.004960  -0.005361  -0.009338  -0.012967
    7  C  1  X    0.006095   0.040251   0.172710  -0.068496  -0.094947
    8  C  1  Y    0.003149   0.014851  -0.137394   0.038855  -0.068723
    9  C  1  Z   -0.020311   0.140570   0.003089   0.137925   0.001891
   10  H  2  S   -0.022492   0.122706   0.060360   0.023012  -0.014311
   11  H  2  S   -0.016126   0.101817   0.055422   0.015121  -0.018858
   12  H  3  S   -0.008632   0.107839  -0.061236   0.102907  -0.047631
   13  H  3  S   -0.007796   0.093127  -0.053360   0.091654  -0.046397
   14  C  4  S    0.005429   0.003216   0.014819  -0.014111  -0.016284
   15  C  4  S   -0.004065  -0.002535  -0.010933   0.010532   0.012787
   16  C  4  X   -0.017743   0.046443   0.095528   0.038086   0.119883
   17  C  4  Y   -0.013322   0.013657  -0.131421   0.070918   0.073878
   18  C  4  Z   -0.038285   0.228265   0.012524   0.055269  -0.042276
   19  C  4  S   -0.020176  -0.014152  -0.066997   0.063019   0.063739
   20  C  4  X   -0.012411   0.036231   0.086550   0.024528   0.094008
   21  C  4  Y   -0.008565   0.011286  -0.106218   0.061422   0.059884
   22  C  4  Z   -0.025023   0.177752   0.007416   0.047801  -0.034528
   23  C  5  S    0.002185  -0.001100  -0.019762   0.019494   0.013900
   24  C  5  S   -0.002071   0.000730   0.014088  -0.014859  -0.010833
   25  C  5  X   -0.021911   0.038385  -0.141744   0.019013  -0.017216
   26  C  5  Y   -0.035713  -0.002985   0.031809   0.035179   0.126758
   27  C  5  Z   -0.052749   0.161949   0.018374  -0.084511   0.019520
   28  C  5  S   -0.011989   0.001715   0.102959  -0.086667  -0.040310
   29  C  5  X   -0.015307   0.030513  -0.086590  -0.001981  -0.014262
   30  C  5  Y   -0.020408  -0.002061   0.015970   0.025136   0.097961
   31  C  5  Z   -0.043904   0.120015   0.007716  -0.069409   0.019044
   32  C  6  S   -0.018743  -0.003462   0.008431  -0.003584  -0.009755
   33  C  6  S    0.017841   0.002954  -0.007021   0.003856   0.012021
   34  C  6  X    0.024075   0.040112  -0.006012  -0.112492  -0.184537
   35  C  6  Y   -0.040684  -0.011762   0.124956  -0.010116   0.082514
   36  C  6  Z   -0.117217   0.066583  -0.043221  -0.109896   0.047739
   37  C  6  S    0.078941   0.014926  -0.045406   0.011657   0.006997
   38  C  6  X    0.023750   0.025802  -0.008374  -0.071458  -0.115627
   39  C  6  Y   -0.031382  -0.006167   0.085698  -0.010209   0.048212
   40  C  6  Z   -0.068847   0.044840  -0.031981  -0.091078   0.028658
   41  C  7  S   -0.106437  -0.039508   0.016864   0.049830   0.006243
   42  C  7  S    0.117858   0.043396  -0.019560  -0.055610  -0.008467
   43  C  7  X    0.109595   0.021489   0.013438   0.031370   0.006031
   44  C  7  Y   -0.013064  -0.004568   0.027288   0.011066  -0.043799
   45  C  7  Z   -0.032708  -0.031517   0.009675   0.057616  -0.161827
   46  C  7  S    0.271375   0.106065  -0.048603  -0.142649  -0.019577
   47  C  7  X    0.033806   0.011723   0.003281  -0.001529  -0.014635
   48  C  7  Y   -0.007802  -0.002471   0.018635   0.006435  -0.023612
   49  C  7  Z   -0.019757  -0.017086   0.009849   0.039529  -0.042413
   50  N  8  S    0.031626   0.002870   0.002814   0.002600   0.001141
   51  N  8  S   -0.026689  -0.002455  -0.002743  -0.002787  -0.002901
   52  N  8  X    0.023596  -0.037432   0.078124   0.204167  -0.131331
   53  N  8  Y   -0.014448  -0.010988   0.028355   0.042020  -0.046135
   54  N  8  Z    0.200472   0.073072  -0.005876  -0.056143   0.103185
   55  N  8  S   -0.119970  -0.012896  -0.007901   0.000119   0.016500
   56  N  8  X    0.026563  -0.030291   0.069012   0.183829  -0.120809
   57  N  8  Y   -0.014811  -0.008912   0.025661   0.035037  -0.044138
   58  N  8  Z    0.166208   0.060800  -0.001043  -0.043971   0.111181
   59  N  9  S    0.048093   0.022902  -0.017728  -0.045412   0.000671
   60  N  9  S   -0.040010  -0.019486   0.014666   0.038575  -0.001540
   61  N  9  X    0.055937   0.028278  -0.030371  -0.073021  -0.073613
   62  N  9  Y   -0.006523  -0.003178   0.009955   0.007959  -0.008685
   63  N  9  Z    0.011723   0.000431  -0.002351   0.004708  -0.059118
   64  N  9  S   -0.181117  -0.083789   0.065682   0.164855  -0.013906
   65  N  9  X    0.025815   0.017477  -0.021545  -0.054903  -0.054026
   66  N  9  Y   -0.003911  -0.002353   0.007374   0.006396  -0.009167
   67  N  9  Z    0.014517   0.002155  -0.003952   0.001300  -0.055562
   68  H 10  S    0.021818  -0.124918   0.032616  -0.051013  -0.006090
   69  H 10  S    0.020682  -0.099288   0.031330  -0.044359  -0.012472
   70  N 11  S    0.038997   0.012906  -0.005872  -0.009920  -0.009215
   71  N 11  S   -0.033267  -0.010460   0.005752   0.006843   0.004456
   72  N 11  X   -0.075467  -0.023936   0.047993   0.052331   0.207473
   73  N 11  Y   -0.003083   0.001433   0.046133  -0.021776  -0.051032
   74  N 11  Z   -0.213629  -0.030984  -0.038978  -0.070741  -0.070861
   75  N 11  S   -0.145940  -0.052934   0.023873   0.046960   0.035951
   76  N 11  X   -0.070192  -0.023640   0.044637   0.054602   0.211258
   77  N 11  Y    0.000089   0.001851   0.042692  -0.019193  -0.050355
   78  N 11  Z   -0.187393  -0.027207  -0.038026  -0.073626  -0.074717
   79  H 12  S   -0.041539   0.083131   0.028874  -0.042587   0.051394
   80  H 12  S   -0.032969   0.064916   0.021430  -0.027062   0.047564
   81  H 13  S    0.016002  -0.090526   0.042773   0.042498   0.024282
   82  H 13  S    0.009011  -0.071649   0.035128   0.049159   0.018131
   83  H 14  S    0.082461  -0.028456  -0.031323   0.070694  -0.041126
   84  H 14  S    0.052377  -0.023814  -0.023733   0.055558  -0.038760
   85  H 15  S   -0.023675   0.049900  -0.073519  -0.074690  -0.036551
   86  H 15  S   -0.032398   0.042654  -0.064202  -0.067516  -0.037664
   87  H 16  S   -0.042836  -0.043503   0.057282   0.147562  -0.111580
   88  H 16  S   -0.036216  -0.041397   0.052323   0.130193  -0.094729
   89  H 17  S   -0.119533  -0.017877  -0.037547  -0.074983   0.015682
   90  H 17  S   -0.089482  -0.015940  -0.027850  -0.054848   0.017725
   91  H 18  S   -0.060375  -0.028312   0.027533   0.063461   0.060416
   92  H 18  S   -0.053967  -0.024338   0.023024   0.053436   0.057726
   93  H 19  S    0.016684  -0.102055  -0.105142  -0.062415  -0.012335
   94  H 19  S    0.012490  -0.087565  -0.091530  -0.057031  -0.013545
   95  H 20  S    0.008962   0.003859   0.193458  -0.093522  -0.047482
   96  H 20  S    0.006881   0.003025   0.186700  -0.091313  -0.048356
   97  H 21  S   -0.136530  -0.023776  -0.025705  -0.046587  -0.078199
   98  H 21  S   -0.093597  -0.019622  -0.014780  -0.027073  -0.056490

                     21         22         23         24         25
                   -0.4333    -0.4112    -0.3904    -0.3670    -0.3559
                     A          A          A          A          A   
    1  C  1  S   -0.001196   0.008167  -0.003362   0.016470   0.015272
    2  C  1  S    0.001136  -0.008324   0.002899  -0.013419  -0.012936
    3  C  1  X   -0.086571   0.035459   0.019380   0.170553   0.075246
    4  C  1  Y   -0.002764   0.248557  -0.032326   0.033460   0.119319
    5  C  1  Z   -0.172044  -0.005873   0.175631  -0.075491   0.061775
    6  C  1  S    0.003104  -0.026521   0.013057  -0.066581  -0.064710
    7  C  1  X   -0.074040   0.026639   0.019723   0.155795   0.059535
    8  C  1  Y   -0.000603   0.214013  -0.027814   0.024091   0.108953
    9  C  1  Z   -0.154879  -0.003045   0.161789  -0.069041   0.059265
   10  H  2  S    0.013860   0.062713  -0.111092   0.022880  -0.041426
   11  H  2  S    0.014329   0.060807  -0.110242   0.023083  -0.038849
   12  H  3  S   -0.104325   0.113012   0.095408  -0.032006   0.100548
   13  H  3  S   -0.099764   0.119482   0.098961  -0.028669   0.134889
   14  C  4  S   -0.003473  -0.000165  -0.000833  -0.002960   0.008679
   15  C  4  S    0.002362  -0.001332   0.000692   0.002190  -0.007073
   16  C  4  X    0.025950  -0.107828  -0.012938  -0.191515  -0.032012
   17  C  4  Y    0.009736  -0.182193   0.031643  -0.008176  -0.170782
   18  C  4  Z    0.012593   0.028390  -0.156559   0.094781  -0.149422
   19  C  4  S    0.018216   0.027139   0.001949   0.016120  -0.036138
   20  C  4  X    0.020523  -0.077563  -0.020276  -0.162056  -0.017828
   21  C  4  Y    0.011392  -0.148542   0.025121  -0.002428  -0.160584
   22  C  4  Z    0.018513   0.017430  -0.149987   0.086199  -0.149014
   23  C  5  S    0.010802   0.001587   0.002722  -0.015305   0.005527
   24  C  5  S   -0.008287  -0.001132  -0.001623   0.008626  -0.006868
   25  C  5  X    0.030332  -0.063438  -0.015641   0.196327   0.014993
   26  C  5  Y    0.017230  -0.134004  -0.001637   0.022661   0.162922
   27  C  5  Z    0.158722   0.007535  -0.088905  -0.062787   0.103086
   28  C  5  S   -0.054447  -0.007836  -0.018614   0.070129   0.001674
   29  C  5  X    0.021256  -0.059165  -0.017162   0.159775   0.041948
   30  C  5  Y    0.008602  -0.110403  -0.001997   0.021098   0.141661
   31  C  5  Z    0.140813   0.009512  -0.073827  -0.055787   0.099764
   32  C  6  S    0.000650   0.007368   0.001141   0.029960   0.010327
   33  C  6  S   -0.001633  -0.003884  -0.003233  -0.024779  -0.006859
   34  C  6  X    0.025180   0.007787   0.065457  -0.097806  -0.090820
   35  C  6  Y    0.013895   0.181974  -0.019655  -0.119762  -0.059741
   36  C  6  Z    0.138207  -0.015966   0.143455  -0.005446   0.088868
   37  C  6  S   -0.004582  -0.057708  -0.001401  -0.124537  -0.042825
   38  C  6  X    0.018957   0.000735   0.050092  -0.090555  -0.069340
   39  C  6  Y    0.018348   0.135293  -0.007475  -0.094135  -0.049173
   40  C  6  Z    0.098250  -0.011455   0.118172  -0.009290   0.066432
   41  C  7  S    0.000446   0.014395  -0.016176   0.029002  -0.005093
   42  C  7  S   -0.002842  -0.018211   0.015569  -0.034828   0.007808
   43  C  7  X    0.039760   0.028707  -0.019915   0.072028  -0.005546
   44  C  7  Y    0.051151   0.039076   0.056182  -0.100755  -0.103559
   45  C  7  Z   -0.015478  -0.087310  -0.134125  -0.125676   0.083726
   46  C  7  S   -0.003123  -0.046512   0.046456  -0.100285   0.022069
   47  C  7  X    0.018540   0.008640   0.001674   0.021890  -0.011179
   48  C  7  Y    0.037132   0.032914   0.047381  -0.079696  -0.086876
   49  C  7  Z   -0.000556  -0.029629  -0.065202  -0.054412   0.048984
   50  N  8  S   -0.003738  -0.000500  -0.008924  -0.013366   0.000900
   51  N  8  S    0.002014  -0.000822   0.006191   0.011627   0.000459
   52  N  8  X    0.208907  -0.038628   0.052977   0.034932   0.047673
   53  N  8  Y    0.073838   0.013716   0.060007  -0.059098  -0.054018
   54  N  8  Z    0.083261   0.059688   0.176439   0.109185  -0.076936
   55  N  8  S    0.019290   0.011533   0.036530   0.066503  -0.004814
   56  N  8  X    0.191863  -0.037445   0.043090   0.032039   0.049501
   57  N  8  Y    0.069736   0.015551   0.061009  -0.064875  -0.059635
   58  N  8  Z    0.081145   0.066023   0.175414   0.114341  -0.079979
   59  N  9  S   -0.017862  -0.003946   0.011921  -0.008532  -0.009126
   60  N  9  S    0.014155   0.001460  -0.012000   0.004140   0.010067
   61  N  9  X   -0.034523  -0.074391  -0.007643  -0.147277   0.041421
   62  N  9  Y    0.017956   0.019276   0.020380  -0.033058  -0.048553
   63  N  9  Z    0.000841  -0.034178  -0.030419  -0.042439   0.027294
   64  N  9  S    0.069458   0.016234  -0.039203   0.039626   0.025961
   65  N  9  X   -0.026520  -0.052182   0.000366  -0.109104   0.022861
   66  N  9  Y    0.013841   0.014026   0.015007  -0.030440  -0.040895
   67  N  9  Z    0.000198  -0.032946  -0.026360  -0.037142   0.024746
   68  H 10  S   -0.011930   0.076306   0.077947  -0.036411   0.177388
   69  H 10  S   -0.011548   0.071772   0.074387  -0.038378   0.201206
   70  N 11  S    0.009679  -0.020210   0.015664  -0.010375   0.005827
   71  N 11  S   -0.006983   0.016553  -0.011440   0.005498  -0.006402
   72  N 11  X    0.025495   0.104361   0.022471   0.004431  -0.006241
   73  N 11  Y    0.027358   0.076891   0.040030  -0.118475  -0.120022
   74  N 11  Z   -0.021866  -0.015426   0.136866   0.072808  -0.089155
   75  N 11  S   -0.041625   0.082986  -0.071131   0.051161  -0.023205
   76  N 11  X    0.026510   0.108635   0.026510   0.013130  -0.006867
   77  N 11  Y    0.027928   0.072666   0.039666  -0.123572  -0.122806
   78  N 11  Z   -0.026355  -0.018182   0.139300   0.066708  -0.095551
   79  H 12  S    0.086207  -0.058585  -0.053291  -0.004669   0.140407
   80  H 12  S    0.077318  -0.049941  -0.047330  -0.010252   0.150649
   81  H 13  S   -0.089345  -0.043081   0.051987   0.015184  -0.005138
   82  H 13  S   -0.053333  -0.036693   0.054661   0.008734   0.000398
   83  H 14  S   -0.075970  -0.073119  -0.072111   0.039605  -0.021705
   84  H 14  S   -0.062986  -0.064725  -0.065704   0.052750  -0.002048
   85  H 15  S    0.077970  -0.081704   0.104431  -0.004645   0.047535
   86  H 15  S    0.078800  -0.079534   0.110361   0.012582   0.056169
   87  H 16  S    0.134163  -0.031037   0.027386  -0.007373   0.026245
   88  H 16  S    0.113560  -0.029128   0.026786  -0.010024   0.027876
   89  H 17  S   -0.147379  -0.009517  -0.117633  -0.062686   0.016743
   90  H 17  S   -0.125602  -0.005042  -0.112133  -0.056113   0.016683
   91  H 18  S    0.028019   0.057904   0.008244   0.100991  -0.033380
   92  H 18  S    0.021151   0.059361   0.006301   0.109142  -0.039389
   93  H 19  S    0.121631   0.085892  -0.127856   0.010664  -0.023713
   94  H 19  S    0.113020   0.091584  -0.137021   0.021470  -0.021638
   95  H 20  S   -0.033075  -0.069610   0.003429   0.110761  -0.012942
   96  H 20  S   -0.034478  -0.069256   0.002439   0.132923  -0.007844
   97  H 21  S   -0.025017  -0.009448   0.079065   0.053881  -0.074613
   98  H 21  S   -0.015902  -0.004962   0.066818   0.050111  -0.067439

                     26         27         28         29         30
                   -0.3487    -0.3202    -0.3091    -0.2925    -0.1766
                     A          A          A          A          A   
    1  C  1  S    0.008401   0.004553   0.008533  -0.011673  -0.006376
    2  C  1  S   -0.007587  -0.003252  -0.006768   0.008399   0.004368
    3  C  1  X   -0.032278   0.052903   0.034967  -0.072036  -0.024317
    4  C  1  Y    0.086689   0.001498   0.026269  -0.025690  -0.009415
    5  C  1  Z   -0.062550  -0.018328  -0.008961   0.022377   0.006073
    6  C  1  S   -0.035032  -0.022534  -0.037198   0.058752   0.033564
    7  C  1  X   -0.042613   0.056543   0.030330  -0.076057  -0.030624
    8  C  1  Y    0.082204   0.001611   0.022399  -0.025022  -0.008373
    9  C  1  Z   -0.054170  -0.017398  -0.007464   0.024179   0.006699
   10  H  2  S    0.170371   0.026964   0.028257   0.014510  -0.001403
   11  H  2  S    0.206776   0.036851   0.049832   0.029674  -0.011652
   12  H  3  S   -0.005192  -0.016526   0.004376   0.004005   0.002822
   13  H  3  S   -0.004135  -0.029447   0.011576  -0.004196   0.000818
   14  C  4  S    0.015746  -0.012779   0.005104   0.011988   0.006371
   15  C  4  S   -0.012715   0.010050  -0.006240  -0.007149  -0.000044
   16  C  4  X    0.146797  -0.095969  -0.000692   0.112433   0.038464
   17  C  4  Y   -0.152854   0.044460  -0.043322  -0.004769  -0.008366
   18  C  4  Z    0.121545   0.079434   0.014111  -0.012250  -0.010189
   19  C  4  S   -0.071417   0.061773  -0.008636  -0.077085  -0.068470
   20  C  4  X    0.142498  -0.084701  -0.014028   0.111035   0.070455
   21  C  4  Y   -0.147201   0.048417  -0.040746  -0.018474  -0.018668
   22  C  4  Z    0.116343   0.070007   0.015252  -0.015773  -0.013811
   23  C  5  S    0.012624  -0.005371   0.011856  -0.009929  -0.021674
   24  C  5  S   -0.010780   0.003256  -0.009372   0.008015   0.013014
   25  C  5  X   -0.133460   0.053656   0.043018  -0.150188  -0.080637
   26  C  5  Y    0.171160  -0.069703   0.120997  -0.047023  -0.058797
   27  C  5  Z   -0.125163  -0.171423  -0.066531  -0.032707   0.035931
   28  C  5  S   -0.031837   0.025660  -0.065459   0.062415   0.168852
   29  C  5  X   -0.091963   0.034655   0.032131  -0.116496  -0.056087
   30  C  5  Y    0.147923  -0.065360   0.138006  -0.059771  -0.108319
   31  C  5  Z   -0.135717  -0.160432  -0.063908  -0.036097   0.034845
   32  C  6  S    0.002680  -0.003206   0.006809   0.008261  -0.006462
   33  C  6  S   -0.003258   0.007312  -0.008677  -0.009147   0.010460
   34  C  6  X   -0.021551  -0.063233  -0.002349   0.183793   0.022434
   35  C  6  Y   -0.075267   0.086964  -0.147780   0.038280   0.059139
   36  C  6  Z    0.013226   0.218159   0.073660   0.074135  -0.029879
   37  C  6  S    0.001041  -0.013772   0.007600  -0.040778   0.023062
   38  C  6  X   -0.008077  -0.054088   0.027759   0.137227  -0.009528
   39  C  6  Y   -0.060272   0.071879  -0.122545   0.042419  -0.011278
   40  C  6  Z    0.015649   0.206893   0.066968   0.081289  -0.013811
   41  C  7  S   -0.017705  -0.019362   0.011575   0.018133  -0.004642
   42  C  7  S    0.020988   0.024437  -0.018013  -0.026254   0.008746
   43  C  7  X   -0.092634  -0.054536   0.166997   0.201028   0.036890
   44  C  7  Y   -0.022123  -0.040830   0.207875  -0.171227  -0.061529
   45  C  7  Z   -0.049670   0.084103   0.040450   0.020542  -0.006687
   46  C  7  S    0.060353   0.067921  -0.059111  -0.077453  -0.031447
   47  C  7  X   -0.038772  -0.036803   0.088644   0.113704  -0.019342
   48  C  7  Y   -0.017188  -0.034184   0.182537  -0.159826  -0.062505
   49  C  7  Z   -0.031048   0.059017   0.021170  -0.002922  -0.010523
   50  N  8  S   -0.003042   0.008229   0.017566  -0.012297   0.023163
   51  N  8  S    0.002232  -0.007411  -0.015725   0.014287  -0.022956
   52  N  8  X    0.011514   0.022707  -0.113743   0.025890  -0.088153
   53  N  8  Y    0.004950   0.010637   0.130770  -0.174632   0.339348
   54  N  8  Z    0.067974  -0.079019  -0.049162  -0.010632   0.017808
   55  N  8  S    0.008611  -0.036889  -0.078503   0.046286  -0.119425
   56  N  8  X    0.007482   0.024623  -0.119090   0.037946  -0.127580
   57  N  8  Y    0.004268   0.011689   0.153169  -0.197261   0.448107
   58  N  8  Z    0.066878  -0.076131  -0.042465  -0.017397   0.036740
   59  N  9  S    0.012824  -0.005029   0.001321  -0.013989   0.017399
   60  N  9  S   -0.009735   0.007707  -0.004587   0.007124  -0.012677
   61  N  9  X    0.082668   0.103223  -0.142663  -0.192161  -0.050632
   62  N  9  Y   -0.016983  -0.029673   0.126370  -0.083331  -0.084290
   63  N  9  Z   -0.007404   0.023031  -0.001324   0.017077  -0.042097
   64  N  9  S   -0.052402   0.002205   0.005269   0.083805  -0.091167
   65  N  9  X    0.066045   0.071479  -0.106850  -0.153100  -0.041975
   66  N  9  Y   -0.014883  -0.026125   0.115919  -0.079600  -0.099117
   67  N  9  Z   -0.005164   0.017769  -0.003558   0.020955  -0.041706
   68  H 10  S   -0.022436  -0.063528   0.009502  -0.012265   0.001469
   69  H 10  S   -0.016542  -0.097657   0.016673  -0.023663   0.001675
   70  N 11  S    0.023085  -0.004019  -0.019621  -0.003624   0.004520
   71  N 11  S   -0.018582   0.001497   0.015555   0.004898  -0.008798
   72  N 11  X   -0.001197   0.096252  -0.076917  -0.168651  -0.109942
   73  N 11  Y   -0.034575  -0.076049   0.091608  -0.012933  -0.279959
   74  N 11  Z    0.121947  -0.132476  -0.133904  -0.046674   0.015142
   75  N 11  S   -0.099431   0.010806   0.097491   0.019979   0.004888
   76  N 11  X   -0.000714   0.097059  -0.079598  -0.199055  -0.151985
   77  N 11  Y   -0.034459  -0.082680   0.103328  -0.017827  -0.358862
   78  N 11  Z    0.130221  -0.152200  -0.151028  -0.061979   0.011635
   79  H 12  S   -0.012918  -0.143086   0.010547  -0.047716   0.005117
   80  H 12  S   -0.002557  -0.178615   0.015265  -0.066342  -0.020838
   81  H 13  S    0.173400   0.075470   0.077030   0.048507  -0.013256
   82  H 13  S    0.193987   0.086479   0.094263   0.053577  -0.025120
   83  H 14  S    0.027480  -0.171960   0.010721  -0.084195  -0.025644
   84  H 14  S    0.029975  -0.182942  -0.004608  -0.067422  -0.107405
   85  H 15  S    0.037881   0.092489   0.111276   0.073080  -0.049760
   86  H 15  S    0.056716   0.101595   0.133172   0.090779  -0.095049
   87  H 16  S    0.010098   0.030026  -0.047073  -0.031607   0.043686
   88  H 16  S    0.015910   0.043327  -0.040060  -0.041116   0.075388
   89  H 17  S   -0.045176   0.022561   0.080526   0.015687   0.011943
   90  H 17  S   -0.049956   0.023086   0.091244   0.021987   0.020523
   91  H 18  S   -0.054965  -0.069106   0.099610   0.106230   0.036778
   92  H 18  S   -0.063736  -0.084255   0.128934   0.135273   0.060823
   93  H 19  S    0.086542  -0.001264   0.004431   0.003027   0.003109
   94  H 19  S    0.118111   0.006069   0.016140   0.002516  -0.001471
   95  H 20  S   -0.057500   0.040728   0.010526  -0.041826  -0.014291
   96  H 20  S   -0.062333   0.051437   0.017634  -0.058675  -0.026070
   97  H 21  S    0.066872  -0.121270  -0.064217   0.003898   0.013613
   98  H 21  S    0.059050  -0.123705  -0.062043   0.005588  -0.005189

                     31         32         33         34         35
                   -0.1255    -0.1121     0.1501     0.3705     0.4078
                     A          A          A          A          A   
    1  C  1  S   -0.002976   0.002498  -0.000607  -0.111567  -0.021891
    2  C  1  S    0.001844  -0.001329   0.000321   0.025082   0.007926
    3  C  1  X   -0.009812   0.007906   0.001904   0.080168   0.068110
    4  C  1  Y   -0.001785   0.003389   0.005580   0.070127  -0.020007
    5  C  1  Z    0.002599  -0.002553  -0.001581  -0.022730   0.138875
    6  C  1  S    0.017181  -0.017276   0.007293   1.573116   0.277615
    7  C  1  X   -0.014314   0.011949   0.007018   0.357669   0.301703
    8  C  1  Y    0.001665   0.005022   0.024320   0.403150  -0.094778
    9  C  1  Z    0.004251  -0.002204  -0.006270  -0.108969   0.536999
   10  H  2  S    0.003740   0.001006   0.006329   0.006815  -0.045904
   11  H  2  S   -0.005497   0.004079  -0.033326  -0.662113  -0.803489
   12  H  3  S    0.002440  -0.001482   0.002654   0.002939  -0.021542
   13  H  3  S   -0.000191  -0.001045  -0.004411  -0.788944  -0.674279
   14  C  4  S    0.002756  -0.003113  -0.001407  -0.075511  -0.007780
   15  C  4  S    0.003315   0.000070   0.004458   0.013322   0.001036
   16  C  4  X    0.018924  -0.014692   0.013358   0.015553   0.026338
   17  C  4  Y   -0.008913   0.004009  -0.015175  -0.088833  -0.011001
   18  C  4  Z   -0.003025   0.004793  -0.003314   0.005523   0.148518
   19  C  4  S   -0.055776   0.037458  -0.007734   1.116167   0.110814
   20  C  4  X    0.059976  -0.029548   0.090921  -0.021864   0.049225
   21  C  4  Y   -0.028068   0.014757  -0.064465  -0.454736   0.034494
   22  C  4  Z   -0.014163   0.004779  -0.017203   0.044133   0.558578
   23  C  5  S   -0.020600   0.009345  -0.027755  -0.045849   0.023572
   24  C  5  S    0.011986  -0.005306   0.013099   0.016012  -0.006277
   25  C  5  X   -0.058983   0.030235  -0.035447  -0.020549   0.036228
   26  C  5  Y   -0.037189   0.020657  -0.001865   0.074674  -0.038021
   27  C  5  Z    0.009281  -0.010993  -0.007703  -0.004253   0.137246
   28  C  5  S    0.179320  -0.075040   0.320390   0.602928  -0.344247
   29  C  5  X   -0.012304   0.012269   0.015812  -0.254231   0.036534
   30  C  5  Y   -0.084964   0.047113  -0.002997   0.381689  -0.219286
   31  C  5  Z    0.004198  -0.002328  -0.051686   0.034733   0.443749
   32  C  6  S   -0.009959  -0.003191  -0.024500  -0.002534   0.009686
   33  C  6  S    0.012205   0.001895   0.018275  -0.002815  -0.002584
   34  C  6  X   -0.025156  -0.018941  -0.054572  -0.017705   0.003760
   35  C  6  Y    0.065608  -0.017590   0.007946  -0.057428  -0.008655
   36  C  6  Z    0.008758  -0.006845   0.008587   0.011906   0.084827
   37  C  6  S    0.025740   0.007919   0.216165   0.090863  -0.120290
   38  C  6  X   -0.083552   0.015028  -0.143509  -0.040513   0.023618
   39  C  6  Y    0.037164  -0.019762  -0.036650  -0.241962  -0.037307
   40  C  6  Z    0.012798  -0.031971   0.030134   0.027959   0.309773
   41  C  7  S    0.011415   0.028603   0.002607   0.000500  -0.007202
   42  C  7  S   -0.014546  -0.040657  -0.002111  -0.003500   0.002622
   43  C  7  X    0.055180   0.088512   0.018245  -0.005676   0.010671
   44  C  7  Y    0.106626  -0.037657   0.452300  -0.053664   0.060458
   45  C  7  Z   -0.017651  -0.062901   0.032608   0.003349  -0.017994
   46  C  7  S   -0.022252  -0.037441  -0.007205   0.013758   0.037945
   47  C  7  X   -0.002437   0.021988   0.016770   0.023184  -0.018041
   48  C  7  Y    0.120219  -0.041073   0.648692  -0.091320   0.104393
[...]
   17             0.096701   0.000669   0.067598   0.011884   0.004297
   18             0.002857   0.019026   0.000382   0.059308   0.002822
   19             0.054050   0.040240   0.064824   0.003508   0.004417
   20             0.003184   0.021422   0.000168   0.049801   0.009846
   21             0.001227   0.001445   0.023418   0.016792   0.024664

                     26         27         28         29         30

                  1.000000   1.000000   1.000000   1.000000   1.000000

    1             0.047627   0.011284   0.004670   0.005260   0.002242
    2             0.112516   0.005425   0.003201  -0.000001   0.000062
    3             0.001851   0.001223   0.000063   0.000041   0.000023
    4             0.197781   0.043789   0.020503   0.009423   0.008848
    5             0.244263   0.117645   0.027708   0.048379   0.040854
    6             0.055320   0.193878   0.096928   0.040264   0.008064
    7             0.015296   0.025055   0.145057   0.191302   0.008548
    8             0.010882   0.030689   0.018489   0.442339   0.380200
    9             0.022625   0.030934   0.230391   0.080571   0.013607
   10             0.003381   0.018671  -0.000004   0.000303   0.000005
   11             0.047411   0.122158   0.188542   0.155029   0.499547
   12             0.006283   0.086592   0.001218   0.004357   0.000787
   13             0.137566   0.036155   0.020783   0.000129   0.000989
   14             0.008082   0.123634   0.005000   0.014554   0.013425
   15             0.019441   0.052293   0.059011   0.000435   0.014040
   16             0.000142   0.002427   0.007410   0.000063   0.000766
   17             0.004408   0.004709   0.016927   0.002508   0.000043
   18             0.014346   0.019835   0.147759   0.000905   0.006161
   19             0.030761   0.000137   0.000090   0.000016   0.000032
   20             0.010538   0.006396   0.002416   0.002051   0.001181
   21             0.009481   0.067070   0.003841   0.002074   0.000576

                     31         32

                  1.000000   1.000000

    1             0.000104   0.000028
    2             0.000009   0.000022
    3             0.000000   0.000006
    4             0.000170   0.001271
    5             0.000498   0.005049
    6             0.002464   0.006171
    7             0.061363   0.139288
    8             0.059756   0.089106
    9             0.793521   0.640494
   10             0.000007   0.000044
   11             0.015726   0.111021
   12             0.000011   0.000473
   13             0.000051   0.000326
   14             0.000153   0.001617
   15             0.000297   0.001784
   16             0.011395   0.002833
   17             0.001237   0.000223
   18             0.046733   0.000069
   19             0.000001   0.000005
   20             0.000025   0.000090
   21             0.006479   0.000080

     ATOMIC SPIN POPULATION (ALPHA MINUS BETA)
       ATOM         MULL.POP.                    LOW.POP.
    1 C            -0.000491                    -0.000200
    2 H             0.000033                     0.000041
    3 H             0.000020                     0.000019
    4 C             0.003882                     0.002132
    5 C             0.000785                     0.010920
    6 C             0.008271                     0.014223
    7 C             0.733239                     0.635757
    8 N            -0.044302                     0.012783
    9 N             0.271687                     0.276226
   10 H             0.000851                     0.000545
   11 N            -0.044232                    -0.002368
   12 H             0.003013                     0.001383
   13 H             0.011048                     0.006997
   14 H             0.006862                     0.003651
   15 H             0.008790                     0.005237
   16 H             0.065998                     0.049527
   17 H            -0.000066                    -0.000464
   18 H            -0.024366                    -0.015939
   19 H             0.000041                     0.000037
   20 H             0.000230                     0.000185
   21 H            -0.001293                    -0.000691


          ********* ALL ELECTRONS ********

               ----- POPULATIONS IN EACH AO -----
                             MULLIKEN      LOWDIN
              1  C  1  S      1.98828     1.97652
              2  C  1  S      0.35229     0.41454
              3  C  1  X      0.53383     0.50728
              4  C  1  Y      0.53341     0.50521
              5  C  1  Z      0.53654     0.50354
              6  C  1  S      1.11500     0.58374
              7  C  1  X      0.47358     0.57374
              8  C  1  Y      0.48852     0.58779
              9  C  1  Z      0.54768     0.60322
             10  H  2  S      0.46966     0.48090
             11  H  2  S      0.35082     0.45060
             12  H  3  S      0.46838     0.47195
             13  H  3  S      0.34901     0.45025
             14  C  4  S      1.98921     1.97628
             15  C  4  S      0.34302     0.41075
             16  C  4  X      0.53362     0.51893
             17  C  4  Y      0.52470     0.50019
             18  C  4  Z      0.53554     0.50454
             19  C  4  S      1.11345     0.56764
             20  C  4  X      0.38544     0.53754
             21  C  4  Y      0.46108     0.56746
             22  C  4  Z      0.54121     0.58538
             23  C  5  S      1.98965     1.97660
             24  C  5  S      0.34677     0.42683
             25  C  5  X      0.52592     0.51161
             26  C  5  Y      0.53082     0.50912
             27  C  5  Z      0.53549     0.50602
             28  C  5  S      1.11406     0.57474
             29  C  5  X      0.31417     0.50695
             30  C  5  Y      0.47581     0.57916
             31  C  5  Z      0.55048     0.58851
             32  C  6  S      1.98873     1.97592
             33  C  6  S      0.35543     0.41352
             34  C  6  X      0.49533     0.48382
             35  C  6  Y      0.51279     0.48474
             36  C  6  Z      0.54912     0.51539
             37  C  6  S      1.01128     0.56097
             38  C  6  X      0.28656     0.47030
             39  C  6  Y      0.40559     0.54667
             40  C  6  Z      0.51080     0.57414
             41  C  7  S      1.98483     1.97399
             42  C  7  S      0.39146     0.38430
             43  C  7  X      0.56963     0.54836
             44  C  7  Y      0.62285     0.63525
             45  C  7  Z      0.46045     0.44156
             46  C  7  S      0.43334     0.48304
             47  C  7  X      0.02300     0.42518
             48  C  7  Y      0.68144     0.68688
             49  C  7  Z      0.12091     0.44095
             50  N  8  S      1.98759     1.97778
             51  N  8  S      0.35467     0.46939
             52  N  8  X      0.55582     0.53270
             53  N  8  Y      0.75180     0.77038
             54  N  8  Z      0.55147     0.53273
             55  N  8  S      1.31472     0.75990
             56  N  8  X      0.68267     0.69613
             57  N  8  Y      1.05685     1.03094
             58  N  8  Z      0.65263     0.68390
             59  N  9  S      1.98885     1.98009
             60  N  9  S      0.36355     0.49257
             61  N  9  X      0.51008     0.48534
             62  N  9  Y      0.68043     0.70320
             63  N  9  Z      0.60380     0.60122
             64  N  9  S      1.39561     0.86254
             65  N  9  X      0.50591     0.63173
             66  N  9  Y      1.00288     0.98548
             67  N  9  Z      0.86360     0.91826
             68  H 10  S      0.46836     0.47924
             69  H 10  S      0.34396     0.44770
             70  N 11  S      1.98776     1.97737
             71  N 11  S      0.34700     0.45837
             72  N 11  X      0.55071     0.54399
             73  N 11  Y      0.75702     0.77739
             74  N 11  Z      0.55068     0.53157
             75  N 11  S      1.32143     0.73089
             76  N 11  X      0.66476     0.68057
             77  N 11  Y      1.00108     0.98835
             78  N 11  Z      0.67552     0.66936
             79  H 12  S      0.46916     0.48012
             80  H 12  S      0.35673     0.45263
             81  H 13  S      0.46697     0.47716
             82  H 13  S      0.34957     0.45334
             83  H 14  S      0.47184     0.48303
             84  H 14  S      0.33715     0.44597
             85  H 15  S      0.47992     0.49285
             86  H 15  S      0.38387     0.46879
             87  H 16  S      0.45370     0.46391
             88  H 16  S      0.32618     0.41864
             89  H 17  S      0.45242     0.45986
             90  H 17  S      0.29354     0.38963
             91  H 18  S      0.46547     0.47171
             92  H 18  S      0.42536     0.46191
             93  H 19  S      0.46792     0.47135
             94  H 19  S      0.34539     0.44867
             95  H 20  S      0.47129     0.47555
             96  H 20  S      0.36214     0.45633
             97  H 21  S      0.44242     0.45674
             98  H 21  S      0.26680     0.37023

          ----- MULLIKEN ATOMIC OVERLAP POPULATIONS -----
          (OFF-DIAGONAL ELEMENTS NEED TO BE MULTIPLIED BY 2)

             1           2           3           4           5

    1    5.3571913
    2   -0.0454457   0.5561240
    3    0.3752907  -0.0019086   0.5397384
    4    0.2466608   0.3815960  -0.0442460   5.5223598
    5   -0.0706533  -0.0482292  -0.0008559   0.1606781   5.6812219
    6    0.0030243   0.0001189  -0.0000339  -0.0624184   0.2414906
    7    0.0000004   0.0000015  -0.0000000  -0.0000240   0.0019587
    8   -0.0000000  -0.0000006  -0.0000000  -0.0000415   0.0005141
    9   -0.0000000  -0.0000000   0.0000000   0.0000001  -0.0000222
   10   -0.0444052  -0.0290458   0.0031371   0.3824048  -0.0497157
   11   -0.0000214   0.0000021   0.0000000   0.0030682  -0.0737653
   12   -0.0012276  -0.0018092   0.0024044  -0.0433739   0.3613741
   13   -0.0010678   0.0035865   0.0000389  -0.0417617   0.3435570
   14   -0.0000681   0.0002106   0.0000010   0.0039312  -0.0760216
   15   -0.0000615   0.0034405   0.0000047   0.0041187  -0.0831461
   16   -0.0000027   0.0000058   0.0000002   0.0005615  -0.0082009
   17    0.0000000   0.0000000   0.0000000   0.0000006  -0.0000120
   18    0.0000000   0.0000000   0.0000000  -0.0000000   0.0000023
   19    0.3756060   0.0031819  -0.0276895  -0.0438251  -0.0009713
   20    0.3743026  -0.0013542  -0.0284958  -0.0423860   0.0029944
   21    0.0000006   0.0000020  -0.0000000  -0.0000298   0.0009716

             6           7           8           9          10

    6    5.1460888
    7   -0.0738760   4.9298978
    8    0.0056689   0.1093435   7.3794038
    9    0.0010586   0.3850823  -0.0732070   7.3352817
   10    0.0005032   0.0000075  -0.0000234  -0.0000000   0.5459361
   11    0.2640052   0.1201483  -0.0815557  -0.0568526   0.0000173
   12   -0.0408682  -0.0003338  -0.0000232   0.0000024   0.0035862
   13   -0.0398477  -0.0016498  -0.0013179   0.0000106  -0.0009015
   14    0.3625927   0.0063795   0.0030768  -0.0000328   0.0033817
   15    0.3609645   0.0047359  -0.0000911  -0.0000378   0.0003800
   16   -0.0094155  -0.0448899   0.2409908   0.0024155   0.0001853
   17   -0.0001422  -0.0341808   0.3317986  -0.0007450   0.0000002
   18   -0.0002038  -0.0844640  -0.0097403   0.3137025   0.0000000
   19   -0.0000313  -0.0000001  -0.0000001   0.0000000  -0.0018898
   20   -0.0000491  -0.0000000  -0.0000000   0.0000000  -0.0012432
   21   -0.0430028  -0.0302245   0.0034116   0.0080551   0.0000014

            11          12          13          14          15

   11    7.3894393
   12    0.0051662   0.5596159
   13    0.0055566  -0.0232000   0.5527911
   14   -0.0346037   0.0037284   0.0002552   0.5461364
   15   -0.0365568  -0.0003287   0.0044096  -0.0173563   0.6257424
   16    0.0095340   0.0003980   0.0133671   0.0042437   0.0004920
   17    0.0029770   0.0000002   0.0000421   0.0000299   0.0000036
   18    0.0058813   0.0000001   0.0000022   0.0000024   0.0000032
   19    0.0000001   0.0000372   0.0026024   0.0000052   0.0000015
   20    0.0000001  -0.0000094   0.0000066   0.0000031   0.0000036
   21    0.3335144   0.0007556   0.0000638   0.0030986  -0.0029321

            16          17          18          19          20

   16    0.5923062
   17   -0.0227221   0.4645896
   18    0.0004997   0.0044400   0.6608781
   19    0.0000010   0.0000000   0.0000000   0.5344775
   20    0.0000002   0.0000000  -0.0000000  -0.0281956   0.5578505
   21    0.0001061  -0.0001156  -0.0001797   0.0000000  -0.0000000

            21

   21    0.4357237

          TOTAL MULLIKEN AND LOWDIN ATOMIC POPULATIONS
       ATOM         MULL.POP.    CHARGE          LOW.POP.     CHARGE
    1 C             6.569123   -0.569123         6.255566   -0.255566
    2 H             0.820476    0.179524         0.931507    0.068493
    3 H             0.817386    0.182614         0.922195    0.077805
    4 C             6.427273   -0.427273         6.168729   -0.168729
    5 C             6.383169   -0.383169         6.179547   -0.179547
    6 C             6.115627   -0.115627         6.025474   -0.025474
    7 C             5.287912    0.712088         6.019509   -0.019509
    8 N             7.908207   -0.908207         7.453849   -0.453849
    9 N             7.914711   -0.914711         7.660422   -0.660422
   10 H             0.812316    0.187684         0.926937    0.073063
   11 N             7.855954   -0.855954         7.357862   -0.357862
   12 H             0.825895    0.174105         0.932741    0.067259
   13 H             0.816543    0.183457         0.930498    0.069502
   14 H             0.808994    0.191006         0.928998    0.071002
   15 H             0.863790    0.136210         0.961642    0.038358
   16 H             0.779876    0.220124         0.882550    0.117450
   17 H             0.745964    0.254036         0.849484    0.150516
   18 H             0.890824    0.109176         0.933617    0.066383
   19 H             0.813310    0.186690         0.920018    0.079982
   20 H             0.833428    0.166572         0.931883    0.068117
   21 H             0.709220    0.290780         0.826969    0.173031

          -------------------------------
          BOND ORDER AND VALENCE ANALYSIS     BOND ORDER THRESHOLD=0.050
          -------------------------------

                   BOND                       BOND                       BOND
  ATOM PAIR DIST  ORDER      ATOM PAIR DIST  ORDER      ATOM PAIR DIST  ORDER
    1   3  1.096  0.933        1   4  1.544  0.918        1  19  1.097  0.932
    1  20  1.096  0.939        2   4  1.098  0.928        4   5  1.543  0.879
    4  10  1.099  0.926        5   6  1.547  0.879        5  12  1.098  0.930
    5  13  1.099  0.915        6  11  1.471  0.942        6  14  1.096  0.910
    6  15  1.097  0.930        7   8  1.398  0.748        7   9  1.291  1.392
    7  11  1.392  0.728        8  16  1.014  0.850        8  17  1.013  0.896
    9  18  1.032  0.915       11  21  1.015  0.872

                       TOTAL       BONDED        FREE
      ATOM            VALENCE     VALENCE     VALENCE
    1 C                 3.687       3.687       0.000
    2 H                 0.920       0.920       0.000
    3 H                 0.922       0.922       0.000
    4 C                 3.607       3.607       0.000
    5 C                 3.566       3.566       0.000
    6 C                 3.627       3.626       0.000
    7 C                 3.311       2.919       0.393
    8 N                 2.555       2.545       0.010
    9 N                 2.475       2.388       0.087
   10 H                 0.918       0.918       0.000
   11 N                 2.611       2.606       0.006
   12 H                 0.927       0.927       0.000
   13 H                 0.933       0.933       0.000
   14 H                 0.931       0.931       0.000
   15 H                 0.930       0.930       0.000
   16 H                 0.924       0.919       0.004
   17 H                 0.910       0.910       0.000
   18 H                 0.952       0.952       0.001
   19 H                 0.921       0.921       0.000
   20 H                 0.926       0.926       0.000
   21 H                 0.894       0.894       0.000

          -----------------------------------------
          ATOMIC SPIN DENSITY AT THE NUCLEUS (A.U.)
          -----------------------------------------
                            SPIN DENS    ALPHA DENS     BETA DENS
    1  C            6.0    -0.0003425      46.99173      46.99208
    2  H            1.0    -0.0000975       0.18473       0.18483
    3  H            1.0     0.0000097       0.18364       0.18363
    4  C            6.0    -0.0004421      47.02920      47.02964
    5  C            6.0     0.0286562      47.08396      47.05530
    6  C            6.0     0.0237684      47.01334      46.98957
    7  C            6.0     0.1374346      46.89152      46.75409
    8  N            7.0     0.0579589      76.61309      76.55513
    9  N            7.0     0.1063332      76.81250      76.70617
   10  H            1.0    -0.0001180       0.18412       0.18424
   11  N            7.0    -0.0252997      76.56222      76.58752
   12  H            1.0    -0.0001831       0.18445       0.18463
   13  H            1.0    -0.0005576       0.18324       0.18379
   14  H            1.0    -0.0002392       0.18538       0.18562
   15  H            1.0     0.0002860       0.18911       0.18883
   16  H            1.0     0.0096922       0.18507       0.17538
   17  H            1.0    -0.0007227       0.17907       0.17979
   18  H            1.0    -0.0069033       0.18071       0.18762
   19  H            1.0     0.0000125       0.18344       0.18343
   20  H            1.0     0.0000624       0.18490       0.18484
   21  H            1.0    -0.0007554       0.17572       0.17648

          ---------------------
          ELECTROSTATIC MOMENTS
          ---------------------

 POINT   1           X           Y           Z (BOHR)    CHARGE
                -3.394999   -0.173153    0.232564       -1.00 (A.U.)
         DX          DY          DZ         /D/  (DEBYE)
    10.700546    0.562459   -1.900979   10.882636
 ...... END OF PROPERTY EVALUATION ......
 CPU     0: STEP CPU TIME=     0.02 TOTAL CPU TIME=          2.0 (      0.0 MIN)
 TOTAL WALL CLOCK TIME=          2.7 SECONDS, CPU UTILIZATION IS    76.40%
               580000  WORDS OF DYNAMIC MEMORY USED
 EXECUTION OF GAMESS TERMINATED NORMALLY Sat May 16 13:43:48 2020
 DDI: 263640 bytes (0.3 MB / 0 MWords) used by master data server.
Note: The following floating-point exceptions are signalling: IEEE_DENORMALNote: The following floating-point exceptions are signalling: IEEE_DENORMALNote: The following floating-point exceptions are signalling: IEEE_DENORMALNote: The following floating-point exceptions are signalling:
 ----------------------------------------
 CPU timing information for all processes
 ========================================
 0: 1.930 + 0.122 = 2.52
 1: 1.874 + 0.24 = 1.898
 2: 1.877 + 0.12 = 1.889
 3: 1.906 + 0.11 = 1.918
 4: 1.904 + 0.19 = 1.924
 5: 1.853 + 0.23 = 1.877
 ----------------------------------------



 IEEE_DENORMAL
Note: The following floating-point exceptions are signalling: IEEE_DENORMALNote: The following floating-point exceptions are signalling: IEEE_DENORMAL

 ddikick.x: exited gracefully.
unset echo
----- accounting info -----
Files used on the master node pietdev were:
-rwxr-xr-x 1 piet piet     1307 mei 16 13:43 /home/piet/scr/arginine_fukui_acid.F05*
-rw-r--r-- 1 piet piet 68812800 mei 16 13:43 /home/piet/scr/arginine_fukui_acid.F10
ls: No match.
ls: No match.
ls: No match.
za 16 mei 2020 13:43:51 CEST
0.123u 0.027s 0:05.87 2.3%	0+0k 0+8io 0pf+0w
