----- GAMESS execution script 'rungms' -----
This job is running on host pietdev
under operating system Linux at zo 10 mei 2020 14:10:58 CEST
Available scratch disk space (Kbyte units) at beginning of the job is
Filesystem     1K-blocks     Used Available Use% Mounted on
/dev/sda2      244568380 29481788 202593536  13% /
GAMESS temporary binary files will be written to /home/piet/scr
GAMESS supplementary output files will be written to /home/piet/gamess/scr
Copying input file bergaptenfukui_acid.inp to your run's scratch directory...
cp bergaptenfukui_acid.inp /home/piet/scr/bergaptenfukui_acid.F05
unset echo
 
Assuming a single but multicore node.
 
/home/piet/gamess/ddikick.x /home/piet/gamess/gamess.03.x bergaptenfukui_acid -ddi 1 6 pietdev:cpus=6 -scr /home/piet/scr

 Distributed Data Interface kickoff program.
 Initiating 6 compute processes on 1 nodes to run the following command:
 /home/piet/gamess/gamess.03.x bergaptenfukui_acid 

          ******************************************************
          *         GAMESS VERSION = 30 SEP 2019 (R2)          *
          *             FROM IOWA STATE UNIVERSITY             *
          * M.W.SCHMIDT, K.K.BALDRIDGE, J.A.BOATZ, S.T.ELBERT, *
          *   M.S.GORDON, J.H.JENSEN, S.KOSEKI, N.MATSUNAGA,   *
          *          K.A.NGUYEN, S.J.SU, T.L.WINDUS,           *
          *       TOGETHER WITH M.DUPUIS, J.A.MONTGOMERY       *
          *         J.COMPUT.CHEM.  14, 1347-1363(1993)        *
          **************** 64 BIT LINUX VERSION ****************

  SINCE 1993, STUDENTS AND POSTDOCS WORKING AT IOWA STATE UNIVERSITY
  AND ALSO IN THEIR VARIOUS JOBS AFTER LEAVING ISU HAVE MADE IMPORTANT
  CONTRIBUTIONS TO THE CODE:
     IVANA ADAMOVIC, CHRISTINE AIKENS, YURI ALEXEEV, POOJA ARORA,
     ANDREY ASADCHEV, ROB BELL, PRADIPTA BANDYOPADHYAY, JONATHAN BENTZ,
     COLLEEN BERTONI, BRETT BODE, KURT BRORSEN, CALEB CARLIN, GALINA CHABAN,
     WEI CHEN, CHEOL HO CHOI, PAUL DAY, ALBERT DEFUSCO, NUWAN DESILVA,
     TIM DUDLEY, DMITRI FEDOROV, ALEX FINDLATER, GRAHAM FLETCHER, 
     MARK FREITAG, KURT GLAESEMANN, EMILIE B GUIDEZ, ANASTASIA GUNINA, 
     DAN KEMP, SAROM SOK LEANG, GRANT MERRILL,
     NORIYUKI MINEZAWA, JONATHAN MULLIN,
     TAKESHI NAGATA, SEAN NEDD, HEATHER NETZLOFF, BOSILJKA NJEGIC, RYAN OLSON,
     MIKE PAK, BUU PHAM, DAVID POOLE,
     SPENCER PRUITT, LUKE ROSKOP, TOSAPORN SATTASATHUCHANA,
     JIM SHOEMAKER, LYUDMILA SLIPCHENKO,
     TONY SMITH, JIE SONG, TETSUYA TAKETSUGU, SIMON WEBB,
     JORGE LUIS GALVEZ VALLEJO, PENG XU, SOOHAENG YOO,
     FEDERICO ZAHARIEV

  ADDITIONAL CODE HAS BEEN PROVIDED BY COLLABORATORS IN OTHER GROUPS:
     IOWA STATE UNIVERSITY:
          JOE IVANIC, AARON WEST, LAIMUTIS BYTAUTAS, KLAUS RUEDENBERG
     UNIVERSITY OF TOKYO: KIMIHIKO HIRAO, TAKAHITO NAKAJIMA,
          TAKAO TSUNEDA, MUNEAKI KAMIYA, SUSUMU YANAGISAWA,
          KIYOSHI YAGI, MAHITO CHIBA, SEIKEN TOKURA, NAOAKI KAWAKAMI
     UNIVERSITY OF AARHUS: FRANK JENSEN
     UNIVERSITY OF IOWA: VISVALDAS KAIRYS, HUI LI
     NATIONAL INST. OF STANDARDS AND TECHNOLOGY: WALT STEVENS, DAVID GARMER
     UNIVERSITY OF PISA: BENEDETTA MENNUCCI, JACOPO TOMASI
     UNIVERSITY OF MEMPHIS: HENRY KURTZ, PRAKASHAN KORAMBATH
     UNIVERSITY OF ALBERTA: TOBY ZENG, MARIUSZ KLOBUKOWSKI
     UNIVERSITY OF NEW ENGLAND: MARK SPACKMAN
     MIE UNIVERSITY: HIROAKI UMEDA
     NAT. INST. OF ADVANCED INDUSTRIAL SCIENCE AND TECHNOLOGY: KAZUO KITAURA
     MICHIGAN STATE UNIVERSITY:
          KAROL KOWALSKI, MARTA WLOCH, JEFFREY GOUR, JESSE LUTZ,
          WEI LI, JUN SHEN, J. EMILIANO DEUSTUA, PIOTR PIECUCH
     UNIVERSITY OF MINNESOTA:
          ANDREW SAND, PRACHI SHARMA, YINAN SHU
     UNIVERSITY OF SILESIA: MONIKA MUSIAL, STANISLAW KUCHARSKI
     FACULTES UNIVERSITAIRES NOTRE-DAME DE LA PAIX:
          OLIVIER QUINET, BENOIT CHAMPAGNE
     UNIVERSITY OF CALIFORNIA - SANTA BARBARA: BERNARD KIRTMAN
     INSTITUTE FOR MOLECULAR SCIENCE:
          KAZUYA ISHIMURA, MICHIO KATOUDA, AND SHIGERU NAGASE
     UNIVERSITY OF NOTRE DAME: ANNA POMOGAEVA, DAN CHIPMAN
     KYUSHU UNIVERSITY:
          HARUYUKI NAKANO,
          FENG LONG GU, JACEK KORCHOWIEC, MARCIN MAKOWSKI, AND YURIKO AOKI,
          HIROTOSHI MORI AND EISAKU MIYOSHI
     PENNSYLVANIA STATE UNIVERSITY:
          TZVETELIN IORDANOV, CHET SWALINA, JONATHAN SKONE,
          SHARON HAMMES-SCHIFFER
     WASEDA UNIVERSITY:
          MASATO KOBAYASHI, TOMOKO AKAMA, TSUGUKI TOUMA,
          TAKESHI YOSHIKAWA, YASUHIRO IKABATA, JUNJI SEINO,
          YUYA NAKAJIMA, HIROMI NAKAI
     NANJING UNIVERSITY: SHUHUA LI
     UNIVERSITY OF NEBRASKA:
          PEIFENG SU, DEJUN SI, NANDUN THELLAMUREGE, YALI WANG, HUI LI
     UNIVERSITY OF ZURICH: ROBERTO PEVERATI, KIM BALDRIDGE
     N. COPERNICUS UNIVERSITY AND JACKSON STATE UNIVERSITY:
          MARIA BARYSZ
     UNIVERSITY OF COPENHAGEN: Jimmy Kromann, CASPER STEINMANN
     TOKYO INSTITUTE OF TECHNOLOGY: HIROYA NAKATA
     NAGOYA UNIVERSITY: YOSHIO NISHIMOTO, STEPHAN IRLE
     MOSCOW STATE UNIVERSITY: VLADIMIR MIRONOV
     A.N.NESMEYANOV INSTITUTE OF ORGANOELEMENT COMPOUNDS OF RUSSIAN ACADEMY OF SCIENCES:
          IGOR S. GERASIMOV
     JOHANNES KEPLER UNIVERSITY LINZ:
          CHRISTIAN FRIEDL


 PARALLEL VERSION RUNNING ON        6 PROCESSORS IN        1 NODES.

 EXECUTION OF GAMESS BEGUN Sun May 10 14:10:58 2020

            ECHO OF THE FIRST FEW INPUT CARDS -
 INPUT CARD> $BASIS GBASIS=N21 NGAUSS=3 $END                                                
 INPUT CARD> $CONTRL SCFTYP=UHF MAXIT=60 MULT=2 ICHARG=-1 $END                              
 INPUT CARD> $SYSTEM MEMDDI=1000 MWORDS=30 $END                                             
 INPUT CARD> $SCF DIRSCF=.TRUE. $END                                                        
 INPUT CARD> $STATPT OPTTOL=0.0001 NSTEP=999 $END                                           
 INPUT CARD> $DATA                                                                          
 INPUT CARD>                                                                                
 INPUT CARD>C1                                                                              
 INPUT CARD>C 6.0000000 0.2021047152 -1.7841536064 0.1483604467                             
 INPUT CARD>C 6.0000000 3.1988607718 0.2466776296 -0.1574526975                             
 INPUT CARD>C 6.0000000 3.7060288642 -1.0001288224 -0.0067554102                            
 INPUT CARD>C 6.0000000 1.3095747275 3.1187694510 0.8190538042                              
 INPUT CARD>C 6.0000000 0.6932377593 1.0150863253 -0.2162175030                             
 INPUT CARD>O 8.0000000 -4.3865689869 -1.0844707542 0.0720230848                            
 INPUT CARD>O 8.0000000 0.8807747290 2.3854611387 -0.3990311099                             
 INPUT CARD>C 6.0000000 -3.3012513204 -0.5365398047 -0.0111719438                           
 INPUT CARD>C 6.0000000 -0.6182463788 0.5105996451 -0.1502796039                            
 INPUT CARD>C 6.0000000 -0.8491841578 -0.8781003943 0.0289541015                            
 INPUT CARD>O 8.0000000 -2.1339398835 -1.3715047939 0.0961285794                            
 INPUT CARD>C 6.0000000 -1.7660019273 1.3677794626 -0.2795124607                            
 INPUT CARD>C 6.0000000 -3.0230595767 0.8774722132 -0.2131592612                            
 INPUT CARD>C 6.0000000 1.7539692360 0.1201173789 -0.1066208556                             
 INPUT CARD>C 6.0000000 1.4794774358 -1.2576736316 0.0717297479                             
 INPUT CARD>O 8.0000000 2.6751729043 -1.9650113655 0.1428127052                             
 INPUT CARD>H 1.0000000 -1.5802137610 2.4214022240 -0.4480101944                            
 INPUT CARD>H 1.0000000 0.0105952789 -2.8370415824 0.2846551992                             
 INPUT CARD>H 1.0000000 -3.8937211108 1.5101580651 -0.3130446488                            
 INPUT CARD>H 1.0000000 3.7599841652 1.1526764505 -0.3100072963                             
 INPUT CARD>H 1.0000000 0.5366752043 3.0622100485 1.5930182637                              
 INPUT CARD>H 1.0000000 2.2489273807 2.7183312018 1.2138203106                              
 INPUT CARD>H 1.0000000 1.4463617886 4.1506305791 0.4946372705                              
 INPUT CARD>H 1.0000000 4.7036421424 -1.3992470581 0.0147694715                             
 INPUT CARD> $END                                                                           
   30000000 WORDS OF MEMORY AVAILABLE

     BASIS OPTIONS
     -------------
     GBASIS=N21          IGAUSS=       3      POLAR=NONE    
     NDFUNC=       0     NFFUNC=       0     DIFFSP=       F
     NPFUNC=       0      DIFFS=       F     BASNAM=        


     RUN TITLE
     ---------
                                                                                 

 THE POINT GROUP OF THE MOLECULE IS C1      
 THE ORDER OF THE PRINCIPAL AXIS IS     0

 ATOM      ATOMIC                      COORDINATES (BOHR)
           CHARGE         X                   Y                   Z
 C           6.0     0.3819225326       -3.3715614361        0.2803605917
 C           6.0     6.0449703316        0.4661531272       -0.2975424543
 C           6.0     7.0033790559       -1.8899694268       -0.0127658742
 C           6.0     2.4747373954        5.8936196813        1.5477872591
 C           6.0     1.3100294094        1.9182350087       -0.4085918344
 O           8.0    -8.2894134115       -2.0493525671        0.1361038951
 O           8.0     1.6644228947        4.5078679065       -0.7540594583
 C           6.0    -6.2384604122       -1.0139132124       -0.0211119125
 C           6.0    -1.1683162488        0.9648934187       -0.2839872729
 C           6.0    -1.6047253714       -1.6593691349        0.0547153181
 O           8.0    -4.0325616541       -2.5917682513        0.1816566747
 C           6.0    -3.3372597364        2.5847283959       -0.5282019609
 C           6.0    -5.7127542445        1.6581820448       -0.4028125954
 C           6.0     3.3145212469        0.2269889325       -0.2014842017
 C           6.0     2.7958069587       -2.3766585457        0.1355495687
 O           8.0     5.0553437589       -3.7133330436        0.2698768804
 H           1.0    -2.9861710103        4.5757867094       -0.8466165071
 H           1.0     0.0200221739       -5.3612312065        0.5379203275
 H           1.0    -7.3580659720        2.8537849412       -0.5915686082
 H           1.0     7.1053397904        2.1782426439       -0.5858288442
 H           1.0     1.0141690805        5.7867379085        3.0103680118
 H           1.0     4.2498565158        5.1369011153        2.2937877854
 H           1.0     2.7332274596        7.8435544708        0.9347289046
 H           1.0     8.8885947934       -2.6441935289        0.0279102541

          INTERNUCLEAR DISTANCES (ANGS.)
          ------------------------------

                1 C          2 C          3 C          4 C          5 C     

   1 C       0.0000000    3.6329525    3.5939171    5.0709934    2.8652876 *
   2 C       3.6329525    0.0000000    1.3544207 *  3.5737765    2.6214599 *
   3 C       3.5939171    1.3544207 *  0.0000000    4.8363495    3.6306854  
   4 C       5.0709934    3.5737765    4.8363495    0.0000000    2.4242815 *
   5 C       2.8652876 *  2.6214599 *  3.6306854    2.4242815 *  0.0000000  
   6 O       4.6423388    7.7047621    8.0934208    7.1183802    5.5041493  
   7 O       4.2598025    3.1632701    4.4269810    1.4850392 *  1.3951767 *
   8 C       3.7222969    6.5487621    7.0225999    5.9422451    4.2901667  
   9 C       2.4552096 *  3.8262270    4.5828218    3.3850630    1.4067143 *
  10 C       1.3929819 *  4.2055369    4.5569871    4.6107988    2.4542474 *
  11 O       2.3727856 *  5.5786719    5.8526695    5.7046452    3.7129921  
  12 C       3.7404814    5.0913289    5.9686269    3.7056694    2.4852079 *
  13 C       4.1972173    6.2540625    6.9891787    4.9860402    3.7188456  
  14 C       2.4697261 *  1.4513142 *  2.2528785 *  3.1695858    1.3921681 *
  15 C       1.3837393 *  2.2960567 *  2.2427707 *  4.4430411    2.4220909 *
  16 O       2.4796787 *  2.2925917 *  1.4198708 *  5.3072580    3.5969365  
  17 H       4.6064104    5.2586504    6.3123642    3.2315089    2.6832879 *
  18 H       1.0788073 *  4.4575577    4.1370760    6.1192005    3.9440796  
  19 H       5.2764736    7.2059218    8.0094665    5.5626940    4.6146141  
  20 H       4.6361167    1.0765529 *  2.1747284 *  3.3383839    3.0712638  
  21 H       5.0681569    4.2518941    5.3950603    1.0952596 *  2.7365236 *
  22 H       5.0593534    2.9819179 *  4.1761100    1.0947944 *  2.7140784 *
  23 H       6.0736930    4.3286629    5.6469295    1.0902725 *  3.3021430  
  24 H       4.5199379    2.2367601 *  1.0747050 *  5.7078052    4.6867584  

                6 O          7 O          8 C          9 C         10 C     

   1 C       4.6423388    4.2598025    3.7222969    2.4552096 *  1.3929819 *
   2 C       7.7047621    3.1632701    6.5487621    3.8262270    4.2055369  
   3 C       8.0934208    4.4269810    7.0225999    4.5828218    4.5569871  
   4 C       7.1183802    1.4850392 *  5.9422451    3.3850630    4.6107988  
   5 C       5.5041493    1.3951767 *  4.2901667    1.4067143 *  2.4542474 *
   6 O       0.0000000    6.3251268    1.2186321 *  4.0980390    3.5436613  
   7 O       6.3251268    0.0000000    5.1164310    2.4133063 *  3.7184356  
   8 C       1.2186321 *  5.1164310    0.0000000    2.8834645 *  2.4760669 *
   9 C       4.0980390    2.4133063 *  2.8834645 *  0.0000000    1.4191352 *
  10 C       3.5436613    3.7184356    2.4760669 *  1.4191352 *  0.0000000  
  11 O       2.2709706 *  4.8423631    1.4391998 *  2.4290659 *  1.3778816 *
  12 C       3.6061725    2.8382014 *  2.4607782 *  1.4383328 *  2.4453390 *
  13 C       2.4061810 *  4.1890931    1.4552043 *  2.4334494 *  2.8047083 *
  14 C       6.2601243    2.4453537 *  5.0985845    2.4045352 *  2.7912769 *
  15 C       5.8686029    3.7218936    4.8355221    2.7525486 *  2.3597819 *
  16 O       7.1167803    4.7370952    6.1466974    4.1305161    3.6899095  
  17 H       4.5207532    2.4617382 *  3.4499593    2.1599054 *  3.4130070  
  18 H       4.7383299    5.3384618    4.0432846    3.4338480    2.1545427 *
  19 H       2.6689464 *  4.8548285    2.1520037 *  3.4284609    3.8845781  
  20 H       8.4567785    3.1332938    7.2666224    4.4279429    5.0481068  
  21 H       6.6141304    2.1318195 *  5.5003733    3.2990373    4.4601513  
  22 H       7.7327108    2.1410123 *  6.5497538    3.8672384    4.8924966  
  23 H       7.8490745    2.0577549 *  6.6906830    4.2341882    5.5474794  
  24 H       9.0958397    5.3953278    8.0512891    5.6566114    5.5772462  

               11 O         12 C         13 C         14 C         15 C     

   1 C       2.3727856 *  3.7404814    4.1972173    2.4697261 *  1.3837393 *
   2 C       5.5786719    5.0913289    6.2540625    1.4513142 *  2.2960567 *
   3 C       5.8526695    5.9686269    6.9891787    2.2528785 *  2.2427707 *
   4 C       5.7046452    3.7056694    4.9860402    3.1695858    4.4430411  
   5 C       3.7129921    2.4852079 *  3.7188456    1.3921681 *  2.4220909 *
   6 O       2.2709706 *  3.6061725    2.4061810 *  6.2601243    5.8686029  
   7 O       4.8423631    2.8382014 *  4.1890931    2.4453537 *  3.7218936  
   8 C       1.4391998 *  2.4607782 *  1.4552043 *  5.0985845    4.8355221  
   9 C       2.4290659 *  1.4383328 *  2.4334494 *  2.4045352 *  2.7525486 *
  10 C       1.3778816 *  2.4453390 *  2.8047083 *  2.7912769 *  2.3597819 *
  11 O       0.0000000    2.7892943 *  2.4380505 *  4.1691584    3.6152922  
  12 C       2.7892943 *  0.0000000    1.3509248 *  3.7385491    4.1892137  
  13 C       2.4380505 *  1.3509248 *  0.0000000    4.8378653    4.9912773  
  14 C       4.1691584    3.7385491    4.8378653    0.0000000    1.4161436 *
  15 C       3.6152922    4.1892137    4.9912773    1.4161436 *  0.0000000  
  16 O       4.8458225    5.5686522    6.3777960    2.2931627 *  1.3910669 *
  17 H       3.8715428    1.0830649 *  2.1261888 *  4.0656162    4.8132566  
  18 H       2.6042986 *  4.5994677    4.8216692    3.4550309    2.1673383 *
  19 H       3.4012106    2.1327412 *  1.0808885 *  5.8198995    6.0564186  
  20 H       6.4245450    5.5302551    6.7893151    2.2653124 *  3.3400931  
  21 H       5.3880136    3.4175705    4.5505020    3.6092225    4.6759587  
  22 H       6.0979930    4.4915131    5.7635821    2.9562245 *  4.2077356  
  23 H       6.5932805    4.3200519    5.5848249    4.0867065    5.4249149  
  24 H       6.8381223    7.0426793    8.0583697    3.3202069    3.2277741  

               16 O         17 H         18 H         19 H         20 H     

   1 C       2.4796787 *  4.6064104    1.0788073 *  5.2764736    4.6361167  
   2 C       2.2925917 *  5.2586504    4.4575577    7.2059218    1.0765529 *
   3 C       1.4198708 *  6.3123642    4.1370760    8.0094665    2.1747284 *
   4 C       5.3072580    3.2315089    6.1192005    5.5626940    3.3383839  
   5 C       3.5969365    2.6832879 *  3.9440796    4.6146141    3.0712638  
   6 O       7.1167803    4.5207532    4.7383299    2.6689464 *  8.4567785  
   7 O       4.7370952    2.4617382 *  5.3384618    4.8548285    3.1332938  
   8 C       6.1466974    3.4499593    4.0432846    2.1520037 *  7.2666224  
   9 C       4.1305161    2.1599054 *  3.4338480    3.4284609    4.4279429  
  10 C       3.6899095    3.4130070    2.1545427 *  3.8845781    5.0481068  
  11 O       4.8458225    3.8715428    2.6042986 *  3.4012106    6.4245450  
  12 C       5.5686522    1.0830649 *  4.5994677    2.1327412 *  5.5302551  
  13 C       6.3777960    2.1261888 *  4.8216692    1.0808885 *  6.7893151  
  14 C       2.2931627 *  4.0656162    3.4550309    5.8198995    2.2653124 *
  15 C       1.3910669 *  4.8132566    2.1673383 *  6.0564186    3.3400931  
  16 O       0.0000000    6.1398706    2.8072282 *  7.4454669    3.3319422  
  17 H       6.1398706    0.0000000    5.5424456    2.4901602 *  5.4905759  
  18 H       2.8072282 *  5.5424456    0.0000000    5.8735914    5.5072126  
  19 H       7.4454669    2.4901602 *  5.8735914    0.0000000    7.6620498  
  20 H       3.3319422    5.4905759    5.5072126    7.6620498    0.0000000  
  21 H       5.6523644    3.0095931    6.0654550    5.0665918    4.2020882  
  22 H       4.8231152    4.1847544    6.0609937    6.4438443    2.6564296 *
  23 H       6.2477863    3.6109520    7.1367416    6.0117327    3.8714378  
  24 H       2.1097800 *  7.3687428    4.9157685    9.0822219    2.7401248 *

               21 H         22 H         23 H         24 H     

   1 C       5.0681569    5.0593534    6.0736930    4.5199379  
   2 C       4.2518941    2.9819179 *  4.3286629    2.2367601 *
   3 C       5.3950603    4.1761100    5.6469295    1.0747050 *
   4 C       1.0952596 *  1.0947944 *  1.0902725 *  5.7078052  
   5 C       2.7365236 *  2.7140784 *  3.3021430    4.6867584  
   6 O       6.6141304    7.7327108    7.8490745    9.0958397  
   7 O       2.1318195 *  2.1410123 *  2.0577549 *  5.3953278  
   8 C       5.5003733    6.5497538    6.6906830    8.0512891  
   9 C       3.2990373    3.8672384    4.2341882    5.6566114  
  10 C       4.4601513    4.8924966    5.5474794    5.5772462  
  11 O       5.3880136    6.0979930    6.5932805    6.8381223  
  12 C       3.4175705    4.4915131    4.3200519    7.0426793  
  13 C       4.5505020    5.7635821    5.5848249    8.0583697  
  14 C       3.6092225    2.9562245 *  4.0867065    3.3202069  
  15 C       4.6759587    4.2077356    5.4249149    3.2277741  
  16 O       5.6523644    4.8231152    6.2477863    2.1097800 *
  17 H       3.0095931    4.1847544    3.6109520    7.3687428  
  18 H       6.0654550    6.0609937    7.1367416    4.9157685  
  19 H       5.0665918    6.4438443    6.0117327    9.0822219  
  20 H       4.2020882    2.6564296 *  3.8714378    2.7401248 *
  21 H       0.0000000    1.7871349 *  1.7940540 *  6.3054803  
  22 H       1.7871349 *  0.0000000    1.7924333 *  4.9414369  
  23 H       1.7940540 *  1.7924333 *  0.0000000    6.4530063  
  24 H       6.3054803    4.9414369    6.4530063    0.0000000  

  * ... LESS THAN  3.000


     ATOMIC BASIS SET
     ----------------
 THE CONTRACTED PRIMITIVE FUNCTIONS HAVE BEEN UNNORMALIZED
 THE CONTRACTED BASIS FUNCTIONS ARE NOW NORMALIZED TO UNITY

  SHELL TYPE  PRIMITIVE        EXPONENT          CONTRACTION COEFFICIENT(S)

 C         

      1   S       1           172.2560000    0.061766907377
      1   S       2            25.9109000    0.358794042852
      1   S       3             5.5333500    0.700713083689

      2   L       4             3.6649800   -0.395895162119    0.236459946619
      2   L       5             0.7705450    1.215834355681    0.860618805716

      3   L       6             0.1958570    1.000000000000    1.000000000000

 C         

      4   S       7           172.2560000    0.061766907377
      4   S       8            25.9109000    0.358794042852
      4   S       9             5.5333500    0.700713083689

      5   L      10             3.6649800   -0.395895162119    0.236459946619
      5   L      11             0.7705450    1.215834355681    0.860618805716

      6   L      12             0.1958570    1.000000000000    1.000000000000

 C         

      7   S      13           172.2560000    0.061766907377
      7   S      14            25.9109000    0.358794042852
      7   S      15             5.5333500    0.700713083689

      8   L      16             3.6649800   -0.395895162119    0.236459946619
      8   L      17             0.7705450    1.215834355681    0.860618805716

      9   L      18             0.1958570    1.000000000000    1.000000000000

 C         

     10   S      19           172.2560000    0.061766907377
     10   S      20            25.9109000    0.358794042852
     10   S      21             5.5333500    0.700713083689

     11   L      22             3.6649800   -0.395895162119    0.236459946619
     11   L      23             0.7705450    1.215834355681    0.860618805716

     12   L      24             0.1958570    1.000000000000    1.000000000000

 C         

     13   S      25           172.2560000    0.061766907377
     13   S      26            25.9109000    0.358794042852
     13   S      27             5.5333500    0.700713083689

     14   L      28             3.6649800   -0.395895162119    0.236459946619
     14   L      29             0.7705450    1.215834355681    0.860618805716

     15   L      30             0.1958570    1.000000000000    1.000000000000

 O         

     16   S      31           322.0370000    0.059239393389
     16   S      32            48.4308000    0.351499960776
     16   S      33            10.4206000    0.707657921031

     17   L      34             7.4029400   -0.404453583190    0.244586106967
     17   L      35             1.5762000    1.221561761397    0.853955373466

     18   L      36             0.3736840    1.000000000000    1.000000000000

 O         

     19   S      37           322.0370000    0.059239393389
     19   S      38            48.4308000    0.351499960776
     19   S      39            10.4206000    0.707657921031

     20   L      40             7.4029400   -0.404453583190    0.244586106967
     20   L      41             1.5762000    1.221561761397    0.853955373466

     21   L      42             0.3736840    1.000000000000    1.000000000000

 C         

     22   S      43           172.2560000    0.061766907377
     22   S      44            25.9109000    0.358794042852
     22   S      45             5.5333500    0.700713083689

     23   L      46             3.6649800   -0.395895162119    0.236459946619
     23   L      47             0.7705450    1.215834355681    0.860618805716

     24   L      48             0.1958570    1.000000000000    1.000000000000

 C         

     25   S      49           172.2560000    0.061766907377
     25   S      50            25.9109000    0.358794042852
     25   S      51             5.5333500    0.700713083689

     26   L      52             3.6649800   -0.395895162119    0.236459946619
     26   L      53             0.7705450    1.215834355681    0.860618805716

     27   L      54             0.1958570    1.000000000000    1.000000000000

 C         

     28   S      55           172.2560000    0.061766907377
     28   S      56            25.9109000    0.358794042852
     28   S      57             5.5333500    0.700713083689

     29   L      58             3.6649800   -0.395895162119    0.236459946619
     29   L      59             0.7705450    1.215834355681    0.860618805716

     30   L      60             0.1958570    1.000000000000    1.000000000000

 O         

     31   S      61           322.0370000    0.059239393389
     31   S      62            48.4308000    0.351499960776
     31   S      63            10.4206000    0.707657921031

     32   L      64             7.4029400   -0.404453583190    0.244586106967
     32   L      65             1.5762000    1.221561761397    0.853955373466

     33   L      66             0.3736840    1.000000000000    1.000000000000

 C         

     34   S      67           172.2560000    0.061766907377
     34   S      68            25.9109000    0.358794042852
     34   S      69             5.5333500    0.700713083689

     35   L      70             3.6649800   -0.395895162119    0.236459946619
     35   L      71             0.7705450    1.215834355681    0.860618805716

     36   L      72             0.1958570    1.000000000000    1.000000000000

 C         

     37   S      73           172.2560000    0.061766907377
     37   S      74            25.9109000    0.358794042852
     37   S      75             5.5333500    0.700713083689

     38   L      76             3.6649800   -0.395895162119    0.236459946619
     38   L      77             0.7705450    1.215834355681    0.860618805716

     39   L      78             0.1958570    1.000000000000    1.000000000000

 C         

     40   S      79           172.2560000    0.061766907377
     40   S      80            25.9109000    0.358794042852
     40   S      81             5.5333500    0.700713083689

     41   L      82             3.6649800   -0.395895162119    0.236459946619
     41   L      83             0.7705450    1.215834355681    0.860618805716

     42   L      84             0.1958570    1.000000000000    1.000000000000

 C         

     43   S      85           172.2560000    0.061766907377
     43   S      86            25.9109000    0.358794042852
     43   S      87             5.5333500    0.700713083689

     44   L      88             3.6649800   -0.395895162119    0.236459946619
     44   L      89             0.7705450    1.215834355681    0.860618805716

     45   L      90             0.1958570    1.000000000000    1.000000000000

 O         

     46   S      91           322.0370000    0.059239393389
     46   S      92            48.4308000    0.351499960776
     46   S      93            10.4206000    0.707657921031

     47   L      94             7.4029400   -0.404453583190    0.244586106967
     47   L      95             1.5762000    1.221561761397    0.853955373466

     48   L      96             0.3736840    1.000000000000    1.000000000000

 H         

     49   S      97             5.4471780    0.156284978695
     49   S      98             0.8245472    0.904690876670

     50   S      99             0.1831916    1.000000000000

 H         

     51   S     100             5.4471780    0.156284978695
     51   S     101             0.8245472    0.904690876670

     52   S     102             0.1831916    1.000000000000

 H         

     53   S     103             5.4471780    0.156284978695
     53   S     104             0.8245472    0.904690876670

     54   S     105             0.1831916    1.000000000000

 H         

     55   S     106             5.4471780    0.156284978695
     55   S     107             0.8245472    0.904690876670

     56   S     108             0.1831916    1.000000000000

 H         

     57   S     109             5.4471780    0.156284978695
     57   S     110             0.8245472    0.904690876670

     58   S     111             0.1831916    1.000000000000

 H         

     59   S     112             5.4471780    0.156284978695
     59   S     113             0.8245472    0.904690876670

     60   S     114             0.1831916    1.000000000000

 H         

     61   S     115             5.4471780    0.156284978695
     61   S     116             0.8245472    0.904690876670

     62   S     117             0.1831916    1.000000000000

 H         

     63   S     118             5.4471780    0.156284978695
     63   S     119             0.8245472    0.904690876670

     64   S     120             0.1831916    1.000000000000

 TOTAL NUMBER OF BASIS SET SHELLS             =   64
 NUMBER OF CARTESIAN GAUSSIAN BASIS FUNCTIONS =  160
 NUMBER OF ELECTRONS                          =  113
 CHARGE OF MOLECULE                           =   -1
 SPIN MULTIPLICITY                            =    2
 NUMBER OF OCCUPIED ORBITALS (ALPHA)          =   57
 NUMBER OF OCCUPIED ORBITALS (BETA )          =   56
 TOTAL NUMBER OF ATOMS                        =   24
 THE NUCLEAR REPULSION ENERGY IS     1038.2908685216

     $CONTRL OPTIONS
     ---------------
 SCFTYP=UHF          RUNTYP=ENERGY       EXETYP=RUN     
 MPLEVL=       0     CITYP =NONE         CCTYP =NONE         VBTYP =NONE    
 DFTTYP=NONE         TDDFT =NONE    
 MULT  =       2     ICHARG=      -1     NZVAR =       0     COORD =UNIQUE  
 PP    =NONE         RELWFN=NONE         LOCAL =NONE         NUMGRD=       F
 ISPHER=      -1     NOSYM =       0     MAXIT =      60     UNITS =ANGS    
 PLTORB=       F     MOLPLT=       F     AIMPAC=       F     FRIEND=        
 NPRINT=       7     IREST =       0     GEOM  =INPUT   
 NORMF =       0     NORMP =       0     ITOL  =      20     ICUT  =       9
 INTTYP=BEST         GRDTYP=BEST         QMTTOL= 1.0E-06

     $SYSTEM OPTIONS
     ---------------
  REPLICATED MEMORY=    30000000 WORDS (ON EVERY NODE).
 DISTRIBUTED MEMDDI=        1000 MILLION WORDS IN AGGREGATE,
 MEMDDI DISTRIBUTED OVER   6 PROCESSORS IS   166666666 WORDS/PROCESSOR.
 TOTAL MEMORY REQUESTED ON EACH PROCESSOR=   196666666 WORDS.
 TIMLIM=      525600.00 MINUTES, OR     365.0 DAYS.
 PARALL= T  BALTYP=  DLB     KDIAG=    0  COREFL= F
 MXSEQ2=     300 MXSEQ3=     150  mem10=         0

          ----------------
          PROPERTIES INPUT
          ----------------

     MOMENTS            FIELD           POTENTIAL          DENSITY
 IEMOM =       1   IEFLD =       0   IEPOT =       0   IEDEN =       0
 WHERE =COMASS     WHERE =NUCLEI     WHERE =NUCLEI     WHERE =NUCLEI  
 OUTPUT=BOTH       OUTPUT=BOTH       OUTPUT=BOTH       OUTPUT=BOTH    
 IEMINT=       0   IEFINT=       0                     IEDINT=       0
                                                       MORB  =       0
          EXTRAPOLATION IN EFFECT
          SOSCF IN EFFECT
          DIIS or SOSCF will be reset if energy rises
 ORBITAL PRINTING OPTION: NPREO=     1   160     2     1

     -------------------------------
     INTEGRAL TRANSFORMATION OPTIONS
     -------------------------------
     NWORD  =            0
     CUTOFF = 1.0E-09     MPTRAN =       0
     DIRTRF =       T     AOINTS =DUP     

          ----------------------
          INTEGRAL INPUT OPTIONS
          ----------------------
 NOPK  =       1 NORDER=       0 SCHWRZ=       T

     ------------------------------------------
     THE POINT GROUP IS C1 , NAXIS= 0, ORDER= 1
     ------------------------------------------

     DIMENSIONS OF THE SYMMETRY SUBSPACES ARE
 A   =  160

 ..... DONE SETTING UP THE RUN .....
 CPU     0: STEP CPU TIME=     0.03 TOTAL CPU TIME=          0.0 (      0.0 MIN)
 TOTAL WALL CLOCK TIME=          0.0 SECONDS, CPU UTILIZATION IS   100.00%

          ********************
          1 ELECTRON INTEGRALS
          ********************
 ...... END OF ONE-ELECTRON INTEGRALS ......
 CPU     0: STEP CPU TIME=     0.01 TOTAL CPU TIME=          0.0 (      0.0 MIN)
 TOTAL WALL CLOCK TIME=          0.1 SECONDS, CPU UTILIZATION IS    80.00%

          -------------
          GUESS OPTIONS
          -------------
          GUESS =HUCKEL            NORB  =       0          NORDER=       0
          MIX   =       F          PRTMO =       F          PUNMO =       F
          TOLZ  = 1.0E-08          TOLE  = 1.0E-05
          SYMDEN=       F          PURIFY=       F

 INITIAL GUESS ORBITALS GENERATED BY HUCKEL   ROUTINE.
 HUCKEL GUESS REQUIRES    235000 WORDS.

 SYMMETRIES FOR INITIAL GUESS ORBITALS FOLLOW.  ALPHA SET(S).
    57 ORBITALS ARE OCCUPIED (   16 CORE ORBITALS).
    17=A       18=A       19=A       20=A       21=A       22=A       23=A   
    24=A       25=A       26=A       27=A       28=A       29=A       30=A   
    31=A       32=A       33=A       34=A       35=A       36=A       37=A   
    38=A       39=A       40=A       41=A       42=A       43=A       44=A   
    45=A       46=A       47=A       48=A       49=A       50=A       51=A   
    52=A       53=A       54=A       55=A       56=A       57=A       58=A   
    59=A       60=A       61=A       62=A       63=A       64=A       65=A   
    66=A       67=A   

 SYMMETRIES FOR INITIAL GUESS ORBITALS FOLLOW.   BETA SET(S).
    56 ORBITALS ARE OCCUPIED (   16 CORE ORBITALS).
    17=A       18=A       19=A       20=A       21=A       22=A       23=A   
    24=A       25=A       26=A       27=A       28=A       29=A       30=A   
    31=A       32=A       33=A       34=A       35=A       36=A       37=A   
    38=A       39=A       40=A       41=A       42=A       43=A       44=A   
    45=A       46=A       47=A       48=A       49=A       50=A       51=A   
    52=A       53=A       54=A       55=A       56=A       57=A       58=A   
    59=A       60=A       61=A       62=A       63=A       64=A       65=A   
    66=A   
 ...... END OF INITIAL ORBITAL SELECTION ......
 CPU     0: STEP CPU TIME=     0.05 TOTAL CPU TIME=          0.1 (      0.0 MIN)
 TOTAL WALL CLOCK TIME=          0.2 SECONDS, CPU UTILIZATION IS    56.25%

                    ----------------------
                    AO INTEGRAL TECHNOLOGY
                    ----------------------
     S,P,L SHELL ROTATED AXIS INTEGRALS, REPROGRAMMED BY
        KAZUYA ISHIMURA (IMS) AND JOSE SIERRA (SYNSTAR).
     S,P,D,L SHELL ROTATED AXIS INTEGRALS PROGRAMMED BY
        KAZUYA ISHIMURA (INSTITUTE FOR MOLECULAR SCIENCE).
     S,P,D,F,G SHELL TO TOTAL QUARTET ANGULAR MOMENTUM SUM 5,
        ERIC PROGRAM BY GRAHAM FLETCHER (ELORET AND NASA ADVANCED
        SUPERCOMPUTING DIVISION, AMES RESEARCH CENTER).
     S,P,D,F,G,L SHELL GENERAL RYS QUADRATURE PROGRAMMED BY
        MICHEL DUPUIS (PACIFIC NORTHWEST NATIONAL LABORATORY).

          --------------------
          2 ELECTRON INTEGRALS
          --------------------

 DIRECT SCF METHOD SKIPS INTEGRAL STORAGE ON DISK.
 DIRECT TRANSFORMATION SKIPS AO INTEGRAL STORAGE ON DISK.
  ...... END OF TWO-ELECTRON INTEGRALS .....
 CPU     0: STEP CPU TIME=     0.02 TOTAL CPU TIME=          0.1 (      0.0 MIN)
 TOTAL WALL CLOCK TIME=          0.2 SECONDS, CPU UTILIZATION IS    61.11%

          ---------------------------
                  UHF SCF CALCULATION
          ---------------------------

     NUCLEAR ENERGY =      1038.2908685216
     MAXIT = 60     NPUNCH=  2     MULT=  2
     EXTRAP=T  DAMP=F  SHIFT=F  RSTRCT=F  DIIS=F  SOSCF=T
     DENSITY MATRIX CONV=  2.00E-05
     SOSCF WILL OPTIMIZE    5871 ALPHA AND    5824 BETA ROTATION ANGLES.
     SOGTOL= 2.500E-01
     MEMORY REQUIRED FOR UHF/ROHF ITERS=    388941 WORDS.

 DIRECT SCF CALCULATION, SCHWRZ=T   FDIFF=T
 SCHWARZ INEQUALITY OVERHEAD:     11402 INTEGRALS, T=        0.00

                                                                                NONZERO     BLOCKS
 ITER EX      TOTAL ENERGY        E CHANGE  DENSITY CHANGE    ORB. GRAD       INTEGRALS    SKIPPED
   1  0     -752.4400273204  -752.4400273204   0.768316080   0.000000000       36599992    1424491
          ---------------START SECOND ORDER SCF---------------
   2  1     -754.1068233624    -1.6667960420   0.175132136   0.067323444       36527177    1443140
   3  2     -754.1846434536    -0.0778200912   0.137376678   0.062946533       36245347    1482426
   4  3     -754.2428075912    -0.0581641376   0.034476907   0.009468079       35736217    1519417
   5  4     -754.2457734526    -0.0029658614   0.017337078   0.004941315       35361856    1542736
   6  5     -754.2472360411    -0.0014625885   0.052385133   0.004362544       34707060    1569323
   7  6     -754.2497610795    -0.0025250384   0.045554753   0.003706272       35510488    1537726
   8  7     -754.2515008031    -0.0017397235   0.045619247   0.004172763       35425827    1544075
   9  8     -754.2533673298    -0.0018665267   0.028874989   0.004159950       35491679    1538665
  10  9     -754.2549755000    -0.0016081702   0.025391727   0.003005446       35189471    1550863
  11 10     -754.2560704188    -0.0010949189   0.023513547   0.002496058       35063778    1558491
  12 11     -754.2566540994    -0.0005836806   0.016845771   0.001744164       34729529    1570189
  13 12     -754.2569678477    -0.0003137483   0.008092978   0.001268652       34287135    1582825
  14 13     -754.2570666210    -0.0000987733   0.005338614   0.000772382       33322655    1613401
  15 14     -754.2571127134    -0.0000460924   0.002805850   0.000414895       33205657    1617633
  16 15     -754.2571314130    -0.0000186996   0.001599479   0.000210512       32477814    1635431
  17 16     -754.2571367043    -0.0000052913   0.000540984   0.000136691       31732519    1656758
  18 17     -754.2571376421    -0.0000009378   0.000241692   0.000073333       29732397    1700036
  19 18     -754.2571379117    -0.0000002696   0.000193046   0.000027614       28543483    1724040
  20 19     -754.2571379976    -0.0000000859   0.000128207   0.000016867       27657819    1742476
  21 20     -754.2571380209    -0.0000000233   0.000063796   0.000010850       26717938    1763293
  22 21     -754.2571380286    -0.0000000077   0.000037709   0.000005704       25419228    1786056
  23 22     -754.2571380316    -0.0000000030   0.000019856   0.000003584       23761033    1815669
  24 23     -754.2571380325    -0.0000000009   0.000012009   0.000001804       22852711    1832525

          -----------------
          DENSITY CONVERGED
          -----------------
     TIME TO FORM FOCK OPERATORS=       9.2 SECONDS (       0.4 SEC/ITER)
     FOCK TIME ON FIRST ITERATION=       0.4, LAST ITERATION=       0.3
     TIME TO SOLVE SCF EQUATIONS=       0.3 SECONDS (       0.0 SEC/ITER)

 FINAL UHF ENERGY IS     -754.2571380325 AFTER  24 ITERATIONS

          --------------------
          SPIN SZ   =    0.500
          S-SQUARED =    1.431
          --------------------

  ----- ALPHA SET ----- 

          ------------
          EIGENVECTORS
          ------------

                      1          2          3          4          5
                  -20.3970   -20.3595   -20.3243   -20.2306   -11.1317
                     A          A          A          A          A   
    1  C  1  S   -0.000296  -0.000229  -0.000273  -0.000134  -0.001013
    2  C  1  S   -0.001471  -0.001001  -0.001431  -0.000775  -0.001612
    3  C  1  X    0.000871  -0.000058  -0.000710  -0.000124   0.000481
    4  C  1  Y   -0.000586   0.000059  -0.000158  -0.000123  -0.000096
    5  C  1  Z    0.000064   0.000005   0.000022   0.000015  -0.000011
    6  C  1  S    0.026167   0.019749   0.025793   0.007851   0.023685
    7  C  1  X    0.000840   0.003994   0.007488  -0.002428   0.011502
    8  C  1  Y    0.020583   0.013413   0.020015   0.005139   0.008616
    9  C  1  Z   -0.002614  -0.001878  -0.002675  -0.000673  -0.001048
   10  C  2  S    0.000159  -0.000286  -0.000064   0.000002  -0.001536
   11  C  2  S    0.000875  -0.001273  -0.000264  -0.000002  -0.003818
   12  C  2  X   -0.001319  -0.000858  -0.000275   0.000036  -0.001226
   13  C  2  Y    0.000270   0.000314   0.000099  -0.000046   0.001623
   14  C  2  Z   -0.000001  -0.000069  -0.000022   0.000005  -0.000195
   15  C  2  S    0.002077   0.023443   0.007679  -0.000253   0.036832
   16  C  2  X    0.001335  -0.010977  -0.002876  -0.000101   0.003299
   17  C  2  Y    0.005044  -0.004781  -0.002109   0.000778  -0.018780
   18  C  2  Z   -0.000688   0.001261   0.000435  -0.000102   0.002385
   19  C  3  S   -0.000406   0.000069   0.000042  -0.000001   0.980526
   20  C  3  S   -0.000259   0.000255   0.000252   0.000007   0.095799
   21  C  3  X   -0.001660  -0.000048  -0.000083  -0.000024  -0.002310
   22  C  3  Y   -0.001716  -0.000189  -0.000094   0.000021  -0.000332
   23  C  3  Z    0.000256   0.000027   0.000017  -0.000002   0.000101
   24  C  3  S    0.011328  -0.005487  -0.002477   0.000457  -0.069236
   25  C  3  X   -0.009885   0.004977   0.002038   0.000026   0.013520
   26  C  3  Y   -0.001479  -0.001201  -0.001041   0.000237  -0.014799
   27  C  3  Z    0.000459  -0.000051   0.000057  -0.000032   0.001636
   28  C  4  S   -0.000014  -0.000350   0.000037  -0.000006  -0.113677
   29  C  4  S   -0.000119  -0.000367   0.000226  -0.000038  -0.011454
   30  C  4  X    0.000023  -0.000687  -0.000000  -0.000018  -0.000029
   31  C  4  Y    0.000076  -0.001568   0.000029   0.000016   0.000110
   32  C  4  Z   -0.000014  -0.001307  -0.000063  -0.000011   0.000054
   33  C  4  S    0.000216   0.006906  -0.000875   0.000142   0.007845
   34  C  4  X   -0.000139  -0.000356   0.000231  -0.000006   0.000039
   35  C  4  Y   -0.000248   0.001318   0.000392  -0.000101  -0.000234
   36  C  4  Z    0.000230  -0.003455   0.000381   0.000018  -0.000026
   37  C  5  S    0.000207   0.000182   0.000329  -0.000019  -0.000686
   38  C  5  S    0.000816   0.003155   0.001524  -0.000162  -0.000002
   39  C  5  X   -0.000089  -0.000084   0.000709  -0.000074  -0.000086
   40  C  5  Y    0.000680  -0.000122   0.000286   0.000214   0.000370
   41  C  5  Z   -0.000059  -0.000054  -0.000093  -0.000019   0.000090
   42  C  5  S   -0.020945  -0.025948  -0.030797   0.001219  -0.007585
   43  C  5  X   -0.008575   0.003882   0.007047   0.000726  -0.003557
   44  C  5  Y    0.008707   0.054190   0.015519  -0.001303   0.000900
   45  C  5  Z   -0.001248  -0.006026  -0.001932   0.000145  -0.000729
   46  O  6  S    0.000073  -0.000077  -0.001798   0.983828   0.000004
   47  O  6  S    0.000061  -0.000054  -0.000890   0.101624   0.000030
   48  O  6  X   -0.000000  -0.000036   0.000211   0.004247  -0.000007
   49  O  6  Y    0.000014   0.000093  -0.000355   0.002012   0.000007
   50  O  6  Z   -0.000002  -0.000009   0.000050  -0.000310  -0.000002
   51  O  6  S   -0.000210   0.000250   0.004278  -0.062526  -0.000156
   52  O  6  X   -0.000075   0.000228  -0.000862  -0.015491  -0.000019
   53  O  6  Y   -0.000060  -0.000500   0.002601  -0.007680  -0.000077
   54  O  6  Z    0.000008   0.000051  -0.000367   0.001183   0.000016
   55  O  7  S    0.000035   0.983928  -0.003350   0.000057   0.000002
   56  O  7  S    0.000011   0.101571   0.000240  -0.000048  -0.000129
   57  O  7  X   -0.000152   0.000204   0.000107  -0.000053  -0.000050
   58  O  7  Y    0.000050  -0.002658  -0.000088   0.000032   0.000044
   59  O  7  Z   -0.000013   0.002597  -0.000090   0.000005  -0.000087
   60  O  7  S   -0.000296  -0.061835  -0.002974   0.000386  -0.000088
   61  O  7  X    0.001045   0.001031  -0.000449   0.000061   0.000017
   62  O  7  Y   -0.000433   0.012698   0.001049  -0.000224  -0.000804
   63  O  7  Z    0.000061  -0.005427   0.000299  -0.000016  -0.000142
   64  C  8  S    0.000001  -0.000034  -0.000466   0.000320   0.004526
   65  C  8  S    0.000138  -0.000156  -0.000759   0.002463   0.000499
   66  C  8  X    0.000117   0.000013   0.001331  -0.001066   0.000069
   67  C  8  Y   -0.000004   0.000159  -0.000514  -0.001062  -0.000047
   68  C  8  Z   -0.000002  -0.000032   0.000055   0.000161   0.000008
   69  C  8  S    0.000900   0.003029   0.012636   0.016846  -0.000088
   70  C  8  X    0.000127   0.000242   0.015502  -0.031899  -0.000384
   71  C  8  Y    0.000033   0.002684  -0.002976  -0.014186   0.000173
   72  C  8  Z   -0.000005  -0.000320   0.000358   0.002120  -0.000040
   73  C  9  S   -0.000043  -0.000152   0.000023  -0.000046  -0.000354
   74  C  9  S   -0.000211  -0.000643   0.000145  -0.000286  -0.000448
   75  C  9  X   -0.000442  -0.000765  -0.001763   0.000137  -0.000265
   76  C  9  Y    0.000464   0.001585   0.000182   0.000361   0.000116
   77  C  9  Z   -0.000073  -0.000176  -0.000016  -0.000053  -0.000060
   78  C  9  S    0.001477   0.020194   0.007845   0.001030   0.003434
   79  C  9  X    0.006440   0.029041   0.037707  -0.000671   0.001789
   80  C  9  Y   -0.007343  -0.028816  -0.008237  -0.001119  -0.004913
   81  C  9  Z    0.001072   0.003414   0.001112   0.000166   0.000981
   82  C 10  S    0.000167   0.000358  -0.000053  -0.000026   0.000773
   83  C 10  S    0.000562   0.001829   0.001929  -0.000819   0.000454
   84  C 10  X   -0.000620  -0.000226  -0.000438   0.001681  -0.000073
   85  C 10  Y    0.000178  -0.000642  -0.000186  -0.000202   0.000314
   86  C 10  Z   -0.000016   0.000078   0.000027   0.000027  -0.000029
   87  C 10  S   -0.017919  -0.027585  -0.002947  -0.005628  -0.006471
   88  C 10  X   -0.008148  -0.015627  -0.039164  -0.007467  -0.004696
   89  C 10  Y    0.001762  -0.009171  -0.004997   0.003889  -0.004205
   90  C 10  Z   -0.000331   0.001299   0.000686  -0.000519   0.000395
   91  O 11  S   -0.000081   0.003507   0.983985   0.001654   0.000024
   92  O 11  S   -0.000019   0.000999   0.102776  -0.000422   0.000173
   93  O 11  X   -0.000176   0.000202   0.001138  -0.000542  -0.000045
   94  O 11  Y    0.000088  -0.000119   0.003542  -0.000604   0.000052
   95  O 11  Z   -0.000017   0.000018  -0.000466   0.000083  -0.000015
   96  O 11  S   -0.000395  -0.004097  -0.065526   0.002829  -0.001343
   97  O 11  X    0.000895  -0.001694  -0.005415   0.002220  -0.000308
   98  O 11  Y   -0.000551   0.000205  -0.011717   0.003721  -0.000187
   99  O 11  Z    0.000097  -0.000041   0.001558  -0.000515   0.000068
  100  C 12  S   -0.000052  -0.000195  -0.000353   0.000117  -0.000058
  101  C 12  S   -0.000215  -0.000709  -0.001536   0.000358  -0.000085
  102  C 12  X    0.000271   0.000979   0.000366   0.000784  -0.000010
  103  C 12  Y   -0.000046  -0.000023  -0.000552   0.000481  -0.000058
  104  C 12  Z    0.000006  -0.000034   0.000058  -0.000068   0.000012
  105  C 12  S    0.006294   0.021590   0.033820  -0.015869   0.001517
  106  C 12  X    0.001454   0.007109  -0.000513   0.006737   0.001877
  107  C 12  Y   -0.002384  -0.010349  -0.015571   0.004950   0.000130
  108  C 12  Z    0.000363   0.001860   0.002411  -0.000683  -0.000088
  109  C 13  S    0.000040   0.000082   0.000344  -0.000180  -0.000001
  110  C 13  S    0.000259   0.000436   0.001750  -0.001079  -0.000017
  111  C 13  X    0.000030  -0.000218   0.000604  -0.001270   0.000008
  112  C 13  Y   -0.000166  -0.000400  -0.000160  -0.000086  -0.000025
  113  C 13  Z    0.000023   0.000062   0.000025   0.000003   0.000004
  114  C 13  S   -0.001523  -0.005073  -0.016055   0.016040   0.000846
  115  C 13  X   -0.001419  -0.002339  -0.017759   0.021148   0.000542
  116  C 13  Y    0.001145   0.004781   0.005550  -0.004317   0.000455
  117  C 13  Z   -0.000171  -0.000810  -0.000872   0.000672  -0.000042
  118  C 14  S   -0.000114  -0.000181  -0.000111  -0.000021  -0.000536
  119  C 14  S   -0.000708  -0.000779  -0.000461  -0.000122  -0.000195
  120  C 14  X    0.001312   0.001121   0.000326   0.000051  -0.000221
  121  C 14  Y   -0.000103   0.000954   0.000322  -0.000009   0.000151
  122  C 14  Z   -0.000017  -0.000095  -0.000053   0.000003  -0.000019
  123  C 14  S    0.013704   0.022983   0.009231   0.000742  -0.012350
  124  C 14  X   -0.022270  -0.039236  -0.013729   0.000170  -0.008842
  125  C 14  Y    0.010187  -0.007100  -0.000760  -0.001799   0.013073
  126  C 14  Z   -0.000984   0.000877   0.000235   0.000229  -0.001330
  127  C 15  S   -0.000135   0.000296   0.000169   0.000026  -0.008280
  128  C 15  S    0.001569   0.001346   0.000592   0.000100  -0.002367
  129  C 15  X    0.000584  -0.000152   0.000469   0.000143  -0.002028
  130  C 15  Y   -0.000391  -0.000621   0.000037   0.000147  -0.000654
  131  C 15  Z    0.000035   0.000080   0.000005  -0.000019   0.000120
  132  C 15  S    0.000402  -0.024157  -0.018422  -0.002651   0.001601
  133  C 15  X    0.035717   0.013550   0.010883   0.000874   0.029020
  134  C 15  Y   -0.010088  -0.008332  -0.001364  -0.002023   0.013460
  135  C 15  Z    0.000833   0.001066   0.000043   0.000251  -0.002169
  136  O 16  S    0.983931  -0.000027   0.000086  -0.000058   0.000091
  137  O 16  S    0.101611   0.000045   0.000012   0.000057   0.001803
  138  O 16  X   -0.000967  -0.000162   0.000092   0.000002   0.000841
  139  O 16  Y    0.004072  -0.000227  -0.000025   0.000004   0.001059
  140  O 16  Z   -0.000509   0.000030  -0.000002  -0.000000  -0.000154
  141  O 16  S   -0.060875  -0.001186  -0.000748  -0.000410  -0.001790
  142  O 16  X    0.005974   0.001693  -0.000058   0.000133   0.000978
  143  O 16  Y   -0.012870   0.001117   0.000020  -0.000007  -0.003111
  144  O 16  Z    0.001559  -0.000183   0.000008  -0.000003   0.000377
  145  H 17  S    0.000008  -0.000159   0.000226  -0.000020  -0.000105
  146  H 17  S    0.000088   0.002095   0.002796  -0.000487  -0.000373
  147  H 18  S    0.001308   0.000772   0.001380   0.000055  -0.000034
  148  H 18  S    0.006207   0.003168   0.006239   0.001381   0.002410
  149  H 19  S   -0.000132  -0.000321  -0.001532   0.001841  -0.000028
  150  H 19  S   -0.000585  -0.001191  -0.004933   0.006526   0.000017
  151  H 20  S   -0.000824   0.000001   0.000041  -0.000075  -0.000860
  152  H 20  S   -0.002337   0.001632   0.000556  -0.000230   0.002279
  153  H 21  S   -0.000052  -0.000303   0.000073  -0.000002   0.000035
  154  H 21  S   -0.000255  -0.000863   0.000038  -0.000055  -0.001585
  155  H 22  S    0.000018  -0.000479   0.000067  -0.000011  -0.000069
  156  H 22  S   -0.000125  -0.000566  -0.000124  -0.000043  -0.001365
  157  H 23  S   -0.000002  -0.000932   0.000029  -0.000005   0.000083
  158  H 23  S    0.000202  -0.002572   0.000022   0.000048  -0.001557
  159  H 24  S    0.000112  -0.000328  -0.000145  -0.000016  -0.002978
  160  H 24  S    0.002346  -0.001336  -0.000675  -0.000034   0.006359

                      6          7          8          9         10
                  -11.1316   -11.1292   -11.1184   -11.1106   -11.1069
                     A          A          A          A          A   
    1  C  1  S   -0.000201  -0.001364  -0.003596  -0.000701  -0.004018
    2  C  1  S   -0.000355  -0.001904  -0.005240  -0.000983  -0.005407
    3  C  1  X   -0.000022  -0.000467  -0.001113  -0.000064   0.000434
    4  C  1  Y   -0.000002  -0.000094  -0.001282   0.000026  -0.001451
    5  C  1  Z    0.000070   0.000014   0.000173  -0.000030   0.000188
    6  C  1  S    0.006135   0.023797   0.044593   0.019748   0.048464
    7  C  1  X    0.001890  -0.008227   0.009545   0.003139   0.002584
    8  C  1  Y    0.003727   0.012201   0.026783   0.011369   0.031600
    9  C  1  Z   -0.001035  -0.001626  -0.003555  -0.001332  -0.004158
   10  C  2  S    0.000398  -0.000141  -0.001349  -0.002881  -0.000942
   11  C  2  S   -0.000471  -0.000123  -0.000592  -0.000869  -0.000512
   12  C  2  X   -0.000445  -0.000033  -0.000323  -0.000388  -0.000295
   13  C  2  Y    0.000386  -0.000048   0.000254   0.000046   0.000086
   14  C  2  Z    0.000116   0.000005  -0.000024   0.000027  -0.000023
   15  C  2  S    0.009420   0.002182   0.002706   0.017083   0.010337
   16  C  2  X   -0.001713  -0.001478  -0.006318  -0.008000  -0.004251
   17  C  2  Y   -0.002732   0.001096   0.007281  -0.006053  -0.003203
   18  C  2  Z    0.000321  -0.000093  -0.000741   0.000937   0.000645
   19  C  3  S    0.113663  -0.004263   0.007887   0.001569  -0.000759
   20  C  3  S    0.011147  -0.000310  -0.000866  -0.000195   0.000120
   21  C  3  X   -0.000297  -0.000066   0.000563   0.000145  -0.000100
   22  C  3  Y   -0.000068   0.000026  -0.000486  -0.000288  -0.000219
   23  C  3  Z   -0.000034   0.000000   0.000057   0.000030   0.000032
   24  C  3  S   -0.009021   0.000354   0.007383  -0.003665  -0.002840
   25  C  3  X    0.002780   0.000795  -0.007454   0.000896   0.002186
   26  C  3  Y   -0.001947   0.000384   0.007252  -0.000211  -0.001226
   27  C  3  Z    0.000387  -0.000079  -0.000792   0.000035   0.000074
   28  C  4  S    0.980709   0.002117   0.000651   0.007157  -0.000787
   29  C  4  S    0.098689   0.000146   0.000104  -0.000855   0.000233
   30  C  4  X   -0.000081  -0.000006  -0.000011   0.000221  -0.000018
   31  C  4  Y   -0.000625   0.000040   0.000126   0.001295   0.000038
   32  C  4  Z    0.000070  -0.000036   0.000027  -0.000401  -0.000031
   33  C  4  S   -0.069029   0.000079  -0.000655   0.002091  -0.001266
   34  C  4  X   -0.000118  -0.000012   0.000110  -0.000854   0.000422
   35  C  4  Y    0.001501  -0.000169   0.000165  -0.006265   0.000654
   36  C  4  Z   -0.002314   0.000012   0.000257   0.002423   0.000421
   37  C  5  S   -0.007686  -0.001173  -0.003995   0.987434   0.001098
   38  C  5  S   -0.002282   0.000106   0.000446   0.102819   0.001356
   39  C  5  X   -0.000628   0.000101  -0.000635   0.000296   0.000931
   40  C  5  Y   -0.001250   0.000338   0.000793  -0.000405   0.000453
   41  C  5  Z   -0.000883  -0.000024  -0.000129   0.000694  -0.000151
   42  C  5  S   -0.000838  -0.010576  -0.025400  -0.116629  -0.029552
   43  C  5  X    0.005534   0.007700   0.001313   0.000689  -0.001898
   44  C  5  Y    0.016178   0.000867   0.016054   0.045863   0.022240
   45  C  5  Z    0.002590  -0.000185  -0.002088  -0.008000  -0.002710
   46  O  6  S   -0.000003   0.000266   0.000003  -0.000011  -0.000130
   47  O  6  S   -0.000022   0.002431   0.000017  -0.000106  -0.001125
   48  O  6  X   -0.000010  -0.000125  -0.000004  -0.000044  -0.000094
   49  O  6  Y    0.000032  -0.000648   0.000015   0.000040   0.000099
   50  O  6  Z    0.000005   0.000092  -0.000001  -0.000008  -0.000010
   51  O  6  S    0.000115  -0.008708  -0.000055   0.000415   0.005366
   52  O  6  X    0.000085  -0.007168  -0.000040   0.000255   0.001661
   53  O  6  Y   -0.000174   0.000217  -0.000041  -0.000240  -0.000490
   54  O  6  Z   -0.000020   0.000007   0.000003   0.000046   0.000043
   55  O  7  S    0.000009  -0.000012   0.000050   0.000297   0.000094
   56  O  7  S    0.001256  -0.000079   0.000346   0.003433   0.000721
   57  O  7  X    0.000272   0.000048  -0.000172  -0.000277   0.000068
   58  O  7  Y   -0.000098   0.000025   0.000062  -0.001258  -0.000037
   59  O  7  Z    0.000771   0.000012  -0.000091   0.000342  -0.000134
   60  O  7  S   -0.000834   0.000507  -0.003016  -0.009298  -0.004933
   61  O  7  X    0.000661  -0.000571   0.000835   0.001278   0.000160
   62  O  7  Y    0.005377  -0.000362   0.000567   0.005071   0.001564
   63  O  7  Z    0.001046  -0.000019   0.000279  -0.001585   0.000440
   64  C  8  S   -0.001629   0.986747  -0.003385   0.001209   0.009656
   65  C  8  S   -0.000234   0.095950  -0.000198  -0.000073  -0.000832
   66  C  8  X   -0.000000   0.000721   0.000173  -0.000099  -0.000608
   67  C  8  Y    0.000059  -0.000639  -0.000060  -0.000006  -0.000028
   68  C  8  Z   -0.000029   0.000084   0.000003   0.000005  -0.000002
   69  C  8  S    0.001296  -0.052487   0.001653   0.000950   0.005277
   70  C  8  X    0.000184  -0.013440   0.000580   0.000076   0.005356
   71  C  8  Y    0.001022  -0.023674   0.000226   0.001613   0.009520
   72  C  8  Z   -0.000008   0.003420  -0.000027  -0.000274  -0.001318
   73  C  9  S    0.000044  -0.000001  -0.000753  -0.003236  -0.003376
   74  C  9  S   -0.000059   0.000296  -0.000755  -0.004371  -0.004169
   75  C  9  X   -0.000209  -0.000439  -0.000648  -0.002301  -0.001029
   76  C  9  Y    0.000619  -0.000011   0.000649   0.000297   0.002277
   77  C  9  Z    0.000235  -0.000007  -0.000082  -0.000161  -0.000292
   78  C  9  S    0.006497  -0.003860   0.009277   0.040634   0.039071
   79  C  9  X    0.008883   0.014365   0.014526   0.039251   0.026458
   80  C  9  Y   -0.008875   0.011530  -0.006891  -0.012488  -0.039137
   81  C  9  Z   -0.001238  -0.001471   0.000943   0.002704   0.005144
   82  C 10  S    0.001054  -0.009936  -0.006864  -0.000565   0.987154
   83  C 10  S    0.000592  -0.002333  -0.000507   0.000899   0.100831
   84  C 10  X   -0.000097   0.002759  -0.000960  -0.000317   0.000436
   85  C 10  Y   -0.000160  -0.001046   0.000311  -0.000911   0.000429
   86  C 10  Z   -0.000049   0.000128  -0.000028   0.000139  -0.000020
   87  C 10  S   -0.007866  -0.002969  -0.019941  -0.019757  -0.097588
   88  C 10  X   -0.004281  -0.019753  -0.011121  -0.015173  -0.040078
   89  C 10  Y   -0.002968   0.021352   0.001967  -0.004197  -0.020462
   90  C 10  Z    0.001301  -0.002755  -0.000329   0.000169   0.002564
   91  O 11  S    0.000022   0.000064   0.000002   0.000061   0.000315
   92  O 11  S    0.000168   0.001535  -0.000051   0.000434   0.003288
   93  O 11  X    0.000058  -0.001757  -0.000330   0.000083   0.001612
   94  O 11  Y   -0.000032   0.000777   0.000175  -0.000153   0.000470
   95  O 11  Z    0.000048  -0.000089  -0.000029  -0.000003  -0.000078
   96  O 11  S   -0.001115  -0.001103  -0.000962  -0.003475  -0.010105
   97  O 11  X   -0.000488   0.004320   0.001446  -0.001293  -0.008105
   98  O 11  Y    0.000056  -0.001882  -0.001076   0.000177  -0.002634
   99  O 11  Z   -0.000229   0.000189   0.000166   0.000088   0.000421
  100  C 12  S    0.000074  -0.000877  -0.000236  -0.000794  -0.001163
  101  C 12  S   -0.000141  -0.000887  -0.000471  -0.000958  -0.001575
  102  C 12  X    0.000308   0.001344   0.000297   0.000228   0.000061
  103  C 12  Y    0.000112   0.000428   0.000000  -0.000100   0.000243
  104  C 12  Z   -0.000036  -0.000068  -0.000008   0.000043  -0.000044
  105  C 12  S    0.006298   0.003574   0.009310   0.015630   0.021798
  106  C 12  X    0.002285  -0.005296   0.001314   0.003652   0.010843
  107  C 12  Y   -0.003704  -0.001748  -0.004703  -0.008232  -0.008614
  108  C 12  Z    0.001224   0.000269   0.000749   0.000969   0.001468
  109  C 13  S    0.000085  -0.001603   0.000155  -0.000202   0.000315
  110  C 13  S    0.000159  -0.003334   0.000278  -0.000236   0.000829
  111  C 13  X   -0.000046  -0.000229  -0.000067  -0.000423  -0.000022
  112  C 13  Y   -0.000140   0.000930  -0.000195  -0.000143   0.000066
  113  C 13  Z    0.000015  -0.000141   0.000027   0.000014  -0.000000
  114  C 13  S   -0.001730   0.024957  -0.003011  -0.003166  -0.008447
  115  C 13  X   -0.000859  -0.001255  -0.002092  -0.000273  -0.002366
  116  C 13  Y    0.001858  -0.020096   0.001517   0.001669   0.008658
  117  C 13  Z   -0.000461   0.002884  -0.000241  -0.000153  -0.001329
  118  C 14  S    0.000040  -0.000435  -0.004536  -0.004693  -0.001332
  119  C 14  S    0.000089  -0.000462  -0.004695  -0.004809  -0.000977
  120  C 14  X    0.000219   0.000268   0.001596   0.002521   0.000661
  121  C 14  Y    0.000299   0.000081   0.001400  -0.000949   0.000303
  122  C 14  Z    0.000070  -0.000013  -0.000214   0.000093  -0.000052
  123  C 14  S    0.001616   0.003561   0.043437   0.045840   0.015794
  124  C 14  X   -0.008397  -0.003978  -0.029563  -0.046016  -0.020441
  125  C 14  Y   -0.004190  -0.005696  -0.017057   0.012312   0.002674
  126  C 14  Z   -0.001061   0.000789   0.002528  -0.000512  -0.000155
  127  C 15  S   -0.001568   0.003436   0.987018   0.004436   0.007230
  128  C 15  S   -0.000144   0.000939   0.100468   0.001119   0.000922
  129  C 15  X   -0.000210   0.000116   0.000129   0.000075   0.000959
  130  C 15  Y   -0.000289   0.000295   0.000766  -0.000892   0.000150
  131  C 15  Z    0.000027  -0.000037  -0.000109   0.000103  -0.000005
  132  C 15  S   -0.006257  -0.008331  -0.091589  -0.016839  -0.023016
  133  C 15  X    0.004707   0.003730   0.027465   0.013962   0.015141
  134  C 15  Y   -0.000906  -0.006626  -0.024308  -0.004572  -0.001936
  135  C 15  Z    0.000641   0.000821   0.002883   0.000302   0.000057
  136  O 16  S   -0.000002   0.000030   0.000283   0.000023   0.000007
  137  O 16  S    0.000109   0.000232   0.003189   0.000119  -0.000016
  138  O 16  X    0.000071  -0.000048  -0.001233  -0.000075   0.000231
  139  O 16  Y    0.000079  -0.000019   0.000728  -0.000225   0.000020
  140  O 16  Z    0.000009   0.000005  -0.000064   0.000029  -0.000013
  141  O 16  S    0.000159  -0.001486  -0.008407  -0.002124  -0.001308
  142  O 16  X    0.000312   0.000763   0.005184   0.001084  -0.000430
  143  O 16  Y    0.000013   0.000102  -0.003505   0.000687  -0.000273
  144  O 16  Z   -0.000136  -0.000034   0.000323  -0.000100   0.000058
  145  H 17  S   -0.000031  -0.000040   0.000131   0.000159  -0.000198
  146  H 17  S    0.001196   0.001739   0.000818   0.001425   0.001055
  147  H 18  S    0.000186  -0.000041   0.000513   0.000418   0.000783
  148  H 18  S    0.000956   0.002469   0.007521   0.002579   0.008452
  149  H 19  S   -0.000128  -0.000683  -0.000159  -0.000042  -0.000509
  150  H 19  S   -0.000523   0.003572  -0.000670   0.000224  -0.001602
  151  H 20  S    0.000065  -0.000141  -0.000590   0.000305   0.000084
  152  H 20  S   -0.000323  -0.000317  -0.001033   0.002309   0.001046
  153  H 21  S   -0.000098  -0.000020   0.000047  -0.001054   0.000132
  154  H 21  S    0.014765   0.000005  -0.000074  -0.001108   0.000074
  155  H 22  S   -0.000335  -0.000018   0.000055  -0.000754   0.000095
  156  H 22  S    0.015122  -0.000104   0.000010  -0.001623  -0.000072
  157  H 23  S   -0.000657  -0.000012   0.000017   0.000579   0.000032
  158  H 23  S    0.013142   0.000109   0.000098   0.003236  -0.000055
  159  H 24  S   -0.000444  -0.000059   0.000741   0.000054  -0.000162
  160  H 24  S    0.000353  -0.000332   0.003971   0.000374  -0.000685

                     11         12         13         14         15
                  -11.0921   -11.0620   -11.0383   -11.0263   -10.9953
                     A          A          A          A          A   
    1  C  1  S   -0.000752  -0.002243   0.987623   0.004759   0.001481
    2  C  1  S   -0.000596  -0.000227   0.100551   0.000414  -0.000764
    3  C  1  X   -0.000135  -0.000733   0.000444   0.000455  -0.000025
    4  C  1  Y   -0.000138  -0.000232   0.001729  -0.000415  -0.000319
    5  C  1  Z    0.000010   0.000032  -0.000235   0.000054   0.000033
    6  C  1  S    0.001498  -0.003389  -0.106414  -0.004094   0.005281
    7  C  1  X    0.001063   0.004163  -0.007270  -0.006292   0.002217
    8  C  1  Y    0.001494  -0.006008  -0.031145  -0.004794   0.004878
    9  C  1  Z   -0.000179   0.000814   0.004234   0.000670  -0.000603
   10  C  2  S    0.987257   0.006942   0.000617   0.000503   0.000114
   11  C  2  S    0.101040  -0.001969  -0.000364  -0.000216  -0.000267
   12  C  2  X   -0.000729   0.000678   0.000083   0.000224  -0.000061
   13  C  2  Y   -0.001782   0.000249   0.000280  -0.000116  -0.000015
   14  C  2  Z    0.000292  -0.000026  -0.000041   0.000014   0.000000
   15  C  2  S   -0.098650   0.020324  -0.003733  -0.001586   0.003809
   16  C  2  X    0.017861  -0.012076   0.000444  -0.000640  -0.002121
   17  C  2  Y    0.026742  -0.003860  -0.001382   0.000742  -0.001395
   18  C  2  Z   -0.004036   0.000626   0.000139  -0.000120   0.000262
   19  C  3  S    0.000899   0.000522   0.000609   0.000235   0.000027
   20  C  3  S   -0.003844  -0.000630  -0.000830  -0.000328  -0.000043
   21  C  3  X    0.000911   0.000107   0.000313   0.000105   0.000006
   22  C  3  Y   -0.001388  -0.000740  -0.000103  -0.000050  -0.000120
   23  C  3  Z    0.000149   0.000087  -0.000003   0.000001   0.000015
   24  C  3  S    0.037787  -0.001857   0.002175   0.001686  -0.000823
   25  C  3  X   -0.017641   0.001230  -0.003854  -0.001251   0.000546
   26  C  3  Y    0.016242   0.000150   0.000986   0.000994  -0.000126
   27  C  3  Z   -0.001627   0.000011  -0.000011  -0.000084   0.000000
   28  C  4  S   -0.000588  -0.000047   0.000036  -0.000078  -0.000113
   29  C  4  S    0.000098   0.000086  -0.000072   0.000073   0.000140
   30  C  4  X    0.000131   0.000058  -0.000003  -0.000086  -0.000114
   31  C  4  Y    0.000002   0.000176  -0.000001   0.000053   0.000043
   32  C  4  Z   -0.000026  -0.000045  -0.000004   0.000088   0.000010
   33  C  4  S   -0.000405  -0.000436   0.000363  -0.000324  -0.000450
   34  C  4  X   -0.000684  -0.000322  -0.000055   0.000307   0.000329
   35  C  4  Y   -0.000167  -0.000582  -0.000222  -0.000343  -0.000130
   36  C  4  Z   -0.000061  -0.000016  -0.000066  -0.000195   0.000096
   37  C  5  S    0.002780   0.003938   0.000377   0.002508   0.000668
   38  C  5  S    0.000161  -0.003268  -0.000489  -0.003348  -0.000380
   39  C  5  X    0.000011  -0.001564   0.000088   0.001593   0.000432
   40  C  5  Y   -0.000021   0.001251   0.000017   0.000580  -0.000157
   41  C  5  Z    0.000045  -0.000088   0.000024  -0.000038   0.000021
   42  C  5  S    0.006703   0.024082   0.009681   0.025150   0.002691
   43  C  5  X   -0.001448   0.010129  -0.000974  -0.015601  -0.007032
   44  C  5  Y   -0.004572  -0.011124  -0.006119  -0.006562   0.000400
   45  C  5  Z    0.000581   0.001027   0.000705   0.000635  -0.000031
   46  O  6  S   -0.000001  -0.000004  -0.000043  -0.000018   0.000001
   47  O  6  S   -0.000013  -0.000046  -0.000380  -0.000169  -0.000070
   48  O  6  X   -0.000004  -0.000008   0.000004  -0.000023  -0.000036
   49  O  6  Y    0.000008   0.000001  -0.000037   0.000043  -0.000232
   50  O  6  Z   -0.000001  -0.000000   0.000005  -0.000006   0.000032
   51  O  6  S    0.000052   0.000147   0.001866   0.000861  -0.000738
   52  O  6  X    0.000019   0.000056   0.000244   0.000186  -0.000061
   53  O  6  Y   -0.000054  -0.000057   0.000349  -0.000235   0.000880
   54  O  6  Z    0.000008   0.000009  -0.000052   0.000034  -0.000116
   55  O  7  S   -0.000030   0.000025  -0.000023   0.000029   0.000014
   56  O  7  S   -0.000216   0.000016  -0.000190   0.000025   0.000110
   57  O  7  X    0.000056   0.000099   0.000003  -0.000145  -0.000214
   58  O  7  Y    0.000025   0.000077   0.000027   0.000142   0.000056
   59  O  7  Z    0.000036   0.000004   0.000030  -0.000025  -0.000030
   60  O  7  S    0.001375   0.000040   0.001247  -0.000360  -0.000281
   61  O  7  X   -0.000134  -0.001271  -0.000027   0.001696   0.001273
   62  O  7  Y   -0.000552   0.000645  -0.000388   0.000294  -0.000089
   63  O  7  Z   -0.000086  -0.000148  -0.000103  -0.000028   0.000133
   64  C  8  S    0.000114   0.000334   0.000929   0.000031   0.000892
   65  C  8  S   -0.000062  -0.000192  -0.000888  -0.000294  -0.000136
   66  C  8  X    0.000001  -0.000055  -0.000314   0.000086  -0.000302
   67  C  8  Y    0.000011  -0.000005   0.000087  -0.000059  -0.000860
   68  C  8  Z   -0.000001   0.000002  -0.000010   0.000003   0.000125
   69  C  8  S    0.000753   0.001010   0.002605   0.004964  -0.007173
   70  C  8  X    0.000151   0.000139   0.003698   0.002115  -0.004125
   71  C  8  Y    0.000442   0.000775   0.001027   0.002784  -0.003261
   72  C  8  Z   -0.000065  -0.000114  -0.000161  -0.000411   0.000446
   73  C  9  S   -0.000547  -0.002129  -0.004544   0.987656   0.006015
   74  C  9  S   -0.000347  -0.000538  -0.000068   0.100853  -0.002694
   75  C  9  X   -0.000473  -0.000720  -0.000080   0.000160   0.001594
   76  C  9  Y    0.000181   0.000158   0.000681  -0.000432  -0.000336
   77  C  9  Z   -0.000037  -0.000032  -0.000099   0.000012   0.000053
   78  C  9  S   -0.002687  -0.003625  -0.012936  -0.103323   0.028635
   79  C  9  X    0.001781  -0.000056  -0.005638   0.001796  -0.023909
   80  C  9  Y   -0.003368  -0.000215   0.006597   0.004956   0.000506
   81  C  9  Z    0.000504   0.000199  -0.000796  -0.000233  -0.000245
   82  C 10  S    0.000832   0.001043   0.002912   0.002619   0.001000
   83  C 10  S    0.000037  -0.000379  -0.004474  -0.003376  -0.000182
   84  C 10  X   -0.000156  -0.000162  -0.001544  -0.000328   0.000564
   85  C 10  Y   -0.000035  -0.000105   0.000885  -0.001551  -0.000859
   86  C 10  Z    0.000002   0.000024  -0.000118   0.000207   0.000134
   87  C 10  S   -0.001922   0.006183   0.044107   0.029784  -0.009278
   88  C 10  X   -0.000838   0.002814   0.026229   0.003753  -0.001199
   89  C 10  Y   -0.000803  -0.001877  -0.005477   0.020920  -0.004100
   90  C 10  Z    0.000089   0.000181   0.000712  -0.002816   0.000468
   91  O 11  S    0.000003  -0.000001  -0.000019   0.000045  -0.000031
   92  O 11  S    0.000012  -0.000037  -0.000408   0.000179  -0.000241
   93  O 11  X   -0.000013   0.000026  -0.000178  -0.000186   0.000006
   94  O 11  Y    0.000005  -0.000022  -0.000040   0.000249  -0.000075
   95  O 11  Z   -0.000001  -0.000001   0.000007  -0.000040   0.000007
   96  O 11  S   -0.000193   0.000084   0.002096  -0.000778   0.001389
   97  O 11  X    0.000000  -0.000282   0.000600   0.000438  -0.000345
   98  O 11  Y   -0.000045   0.000137   0.000709  -0.002745   0.000695
   99  O 11  Z    0.000010   0.000000  -0.000102   0.000390  -0.000073
  100  C 12  S   -0.000209  -0.000721  -0.001723  -0.006706   0.987077
  101  C 12  S   -0.000297  -0.000561  -0.000983  -0.003935   0.100303
  102  C 12  X   -0.000005  -0.000374  -0.000118  -0.000660  -0.000083
  103  C 12  Y   -0.000017   0.000017   0.000425   0.000842  -0.001386
  104  C 12  Z    0.000006  -0.000009  -0.000062  -0.000121   0.000211
  105  C 12  S    0.002804   0.000428   0.001334   0.026501  -0.091653
  106  C 12  X    0.002184   0.004061  -0.002284   0.009559   0.004660
  107  C 12  Y   -0.001118  -0.000314  -0.003625  -0.013644   0.023529
  108  C 12  Z    0.000161   0.000041   0.000478   0.001911  -0.003364
  109  C 13  S    0.000023  -0.000149  -0.000262  -0.000579  -0.007168
  110  C 13  S    0.000037  -0.000167  -0.000045   0.000140  -0.005458
  111  C 13  X   -0.000005  -0.000010  -0.000147  -0.000661  -0.002019
  112  C 13  Y   -0.000052   0.000003   0.000198  -0.000300  -0.000050
  113  C 13  Z    0.000007   0.000002  -0.000028   0.000031  -0.000004
  114  C 13  S    0.000016   0.001899  -0.004176  -0.006887   0.038030
  115  C 13  X    0.000003   0.001388  -0.002152  -0.003264   0.022244
  116  C 13  Y    0.001063   0.001537   0.000601   0.005598  -0.003928
  117  C 13  Z   -0.000149  -0.000219  -0.000085  -0.000764   0.000658
  118  C 14  S   -0.007511   0.987589   0.002450   0.002149   0.000582
  119  C 14  S   -0.003722   0.100412   0.000603  -0.000180  -0.000489
  120  C 14  X   -0.001476   0.000075   0.000371   0.000617   0.000531
  121  C 14  Y    0.000042  -0.000788   0.000535  -0.000349  -0.000213
  122  C 14  Z    0.000031   0.000092  -0.000078   0.000049   0.000019
  123  C 14  S    0.032439  -0.098828  -0.009691  -0.001913   0.002156
  124  C 14  X    0.027977   0.002509   0.008956   0.002058  -0.006857
  125  C 14  Y   -0.003618   0.011418   0.002329   0.003311   0.003554
  126  C 14  Z   -0.000107  -0.001032  -0.000321  -0.000377  -0.000364
  127  C 15  S    0.001247   0.003699   0.002646   0.000583   0.000174
  128  C 15  S   -0.000242  -0.003481  -0.004420  -0.000611  -0.000098
  129  C 15  X   -0.000176  -0.000267   0.002105   0.000269   0.000191
  130  C 15  Y   -0.000795  -0.001223   0.000557  -0.000110  -0.000069
  131  C 15  Z    0.000107   0.000157  -0.000096   0.000015   0.000007
  132  C 15  S   -0.005042   0.032833   0.044897   0.008920  -0.002537
  133  C 15  X   -0.002559   0.003451  -0.030008  -0.004524   0.003922
  134  C 15  Y    0.000563   0.021270  -0.000406   0.000453   0.000967
  135  C 15  Z   -0.000030  -0.002854   0.000268  -0.000038  -0.000174
  136  O 16  S    0.000107   0.000011  -0.000024  -0.000004   0.000005
  137  O 16  S    0.000603  -0.000199  -0.000366  -0.000070   0.000015
  138  O 16  X    0.000044   0.000239   0.000056   0.000001   0.000041
  139  O 16  Y    0.000042   0.000057  -0.000024  -0.000001  -0.000003
  140  O 16  Z    0.000001  -0.000014  -0.000002  -0.000001  -0.000001
  141  O 16  S   -0.004115  -0.000162   0.002891   0.000334  -0.000436
  142  O 16  X   -0.001938  -0.000306  -0.000155  -0.000033   0.000045
  143  O 16  Y   -0.002593  -0.001715   0.000736  -0.000020  -0.000134
  144  O 16  Z    0.000350   0.000235  -0.000054   0.000010   0.000018
  145  H 17  S   -0.000096  -0.000285   0.000296  -0.000529  -0.002468
  146  H 17  S    0.000139   0.000262   0.001711   0.002402   0.006070
  147  H 18  S    0.000062  -0.000587  -0.002481  -0.000640   0.000267
  148  H 18  S    0.000636  -0.000915   0.004248  -0.001026   0.001819
  149  H 19  S   -0.000088  -0.000110  -0.000122  -0.000442  -0.000072
  150  H 19  S   -0.000197   0.000019  -0.000151  -0.001015   0.004774
  151  H 20  S   -0.002970  -0.000559   0.000265  -0.000068   0.000035
  152  H 20  S    0.003179   0.001722   0.001003   0.000187   0.000660
  153  H 21  S   -0.000005   0.000011  -0.000030  -0.000077  -0.000033
  154  H 21  S   -0.000230  -0.000043  -0.000034   0.000418   0.000264
  155  H 22  S   -0.000231  -0.000268  -0.000028  -0.000017   0.000021
  156  H 22  S    0.000929   0.000573  -0.000053   0.000051  -0.000108
  157  H 23  S    0.000052   0.000064   0.000001   0.000065   0.000068
  158  H 23  S    0.000173   0.000396   0.000035   0.000119   0.000108
  159  H 24  S   -0.000020  -0.000120   0.000305   0.000057  -0.000040
  160  H 24  S    0.005196   0.000232   0.001658   0.000561  -0.000077

                     16         17         18         19         20
                  -10.9636    -1.3182    -1.2646    -1.2604    -1.1798
                     A          A          A          A          A   
    1  C  1  S    0.000220  -0.011168  -0.012332   0.002983   0.015087
    2  C  1  S   -0.000397   0.018566   0.022088  -0.003486  -0.016362
    3  C  1  X   -0.000007   0.012409  -0.011088   0.003653   0.011767
    4  C  1  Y    0.000057   0.006268   0.009970  -0.000981  -0.009838
    5  C  1  Z   -0.000008  -0.000913  -0.001319   0.000050   0.001280
    6  C  1  S    0.006877  -0.088587  -0.113279  -0.004867  -0.010278
    7  C  1  X   -0.001522  -0.010009  -0.013049  -0.004274   0.030775
    8  C  1  Y    0.002649  -0.069518  -0.086347  -0.003544   0.013707
    9  C  1  Z   -0.000349   0.008810   0.011717   0.001227  -0.001797
   10  C  2  S   -0.000016  -0.029294  -0.000059  -0.002733  -0.000233
   11  C  2  S   -0.000000   0.029523   0.002739   0.006363  -0.000582
   12  C  2  X   -0.000042  -0.004098  -0.000323  -0.002650   0.000051
   13  C  2  Y    0.000014  -0.031194   0.000940   0.000957  -0.000136
   14  C  2  Z   -0.000002   0.004133  -0.000024   0.000114   0.000006
   15  C  2  S    0.001454   0.035825  -0.046880  -0.049219   0.014814
   16  C  2  X   -0.000578  -0.008051   0.021958   0.024466  -0.006143
   17  C  2  Y   -0.001313  -0.027792   0.010846   0.014984  -0.006581
   18  C  2  Z    0.000204   0.003968  -0.002603  -0.003717   0.001122
   19  C  3  S   -0.000015  -0.067445   0.002050   0.001654  -0.001121
   20  C  3  S    0.000007   0.075325  -0.003126  -0.001683   0.001359
   21  C  3  X    0.000011  -0.063691   0.002394   0.001304  -0.000984
   22  C  3  Y   -0.000079  -0.029395   0.002005   0.002744  -0.001042
   23  C  3  Z    0.000009   0.005317  -0.000315  -0.000351   0.000162
   24  C  3  S   -0.000853   0.070295   0.008260   0.009764  -0.002781
   25  C  3  X    0.000112   0.024294  -0.011966  -0.008536   0.003032
   26  C  3  Y   -0.000095  -0.010512   0.004085   0.003286  -0.002645
   27  C  3  Z    0.000010   0.000692  -0.000102  -0.000061   0.000241
   28  C  4  S   -0.000030  -0.001287  -0.018337  -0.057736  -0.001684
   29  C  4  S    0.000143   0.001804   0.018738   0.060451   0.002068
   30  C  4  X   -0.000006  -0.000427  -0.005135  -0.016190  -0.000384
   31  C  4  Y   -0.000007  -0.001181  -0.010212  -0.031843  -0.000790
   32  C  4  Z    0.000036  -0.001018  -0.014001  -0.044790  -0.001333
   33  C  4  S   -0.000599   0.001682   0.037405   0.113308   0.002388
   34  C  4  X    0.000150   0.000688  -0.001388  -0.002104   0.000267
   35  C  4  Y    0.000281   0.001321  -0.002549  -0.005257   0.000540
   36  C  4  Z    0.000124  -0.000974  -0.003440  -0.007491   0.000182
   37  C  5  S    0.000176  -0.006866  -0.029299  -0.078306   0.003249
   38  C  5  S   -0.000189   0.003983   0.025172   0.078930  -0.001185
   39  C  5  X    0.000520   0.003091   0.000003   0.013952   0.004026
   40  C  5  Y   -0.000290  -0.004605   0.020528   0.077432   0.005503
   41  C  5  Z    0.000005   0.000596  -0.000755  -0.004278  -0.000613
   42  C  5  S   -0.005040   0.092498   0.173847   0.194137  -0.050545
   43  C  5  X   -0.006362   0.038845  -0.035222  -0.002720   0.006327
   44  C  5  Y    0.006569  -0.037509  -0.087048  -0.128072   0.026030
   45  C  5  Z   -0.000796   0.005429   0.009734   0.011597  -0.003534
   46  O  6  S   -0.000025  -0.000645  -0.085951   0.030624  -0.194697
   47  O  6  S   -0.000438   0.000542   0.079932  -0.028059   0.176696
   48  O  6  X   -0.000117   0.000420   0.052117  -0.018257   0.091258
   49  O  6  Y    0.000120   0.000120   0.020749  -0.007535   0.051573
   50  O  6  Z   -0.000018  -0.000020  -0.003212   0.001154  -0.007719
   51  O  6  S    0.002145   0.002013   0.262947  -0.096292   0.648718
   52  O  6  X    0.000252   0.000648   0.057208  -0.021028   0.107778
   53  O  6  Y   -0.001640   0.000302   0.019145  -0.006195   0.056274
   54  O  6  Z    0.000231  -0.000044  -0.002978   0.001046  -0.008488
   55  O  7  S    0.000039  -0.005379  -0.066147  -0.206450  -0.004787
   56  O  7  S    0.000259   0.004856   0.057662   0.182953   0.004958
   57  O  7  X   -0.000018   0.000860   0.001511   0.006766   0.000826
   58  O  7  Y   -0.000038  -0.001904  -0.012736  -0.038454  -0.000073
   59  O  7  Z   -0.000052   0.001251   0.015463   0.048116   0.001161
   60  O  7  S   -0.001849   0.017965   0.225132   0.684397   0.011483
   61  O  7  X    0.000721  -0.004222   0.003999   0.005978  -0.000418
   62  O  7  Y    0.000790  -0.000323  -0.025579  -0.073369   0.000861
   63  O  7  Z    0.000164   0.001629   0.021542   0.069806   0.002081
   64  C  8  S    0.000889  -0.000873  -0.089989   0.030916  -0.082264
   65  C  8  S   -0.003313   0.001026   0.104255  -0.034979   0.088094
   66  C  8  X   -0.000164  -0.000009  -0.002973   0.002846  -0.161147
   67  C  8  Y   -0.000792  -0.000524  -0.052217   0.017976  -0.048525
   68  C  8  Z    0.000111   0.000079   0.007307  -0.002496   0.007748
   69  C  8  S    0.029398  -0.003968   0.077068  -0.032976   0.085584
   70  C  8  X    0.009245  -0.001519   0.013149  -0.008744   0.084413
   71  C  8  Y    0.015414  -0.000968   0.012364  -0.011129   0.056042
   72  C  8  Z   -0.002210   0.000138  -0.001889   0.001389  -0.008158
   73  C  9  S    0.000904  -0.002103  -0.020850  -0.010878   0.014646
   74  C  9  S    0.000543   0.003124   0.022946   0.015641  -0.016852
   75  C  9  X    0.000738   0.003647   0.001694   0.018822   0.002508
   76  C  9  Y    0.000057  -0.002821  -0.012691   0.012233   0.013509
   77  C  9  Z    0.000002   0.000424   0.001694  -0.001395  -0.001733
   78  C  9  S   -0.012954   0.002077  -0.008816  -0.052473   0.013159
   79  C  9  X    0.007925  -0.027775  -0.155135  -0.042647   0.048238
   80  C  9  Y   -0.003685   0.032961   0.032436   0.064054  -0.021651
   81  C  9  Z    0.000506  -0.004783  -0.003608  -0.005371   0.002971
   82  C 10  S   -0.000107  -0.004044  -0.067530   0.017629   0.055567
   83  C 10  S    0.000254   0.002805   0.071761  -0.022319  -0.056585
[...]
             11  C  2  S      0.39012     0.41248
             12  C  2  X      0.57561     0.55422
             13  C  2  Y      0.59964     0.57154
             14  C  2  Z      0.44245     0.43407
             15  C  2  S      0.89207     0.54146
             16  C  2  X      0.33005     0.50761
             17  C  2  Y      0.42937     0.52644
             18  C  2  Z      0.62048     0.62866
             19  C  3  S      1.98714     1.97638
             20  C  3  S      0.39946     0.42659
             21  C  3  X      0.51916     0.49911
             22  C  3  Y      0.55205     0.52819
             23  C  3  Z      0.46432     0.45864
             24  C  3  S      0.81146     0.55391
             25  C  3  X      0.36503     0.46555
             26  C  3  Y      0.21146     0.43249
             27  C  3  Z      0.59908     0.61538
             28  C  4  S      1.98758     1.97605
             29  C  4  S      0.36562     0.42649
             30  C  4  X      0.55497     0.51619
             31  C  4  Y      0.52005     0.49306
             32  C  4  Z      0.46306     0.43843
             33  C  4  S      1.06023     0.59834
             34  C  4  X      0.51028     0.58078
             35  C  4  Y      0.47387     0.53725
             36  C  4  Z      0.35422     0.47756
             37  C  5  S      1.98859     1.97518
             38  C  5  S      0.38828     0.41083
             39  C  5  X      0.62627     0.60002
             40  C  5  Y      0.47770     0.46083
             41  C  5  Z      0.48097     0.47156
             42  C  5  S      0.89466     0.49564
             43  C  5  X      0.26394     0.47972
             44  C  5  Y      0.00756     0.39202
             45  C  5  Z      0.55616     0.58670
             46  O  6  S      1.98721     1.98134
             47  O  6  S      0.41926     0.57711
             48  O  6  X      0.66743     0.66220
             49  O  6  Y      0.77609     0.77659
             50  O  6  Z      0.64759     0.64919
             51  O  6  S      1.55987     1.04233
             52  O  6  X      0.83406     0.86323
             53  O  6  Y      0.93948     0.97228
             54  O  6  Z      0.88621     0.88807
             55  O  7  S      1.98684     1.98026
             56  O  7  S      0.40925     0.56786
             57  O  7  X      0.83815     0.84372
             58  O  7  Y      0.58240     0.57385
             59  O  7  Z      0.65755     0.65649
             60  O  7  S      1.55665     0.99530
             61  O  7  X      0.98796     1.00774
             62  O  7  Y      0.78376     0.78496
             63  O  7  Z      0.88546     0.89802
             64  C  8  S      1.98697     1.97562
             65  C  8  S      0.42112     0.43226
             66  C  8  X      0.52103     0.49839
             67  C  8  Y      0.56998     0.53942
             68  C  8  Z      0.37873     0.36153
             69  C  8  S      0.55983     0.51276
             70  C  8  X     -0.00430     0.37803
             71  C  8  Y      0.26120     0.46130
             72  C  8  Z      0.48177     0.51958
             73  C  9  S      1.98860     1.97589
             74  C  9  S      0.39063     0.40710
             75  C  9  X      0.60273     0.58851
             76  C  9  Y      0.58955     0.57754
             77  C  9  Z      0.45216     0.44330
             78  C  9  S      0.80550     0.50548
             79  C  9  X      0.34385     0.49252
             80  C  9  Y      0.36024     0.50106
             81  C  9  Z      0.63692     0.63630
             82  C 10  S      1.98803     1.97545
             83  C 10  S      0.39736     0.41392
             84  C 10  X      0.50583     0.49001
             85  C 10  Y      0.61790     0.59000
             86  C 10  Z      0.44614     0.43195
             87  C 10  S      0.78130     0.49666
             88  C 10  X      0.05051     0.39126
             89  C 10  Y      0.23200     0.47456
             90  C 10  Z      0.54885     0.57391
             91  O 11  S      1.98701     1.97995
             92  O 11  S      0.40307     0.56567
             93  O 11  X      0.55200     0.54742
             94  O 11  Y      0.74033     0.74513
             95  O 11  Z      0.80821     0.81950
             96  O 11  S      1.56828     0.96853
             97  O 11  X      0.77910     0.73629
             98  O 11  Y      0.96249     0.96427
             99  O 11  Z      1.01143     0.99439
            100  C 12  S      1.98796     1.97637
            101  C 12  S      0.38683     0.40497
            102  C 12  X      0.60428     0.58076
            103  C 12  Y      0.55556     0.52925
            104  C 12  Z      0.46094     0.46083
            105  C 12  S      0.84860     0.52592
            106  C 12  X      0.22674     0.47861
            107  C 12  Y      0.45228     0.54593
            108  C 12  Z      0.65410     0.66703
            109  C 13  S      1.98773     1.97601
            110  C 13  S      0.37384     0.40246
            111  C 13  X      0.59030     0.56153
            112  C 13  Y      0.53496     0.51680
            113  C 13  Z      0.52443     0.53213
            114  C 13  S      0.91287     0.54729
            115  C 13  X      0.38859     0.51892
            116  C 13  Y      0.35746     0.52956
            117  C 13  Z      0.82114     0.79476
            118  C 14  S      1.98858     1.97603
            119  C 14  S      0.39413     0.41134
            120  C 14  X      0.58750     0.57309
            121  C 14  Y      0.60224     0.58807
            122  C 14  Z      0.45909     0.45004
            123  C 14  S      0.76446     0.50362
            124  C 14  X      0.34709     0.49538
            125  C 14  Y      0.34917     0.49294
            126  C 14  Z      0.62986     0.62859
            127  C 15  S      1.98797     1.97557
            128  C 15  S      0.39776     0.41726
            129  C 15  X      0.53825     0.52580
            130  C 15  Y      0.56795     0.54610
            131  C 15  Z      0.48465     0.47551
            132  C 15  S      0.74908     0.49605
            133  C 15  X      0.10990     0.41106
            134  C 15  Y      0.19302     0.44332
            135  C 15  Z      0.58283     0.60220
            136  O 16  S      1.98691     1.98031
            137  O 16  S      0.40973     0.56776
            138  O 16  X      0.55541     0.54306
            139  O 16  Y      0.72121     0.72454
            140  O 16  Z      0.80391     0.81294
            141  O 16  S      1.56856     0.97814
            142  O 16  X      0.72784     0.73586
            143  O 16  Y      0.93575     0.93465
            144  O 16  Z      0.99654     0.97865
            145  H 17  S      0.47320     0.47493
            146  H 17  S      0.33531     0.44570
            147  H 18  S      0.46665     0.46221
            148  H 18  S      0.28800     0.42465
            149  H 19  S      0.47023     0.47021
            150  H 19  S      0.35961     0.45337
            151  H 20  S      0.46923     0.46282
            152  H 20  S      0.29625     0.42998
            153  H 21  S      0.47702     0.47619
            154  H 21  S      0.31448     0.43959
            155  H 22  S      0.48146     0.48109
            156  H 22  S      0.33593     0.44994
            157  H 23  S      0.48202     0.47983
            158  H 23  S      0.32494     0.44043
            159  H 24  S      0.47829     0.46970
            160  H 24  S      0.28891     0.43299

          ----- MULLIKEN ATOMIC OVERLAP POPULATIONS -----
          (OFF-DIAGONAL ELEMENTS NEED TO BE MULTIPLIED BY 2)

             1           2           3           4           5

    1    5.3637806
    2    0.0042566   5.3932708
    3    0.0006796   0.4301623   5.0757190
    4    0.0000074  -0.0003214   0.0000112   5.0721114
    5   -0.0185085  -0.0450934   0.0060540  -0.0885540   5.2146486
    6   -0.0000308  -0.0000000   0.0000000  -0.0000000   0.0000004
    7   -0.0001936  -0.0011655   0.0000820   0.2432109   0.3333311
    8   -0.0007561   0.0000000  -0.0000000  -0.0000001   0.0005112
    9   -0.1032728   0.0032996  -0.0000170   0.0000792   0.2421301
   10    0.4291172  -0.0000465  -0.0002853  -0.0000228   0.0079046
   11   -0.0402031  -0.0000004   0.0000001   0.0000001   0.0027412
   12    0.0046467  -0.0000031  -0.0000004   0.0000324  -0.0874567
   13   -0.0006109   0.0000001   0.0000000  -0.0000050   0.0048746
   14   -0.0671983   0.3377546  -0.1198724  -0.0027658   0.1282293
   15    0.3227336  -0.1065658  -0.1498813   0.0000773  -0.0122143
   16   -0.0190773  -0.0961851   0.2951163  -0.0000002   0.0040866
   17   -0.0000444   0.0000012  -0.0000000  -0.0007988  -0.0010791
   18    0.3922434  -0.0000306  -0.0000014  -0.0000001  -0.0006896
   19    0.0000057  -0.0000000  -0.0000000   0.0000002  -0.0000358
   20   -0.0000384   0.3841163  -0.0197337  -0.0000074   0.0005418
   21   -0.0000029   0.0000672   0.0000011   0.3508058  -0.0030707
   22    0.0000031   0.0001702  -0.0000823   0.3459405  -0.0080423
   23   -0.0000001  -0.0000112  -0.0000001   0.3700866   0.0038383
   24   -0.0000133  -0.0354920   0.3912044   0.0000001  -0.0000154

             6           7           8           9          10

    6    8.3124969
    7   -0.0000000   8.3538177
    8    0.5406724  -0.0000029   4.3318856
    9   -0.0000035  -0.0781703   0.0073236   5.8446781
   10   -0.0007210   0.0019641  -0.0563275   0.2181290   4.9699763
   11   -0.0456054  -0.0000001   0.1686939  -0.0532921   0.2445635
   12    0.0035136   0.0029492  -0.0796403   0.3459473  -0.0943414
   13   -0.0916058   0.0003455   0.2978607  -0.0846319   0.0017881
   14   -0.0000000  -0.0920067   0.0000046  -0.1240142  -0.0254451
   15    0.0000002   0.0019006  -0.0000865  -0.0114996  -0.1003155
   16   -0.0000000  -0.0000003   0.0000000  -0.0002266   0.0021426
   17   -0.0000049   0.0060271   0.0014441  -0.0475524   0.0017651
   18   -0.0000047  -0.0000000  -0.0000735   0.0041705  -0.0321988
   19   -0.0015109   0.0000001  -0.0351873   0.0033438   0.0003378
   20   -0.0000000   0.0000234   0.0000000   0.0000250  -0.0000015
   21    0.0000000  -0.0299964   0.0000003   0.0047520  -0.0000454
   22   -0.0000000  -0.0299624  -0.0000000  -0.0009150   0.0000001
   23   -0.0000000  -0.0241334  -0.0000000  -0.0000988   0.0000015
   24    0.0000000   0.0000001   0.0000000   0.0000007   0.0000008

            11          12          13          14          15

   11    8.6267172
   12   -0.0057830   5.5231163
   13   -0.0896105   0.1883421   5.8941740
   14   -0.0002891   0.0084341  -0.0001413   5.8489649
   15    0.0038524  -0.0006249   0.0000797   0.2898859   5.2037777
   16   -0.0000001  -0.0000002   0.0000000  -0.0516389   0.2073063
   17    0.0000035   0.4091963  -0.0286765   0.0004779  -0.0000153
   18   -0.0013152   0.0000067  -0.0000056   0.0031919  -0.0420440
   19    0.0014513  -0.0415059   0.3991962   0.0000003  -0.0000001
   20   -0.0000000   0.0000004  -0.0000000  -0.0190821   0.0022928
   21    0.0000000   0.0003807  -0.0000669  -0.0009757   0.0000096
   22   -0.0000000   0.0000886   0.0000010   0.0063378  -0.0001065
   23   -0.0000000  -0.0000118   0.0000000  -0.0001401   0.0000013
   24    0.0000000  -0.0000000   0.0000000   0.0024064   0.0028608

            16          17          18          19          20

   16    8.3838139
   17   -0.0000000   0.4699388
   18   -0.0012181   0.0000004   0.4326184
   19    0.0000000  -0.0021443  -0.0000001   0.5058887
   20    0.0010752   0.0000001   0.0000002  -0.0000000   0.4153671
   21   -0.0000000  -0.0000343  -0.0000000  -0.0000003   0.0000056
   22    0.0000005   0.0000568   0.0000000  -0.0000000   0.0004425
   23   -0.0000000  -0.0000517   0.0000000   0.0000000  -0.0000042
   24   -0.0193298  -0.0000000  -0.0000009  -0.0000000   0.0004586

            21          22          23          24

   21    0.5383970
   22   -0.0391939   0.5738185
   23   -0.0295237  -0.0311697   0.5181720
   24    0.0000000  -0.0000011   0.0000000   0.4251176

          TOTAL MULLIKEN AND LOWDIN ATOMIC POPULATIONS
       ATOM         MULL.POP.    CHARGE          LOW.POP.     CHARGE
    1 C             6.267523   -0.267523         6.177334   -0.177334
    2 C             6.268184   -0.268184         6.153084   -0.153084
    3 C             5.909156    0.090844         5.956241    0.043759
    4 C             6.289888   -0.289888         6.044144   -0.044144
    5 C             5.684132    0.315868         5.872503    0.127497
    6 O             8.717197   -0.717197         8.412346   -0.412346
    7 O             8.688020   -0.688020         8.308217   -0.308217
    8 C             5.176322    0.823678         5.678881    0.321119
    9 C             6.170185   -0.170185         6.127694   -0.127694
   10 C             5.567940    0.432060         5.837729    0.162271
   11 O             8.811924   -0.811924         8.321161   -0.321161
   12 C             6.177287   -0.177287         6.169677   -0.169677
   13 C             6.491308   -0.491308         6.379464   -0.379464
   14 C             6.122118   -0.122118         6.119111   -0.119111
   15 C             5.611424    0.388576         5.892873    0.107127
   16 O             8.705865   -0.705865         8.255912   -0.255912
   17 H             0.808510    0.191490         0.920624    0.079376
   18 H             0.754649    0.245351         0.886866    0.113134
   19 H             0.829840    0.170160         0.923578    0.076422
   20 H             0.765482    0.234518         0.892795    0.107205
   21 H             0.791509    0.208491         0.915786    0.084214
   22 H             0.817387    0.182613         0.931032    0.068968
   23 H             0.806955    0.193045         0.920257    0.079743
   24 H             0.767197    0.232803         0.902693    0.097307

          -------------------------------
          BOND ORDER AND VALENCE ANALYSIS     BOND ORDER THRESHOLD=0.050
          -------------------------------

                   BOND                       BOND                       BOND
  ATOM PAIR DIST  ORDER      ATOM PAIR DIST  ORDER      ATOM PAIR DIST  ORDER
    1  10  1.393  1.357        1  15  1.384  1.232        1  18  1.079  0.925
    2   3  1.354  1.523        2  14  1.451  1.124        2  15  2.296 -0.056
    2  20  1.077  0.934        3  16  1.420  0.932        3  24  1.075  0.927
    4   7  1.485  0.859        4  21  1.095  0.900        4  22  1.095  0.904
    4  23  1.090  0.928        5   7  1.395  0.850        5   9  1.407  1.181
    5  14  1.392  1.183        6   8  1.219  1.628        6  13  2.406  0.095
    8  11  1.439  0.696        8  13  1.455  1.238        9  10  1.419  1.128
    9  12  1.438  1.219       10  11  1.378  0.808       12  13  1.351  1.271
   12  17  1.083  0.955       13  19  1.081  0.952       14  15  1.416  1.183
   15  16  1.391  0.737

                       TOTAL       BONDED        FREE
      ATOM            VALENCE     VALENCE     VALENCE
    1 C                 3.790       3.589       0.201
    2 C                 3.744       3.558       0.186
    3 C                 3.601       3.398       0.203
    4 C                 3.601       3.600       0.001
    5 C                 3.522       3.228       0.293
    6 O                 1.860       1.830       0.030
    7 O                 1.757       1.756       0.002
    8 C                 3.546       3.545       0.001
    9 C                 3.648       3.498       0.150
   10 C                 3.474       3.268       0.206
   11 O                 1.682       1.676       0.006
   12 C                 3.645       3.437       0.208
   13 C                 3.593       3.579       0.014
   14 C                 3.666       3.462       0.204
   15 C                 3.354       3.114       0.240
   16 O                 1.804       1.802       0.002
   17 H                 0.945       0.942       0.003
   18 H                 0.914       0.912       0.002
   19 H                 0.943       0.943       0.000
   20 H                 0.929       0.927       0.002
   21 H                 0.909       0.909       0.000
   22 H                 0.915       0.915       0.000
   23 H                 0.922       0.922       0.000
   24 H                 0.925       0.922       0.002

          -----------------------------------------
          ATOMIC SPIN DENSITY AT THE NUCLEUS (A.U.)
          -----------------------------------------
                            SPIN DENS    ALPHA DENS     BETA DENS
    1  C            6.0    -0.1336673      46.92643      47.06010
    2  C            6.0     0.1272702      47.06632      46.93905
    3  C            6.0    -0.1222014      46.89779      47.01999
    4  C            6.0     0.0262223      46.97287      46.94665
    5  C            6.0     0.1643254      47.07090      46.90657
    6  O            8.0     0.0611099     116.91134     116.85023
    7  O            8.0     0.0175856     116.79807     116.78049
    8  C            6.0    -0.0072293      46.95663      46.96386
    9  C            6.0    -0.1347413      46.94134      47.07608
   10  C            6.0     0.1333623      47.04078      46.90742
   11  O            8.0     0.0384954     116.80904     116.77054
   12  C            6.0     0.1118778      47.03498      46.92310
   13  C            6.0     0.0041912      46.96511      46.96092
   14  C            6.0    -0.1496600      46.94198      47.09164
   15  C            6.0     0.1482500      47.05731      46.90906
   16  O            8.0    -0.0080262     116.80129     116.80931
   17  H            1.0    -0.0135006       0.17862       0.19212
   18  H            1.0     0.0126543       0.18835       0.17570
   19  H            1.0    -0.0032628       0.18245       0.18571
   20  H            1.0    -0.0117256       0.17697       0.18869
   21  H            1.0    -0.0008673       0.18560       0.18647
   22  H            1.0    -0.0007133       0.18755       0.18826
   23  H            1.0    -0.0007094       0.18781       0.18852
   24  H            1.0     0.0132797       0.19246       0.17918

          ---------------------
          ELECTROSTATIC MOMENTS
          ---------------------

 POINT   1           X           Y           Z (BOHR)    CHARGE
                -0.058631   -0.000837    0.002311       -1.00 (A.U.)
         DX          DY          DZ         /D/  (DEBYE)
    11.677839    3.766142    1.623486   12.377054
 ...... END OF PROPERTY EVALUATION ......
 CPU     0: STEP CPU TIME=     0.04 TOTAL CPU TIME=          9.8 (      0.2 MIN)
 TOTAL WALL CLOCK TIME=         12.4 SECONDS, CPU UTILIZATION IS    79.60%
               580000  WORDS OF DYNAMIC MEMORY USED
 EXECUTION OF GAMESS TERMINATED NORMALLY Sun May 10 14:11:10 2020
 DDI: 263640 bytes (0.3 MB / 0 MWords) used by master data server.
Note: The following floating-point exceptions are signalling: IEEE_DENORMALNote: The following floating-point exceptions are signalling: IEEE_DENORMALNote: The following floating-point exceptions are signalling:

 ----------------------------------------
 CPU timing information for all processes
 ========================================
 0: 9.617 + 0.224 = 9.841
 1: 9.273 + 0.112 = 9.385
 2: 9.351 + 0.85 = 9.436
 3: 9.365 + 0.116 = 9.481
 4: 9.423 + 0.128 = 9.551
 5: 9.406 + 0.72 = 9.478
 ----------------------------------------

 IEEE_DENORMALNote: The following floating-point exceptions are signalling:Note: The following floating-point exceptions are signalling: IEEE_DENORMAL
Note: The following floating-point exceptions are signalling: IEEE_DENORMAL IEEE_DENORMAL


 ddikick.x: exited gracefully.
unset echo
----- accounting info -----
Files used on the master node pietdev were:
-rwxrwxr-x 1 piet piet     1455 mei 10 14:10 /home/piet/scr/bergaptenfukui_acid.F05*
-rw-rw-r-- 1 piet piet 68812800 mei 10 14:11 /home/piet/scr/bergaptenfukui_acid.F10
ls: No match.
ls: No match.
ls: No match.
zo 10 mei 2020 14:11:13 CEST
0.110u 0.035s 0:15.52 0.9%	0+0k 0+8io 0pf+0w
