----- GAMESS execution script 'rungms' -----
This job is running on host pietdev
under operating system Linux at vr 8 mei 2020 22:00:43 CEST
Available scratch disk space (Kbyte units) at beginning of the job is
Filesystem     1K-blocks     Used Available Use% Mounted on
/dev/sda2      244568380 29000744 203074580  13% /
GAMESS temporary binary files will be written to /home/piet/scr
GAMESS supplementary output files will be written to /home/piet/gamess/scr
Copying input file bergapten.inp to your run's scratch directory...
cp bergapten.inp /home/piet/scr/bergapten.F05
unset echo
 
Assuming a single but multicore node.
 
/home/piet/gamess/ddikick.x /home/piet/gamess/gamess.03.x bergapten -ddi 1 6 pietdev:cpus=6 -scr /home/piet/scr

 Distributed Data Interface kickoff program.
 Initiating 6 compute processes on 1 nodes to run the following command:
 /home/piet/gamess/gamess.03.x bergapten 

          ******************************************************
          *         GAMESS VERSION = 30 SEP 2019 (R2)          *
          *             FROM IOWA STATE UNIVERSITY             *
          * M.W.SCHMIDT, K.K.BALDRIDGE, J.A.BOATZ, S.T.ELBERT, *
          *   M.S.GORDON, J.H.JENSEN, S.KOSEKI, N.MATSUNAGA,   *
          *          K.A.NGUYEN, S.J.SU, T.L.WINDUS,           *
          *       TOGETHER WITH M.DUPUIS, J.A.MONTGOMERY       *
          *         J.COMPUT.CHEM.  14, 1347-1363(1993)        *
          **************** 64 BIT LINUX VERSION ****************

  SINCE 1993, STUDENTS AND POSTDOCS WORKING AT IOWA STATE UNIVERSITY
  AND ALSO IN THEIR VARIOUS JOBS AFTER LEAVING ISU HAVE MADE IMPORTANT
  CONTRIBUTIONS TO THE CODE:
     IVANA ADAMOVIC, CHRISTINE AIKENS, YURI ALEXEEV, POOJA ARORA,
     ANDREY ASADCHEV, ROB BELL, PRADIPTA BANDYOPADHYAY, JONATHAN BENTZ,
     COLLEEN BERTONI, BRETT BODE, KURT BRORSEN, CALEB CARLIN, GALINA CHABAN,
     WEI CHEN, CHEOL HO CHOI, PAUL DAY, ALBERT DEFUSCO, NUWAN DESILVA,
     TIM DUDLEY, DMITRI FEDOROV, ALEX FINDLATER, GRAHAM FLETCHER, 
     MARK FREITAG, KURT GLAESEMANN, EMILIE B GUIDEZ, ANASTASIA GUNINA, 
     DAN KEMP, SAROM SOK LEANG, GRANT MERRILL,
     NORIYUKI MINEZAWA, JONATHAN MULLIN,
     TAKESHI NAGATA, SEAN NEDD, HEATHER NETZLOFF, BOSILJKA NJEGIC, RYAN OLSON,
     MIKE PAK, BUU PHAM, DAVID POOLE,
     SPENCER PRUITT, LUKE ROSKOP, TOSAPORN SATTASATHUCHANA,
     JIM SHOEMAKER, LYUDMILA SLIPCHENKO,
     TONY SMITH, JIE SONG, TETSUYA TAKETSUGU, SIMON WEBB,
     JORGE LUIS GALVEZ VALLEJO, PENG XU, SOOHAENG YOO,
     FEDERICO ZAHARIEV

  ADDITIONAL CODE HAS BEEN PROVIDED BY COLLABORATORS IN OTHER GROUPS:
     IOWA STATE UNIVERSITY:
          JOE IVANIC, AARON WEST, LAIMUTIS BYTAUTAS, KLAUS RUEDENBERG
     UNIVERSITY OF TOKYO: KIMIHIKO HIRAO, TAKAHITO NAKAJIMA,
          TAKAO TSUNEDA, MUNEAKI KAMIYA, SUSUMU YANAGISAWA,
          KIYOSHI YAGI, MAHITO CHIBA, SEIKEN TOKURA, NAOAKI KAWAKAMI
     UNIVERSITY OF AARHUS: FRANK JENSEN
     UNIVERSITY OF IOWA: VISVALDAS KAIRYS, HUI LI
     NATIONAL INST. OF STANDARDS AND TECHNOLOGY: WALT STEVENS, DAVID GARMER
     UNIVERSITY OF PISA: BENEDETTA MENNUCCI, JACOPO TOMASI
     UNIVERSITY OF MEMPHIS: HENRY KURTZ, PRAKASHAN KORAMBATH
     UNIVERSITY OF ALBERTA: TOBY ZENG, MARIUSZ KLOBUKOWSKI
     UNIVERSITY OF NEW ENGLAND: MARK SPACKMAN
     MIE UNIVERSITY: HIROAKI UMEDA
     NAT. INST. OF ADVANCED INDUSTRIAL SCIENCE AND TECHNOLOGY: KAZUO KITAURA
     MICHIGAN STATE UNIVERSITY:
          KAROL KOWALSKI, MARTA WLOCH, JEFFREY GOUR, JESSE LUTZ,
          WEI LI, JUN SHEN, J. EMILIANO DEUSTUA, PIOTR PIECUCH
     UNIVERSITY OF MINNESOTA:
          ANDREW SAND, PRACHI SHARMA, YINAN SHU
     UNIVERSITY OF SILESIA: MONIKA MUSIAL, STANISLAW KUCHARSKI
     FACULTES UNIVERSITAIRES NOTRE-DAME DE LA PAIX:
          OLIVIER QUINET, BENOIT CHAMPAGNE
     UNIVERSITY OF CALIFORNIA - SANTA BARBARA: BERNARD KIRTMAN
     INSTITUTE FOR MOLECULAR SCIENCE:
          KAZUYA ISHIMURA, MICHIO KATOUDA, AND SHIGERU NAGASE
     UNIVERSITY OF NOTRE DAME: ANNA POMOGAEVA, DAN CHIPMAN
     KYUSHU UNIVERSITY:
          HARUYUKI NAKANO,
          FENG LONG GU, JACEK KORCHOWIEC, MARCIN MAKOWSKI, AND YURIKO AOKI,
          HIROTOSHI MORI AND EISAKU MIYOSHI
     PENNSYLVANIA STATE UNIVERSITY:
          TZVETELIN IORDANOV, CHET SWALINA, JONATHAN SKONE,
          SHARON HAMMES-SCHIFFER
     WASEDA UNIVERSITY:
          MASATO KOBAYASHI, TOMOKO AKAMA, TSUGUKI TOUMA,
          TAKESHI YOSHIKAWA, YASUHIRO IKABATA, JUNJI SEINO,
          YUYA NAKAJIMA, HIROMI NAKAI
     NANJING UNIVERSITY: SHUHUA LI
     UNIVERSITY OF NEBRASKA:
          PEIFENG SU, DEJUN SI, NANDUN THELLAMUREGE, YALI WANG, HUI LI
     UNIVERSITY OF ZURICH: ROBERTO PEVERATI, KIM BALDRIDGE
     N. COPERNICUS UNIVERSITY AND JACKSON STATE UNIVERSITY:
          MARIA BARYSZ
     UNIVERSITY OF COPENHAGEN: Jimmy Kromann, CASPER STEINMANN
     TOKYO INSTITUTE OF TECHNOLOGY: HIROYA NAKATA
     NAGOYA UNIVERSITY: YOSHIO NISHIMOTO, STEPHAN IRLE
     MOSCOW STATE UNIVERSITY: VLADIMIR MIRONOV
     A.N.NESMEYANOV INSTITUTE OF ORGANOELEMENT COMPOUNDS OF RUSSIAN ACADEMY OF SCIENCES:
          IGOR S. GERASIMOV
     JOHANNES KEPLER UNIVERSITY LINZ:
          CHRISTIAN FRIEDL


 PARALLEL VERSION RUNNING ON        6 PROCESSORS IN        1 NODES.

 EXECUTION OF GAMESS BEGUN Fri May  8 22:00:44 2020

            ECHO OF THE FIRST FEW INPUT CARDS -
 INPUT CARD> $BASIS GBASIS=N21 NGAUSS=3 $END                                                
 INPUT CARD> $CONTRL SCFTYP=RHF RUNTYP=OPTIMIZE DFTTYP=B3LYP MAXIT=60 MULT=1 ICHARG=0 $END  
 INPUT CARD> $SYSTEM MEMDDI=1000 MWORDS=30 $END                                             
 INPUT CARD> $STATPT NSTEP=999 $END                                                         
 INPUT CARD> $SCF DIRSCF=.TRUE. $END                                                        
 INPUT CARD> $DATA                                                                          
 INPUT CARD>                                                                                
 INPUT CARD>C1                                                                              
 INPUT CARD>C 6.0000000 0.20690 -1.76980 0.13120                                            
 INPUT CARD>C 6.0000000 3.24480 0.16920 -0.17680                                            
 INPUT CARD>C 6.0000000 3.72360 -1.07170 -0.02520                                           
 INPUT CARD>C 6.0000000 1.12880 3.07980 0.76960                                             
 INPUT CARD>C 6.0000000 0.73150 0.96330 -0.23240                                            
 INPUT CARD>O 8.0000000 -4.29170 -0.90710 0.10470                                           
 INPUT CARD>O 8.0000000 0.98430 2.28420 -0.40860                                            
 INPUT CARD>C 6.0000000 -3.15890 -0.46660 0.02650                                           
 INPUT CARD>C 6.0000000 -0.58720 0.49900 -0.14760                                           
 INPUT CARD>C 6.0000000 -0.84380 -0.87680 0.03530                                           
 INPUT CARD>O 8.0000000 -2.12140 -1.31330 0.11610                                           
 INPUT CARD>C 6.0000000 -1.71530 1.42540 -0.24580                                           
 INPUT CARD>C 6.0000000 -2.97310 0.91800 -0.15620                                           
 INPUT CARD>C 6.0000000 1.78100 0.05080 -0.13400                                            
 INPUT CARD>C 6.0000000 1.51900 -1.31950 0.04820                                            
 INPUT CARD>O 8.0000000 2.71110 -1.94770 0.10720                                            
 INPUT CARD>H 1.0000000 -1.55300 2.48400 -0.38550                                           
 INPUT CARD>H 1.0000000 0.00740 -2.82140 0.27560                                            
 INPUT CARD>H 1.0000000 -3.82780 1.57460 -0.22470                                           
 INPUT CARD>H 1.0000000 3.81890 1.07490 -0.30510                                            
 INPUT CARD>H 1.0000000 0.21020 3.03290 1.35460                                             
 INPUT CARD>H 1.0000000 1.95870 2.69970 1.36530                                             
 INPUT CARD>H 1.0000000 1.32760 4.11380 0.48770                                             
 INPUT CARD>H 1.0000000 4.77160 -1.33220 -0.01140                                           
 INPUT CARD> $END                                                                           
   30000000 WORDS OF MEMORY AVAILABLE

     BASIS OPTIONS
     -------------
     GBASIS=N21          IGAUSS=       3      POLAR=NONE    
     NDFUNC=       0     NFFUNC=       0     DIFFSP=       F
     NPFUNC=       0      DIFFS=       F     BASNAM=        


     RUN TITLE
     ---------
                                                                                 

 THE POINT GROUP OF THE MOLECULE IS C1      
 THE ORDER OF THE PRINCIPAL AXIS IS     0

 ATOM      ATOMIC                      COORDINATES (BOHR)
           CHARGE         X                   Y                   Z
 C           6.0     0.3909843069       -3.3444370531        0.2479320496
 C           6.0     6.1317828850        0.3197416371       -0.3341035546
 C           6.0     7.0365836879       -2.0252193410       -0.0476210949
 C           6.0     2.1331226949        5.8199780970        1.4543331202
 C           6.0     1.3823345600        1.8203730440       -0.4391723195
 O           8.0    -8.1101370215       -1.7141704435        0.1978543109
 O           8.0     1.8600572897        4.3165121012       -0.7721420386
 C           6.0    -5.9694554226       -0.8817461459        0.0500777387
 C           6.0    -1.1096471000        0.9429732679       -0.2789235558
 C           6.0    -1.5945507884       -1.6569117460        0.0667073274
 O           8.0    -4.0088647104       -2.4817771397        0.2193971872
 C           6.0    -3.2414469867        2.6936154229       -0.4644946478
 C           6.0    -5.6183443341        1.7347684567       -0.2951751993
 C           6.0     3.3656019841        0.0959980802       -0.2532232824
 C           6.0     2.8704937753       -2.4934934408        0.0910847926
 O           8.0     5.1232361253       -3.6806193063        0.2025786259
 H           1.0    -2.9347444589        4.6940793535       -0.7284893683
 H           1.0     0.0139839723       -5.3316729018        0.5208084822
 H           1.0    -7.2334931358        2.9755625403       -0.4246214294
 H           1.0     7.2166745745        2.0312664642       -0.5765553989
 H           1.0     0.3972204026        5.7313499482        2.5598228230
 H           1.0     3.7014062922        5.1016932491        2.5800428910
 H           1.0     2.5088002213        7.7739547683        0.9216193642
 H           1.0     9.0170165230       -2.5174929608       -0.0215428763

          INTERNUCLEAR DISTANCES (ANGS.)
          ------------------------------

                1 C          2 C          3 C          4 C          5 C     

   1 C       0.0000000    3.6171012    3.5887301    4.9775571    2.8066431 *
   2 C       3.6171012    0.0000000    1.3386802 *  3.7208495    2.6363541 *
   3 C       3.5887301    1.3386802 *  0.0000000    4.9598031    3.6244750  
   4 C       4.9775571    3.7208495    4.9598031    0.0000000    2.3751681 *
   5 C       2.8066431 *  2.6363541 *  3.6244750    2.3751681 *  0.0000000  
   6 O       4.5806501    7.6181688    8.0180422    6.7616036    5.3707142  
   7 O       4.1630098    3.1043222    4.3488878    1.4289909 *  1.3563669 *
   8 C       3.6108035    6.4383962    6.9092420    5.6136906    4.1529333  
   9 C       2.4198714 *  3.8462767    4.5896707    3.2320954    1.4006196 *
  10 C       1.3822504 *  4.2256067    4.5719568    4.4816326    2.4370477 *
  11 O       2.3726781 *  5.5749170    5.8516973    5.5036524    3.6665240  
  12 C       3.7478374    5.1171663    5.9888067    3.4433968    2.4900896 *
  13 C       4.1736396    6.2628593    6.9872640    4.7282204    3.7056605  
  14 C       2.4213026 *  1.4692042 *  2.2462276 *  3.2274911    1.3941984 *
  15 C       1.3896998 *  2.2902485 *  2.2196967 *  4.4750994    2.4310632 *
  16 O       2.5106258 *  2.2015352 *  1.3453855 *  5.3120809    3.5366743  
  17 H       4.6323905    5.3311105    6.3730155    2.9801485 *  2.7486194 *
  18 H       1.0800529 *  4.4304755    4.1185038    6.0270835    3.8866874  
  19 H       5.2526641    7.2110411    8.0041455    5.2746700    4.6001047  
  20 H       4.6183568    1.0799742 *  2.1668682 *  3.5229593    3.0902716  
  21 H       4.9560716    4.4446328    5.5763401    1.0900691 *  2.6596178 *
  22 H       4.9566356    3.2304111    4.3899681    1.0899856 *  2.6596522 *
  23 H       5.9999841    4.4358861    5.7352674    1.0900207 *  3.2862638  
  24 H       4.5878442    2.1477145 *  1.0799790 *  5.7745733    4.6519425  

                6 O          7 O          8 C          9 C         10 C     

   1 C       4.5806501    4.1630098    3.6108035    2.4198714 *  1.3822504 *
   2 C       7.6181688    3.1043222    6.4383962    3.8462767    4.2256067  
   3 C       8.0180422    4.3488878    6.9092420    4.5896707    4.5719568  
   4 C       6.7616036    1.4289909 *  5.6136906    3.2320954    4.4816326  
   5 C       5.3707142    1.3563669 *  4.1529333    1.4006196 *  2.4370477 *
   6 O       0.0000000    6.1874105    1.2179455 *  3.9704021    3.4487315  
   7 O       6.1874105    0.0000000    4.9922258    2.3926287 *  3.6784396  
   8 C       1.2179455 *  4.9922258    0.0000000    2.7525143 *  2.3511762 *
   9 C       3.9704021    2.3926287 *  2.7525143 *  0.0000000    1.4114254 *
  10 C       3.4487315    3.6784396    2.3511762 *  1.4114254 *  0.0000000  
  11 O       2.2080151 *  4.7814944    1.3421383 *  2.3890874 *  1.3525245 *
  12 C       3.4930278    2.8375837 *  2.3953689 *  1.4630345 *  2.4776308 *
  13 C       2.2666638 *  4.1941892    1.4089067 *  2.4224272 *  2.7913971 *
  14 C       6.1524170    2.3870927 *  4.9695146    2.4102779 *  2.7890284 *
  15 C       5.8255901    3.6716786    4.7550665    2.7895086 *  2.4039496 *
  16 O       7.0796937    4.5996593    6.0545082    4.1146138    3.7133961  
  17 H       4.3863804    2.5452593 *  3.3844792    2.2202682 *  3.4604933  
  18 H       4.7091413    5.2430539    3.9538070    3.3996623    2.1362946 *
  19 H       2.5460837 *  4.8676132    2.1626433 *  3.4153108    3.8705578  
  20 H       8.3593117    3.0835168    7.1537314    4.4463675    5.0661402  
  21 H       6.1117063    2.0660728 *  5.0359889    3.0517373    4.2587818  
  22 H       7.3256821    2.0661115 *  6.1650362    3.6896550    4.7343699  
  23 H       7.5453733    2.0660699 *  6.4281764    4.1396672    5.4612940  
  24 H       9.0740066    5.2516434    7.9776895    5.6646784    5.6340294  

               11 O         12 C         13 C         14 C         15 C     

   1 C       2.3726781 *  3.7478374    4.1736396    2.4213026 *  1.3896998 *
   2 C       5.5749170    5.1171663    6.2628593    1.4692042 *  2.2902485 *
   3 C       5.8516973    5.9888067    6.9872640    2.2462276 *  2.2196967 *
   4 C       5.5036524    3.4433968    4.7282204    3.2274911    4.4750994  
   5 C       3.6665240    2.4900896 *  3.7056605    1.3941984 *  2.4310632 *
   6 O       2.2080151 *  3.4930278    2.2666638 *  6.1524170    5.8255901  
   7 O       4.7814944    2.8375837 *  4.1941892    2.3870927 *  3.6716786  
   8 C       1.3421383 *  2.3953689 *  1.4089067 *  4.9695146    4.7550665  
   9 C       2.3890874 *  1.4630345 *  2.4224272 *  2.4102779 *  2.7895086 *
  10 C       1.3525245 *  2.4776308 *  2.7913971 *  2.7890284 *  2.4039496 *
  11 O       0.0000000    2.7921974 *  2.4037970 *  4.1415027    3.6410385  
  12 C       2.7921974 *  0.0000000    1.3592438 *  3.7584755    4.2522475  
  13 C       2.4037970 *  1.3592438 *  0.0000000    4.8325972    5.0226634  
  14 C       4.1415027    3.7584755    4.8325972    0.0000000    1.4069694 *
  15 C       3.6410385    4.2522475    5.0226634    1.4069694 *  0.0000000  
  16 O       4.8739716    5.5763276    6.3711652    2.2174909 *  1.3487841 *
  17 H       3.8722304    1.0800423 *  2.1264098 *  4.1351264    4.9083492  
  18 H       2.6137321 *  4.6124683    4.8013481    3.4004356    2.1429767 *
  19 H       3.3716334    2.1178673 *  1.0799666 *  5.8128160    6.0859313  
  20 H       6.4162351    5.5456051    6.7954435    2.2871582 *  3.3387890  
  21 H       5.0852429    2.9753801 *  4.1095885    3.6845981    4.7289559  
  22 H       5.8576348    4.2092469    5.4600429    3.0489587    4.2523002  
  23 H       6.4410482    4.1261068    5.3966439    4.1352208    5.4544058  
  24 H       6.8942050    7.0526004    8.0662721    3.2971818    3.2531708  

               16 O         17 H         18 H         19 H         20 H     

   1 C       2.5106258 *  4.6323905    1.0800529 *  5.2526641    4.6183568  
   2 C       2.2015352 *  5.3311105    4.4304755    7.2110411    1.0799742 *
   3 C       1.3453855 *  6.3730155    4.1185038    8.0041455    2.1668682 *
   4 C       5.3120809    2.9801485 *  6.0270835    5.2746700    3.5229593  
   5 C       3.5366743    2.7486194 *  3.8866874    4.6001047    3.0902716  
   6 O       7.0796937    4.3863804    4.7091413    2.5460837 *  8.3593117  
   7 O       4.5996593    2.5452593 *  5.2430539    4.8676132    3.0835168  
   8 C       6.0545082    3.3844792    3.9538070    2.1626433 *  7.1537314  
   9 C       4.1146138    2.2202682 *  3.3996623    3.4153108    4.4463675  
  10 C       3.7133961    3.4604933    2.1362946 *  3.8705578    5.0661402  
  11 O       4.8739716    3.8722304    2.6137321 *  3.3716334    6.4162351  
  12 C       5.5763276    1.0800423 *  4.6124683    2.1178673 *  5.5456051  
  13 C       6.3711652    2.1264098 *  4.8013481    1.0799666 *  6.7954435  
  14 C       2.2174909 *  4.1351264    3.4004356    5.8128160    2.2871582 *
  15 C       1.3487841 *  4.9083492    2.1429767 *  6.0859313    3.3387890  
  16 O       0.0000000    6.1697056    2.8463492 *  7.4346465    3.2455081  
  17 H       6.1697056    0.0000000    5.5694857    2.4551130 *  5.5542179  
  18 H       2.8463492 *  5.5694857    0.0000000    5.8552434    5.4814139  
  19 H       7.4346465    2.4551130 *  5.8552434    0.0000000    7.6634317  
  20 H       3.2455081    5.5542179    5.4814139    7.6634317    0.0000000  
  21 H       5.7111193    2.5373438 *  5.9563577    4.5745242    4.4284403  
  22 H       4.8731148    3.9298682    5.9563045    6.1055329    2.9817034 *
  23 H       6.2290156    3.4229494    7.0629253    5.7907857    4.0087430  
  24 H       2.1537331 *  7.3962084    4.9997687    9.0799044    2.6053843 *

               21 H         22 H         23 H         24 H     

   1 C       4.9560716    4.9566356    5.9999841    4.5878442  
   2 C       4.4446328    3.2304111    4.4358861    2.1477145 *
   3 C       5.5763401    4.3899681    5.7352674    1.0799790 *
   4 C       1.0900691 *  1.0899856 *  1.0900207 *  5.7745733  
   5 C       2.6596178 *  2.6596522 *  3.2862638    4.6519425  
   6 O       6.1117063    7.3256821    7.5453733    9.0740066  
   7 O       2.0660728 *  2.0661115 *  2.0660699 *  5.2516434  
   8 C       5.0359889    6.1650362    6.4281764    7.9776895  
   9 C       3.0517373    3.6896550    4.1396672    5.6646784  
  10 C       4.2587818    4.7343699    5.4612940    5.6340294  
  11 O       5.0852429    5.8576348    6.4410482    6.8942050  
  12 C       2.9753801 *  4.2092469    4.1261068    7.0526004  
  13 C       4.1095885    5.4600429    5.3966439    8.0662721  
  14 C       3.6845981    3.0489587    4.1352208    3.2971818  
  15 C       4.7289559    4.2523002    5.4544058    3.2531708  
  16 O       5.7111193    4.8731148    6.2290156    2.1537331 *
  17 H       2.5373438 *  3.9298682    3.4229494    7.3962084  
  18 H       5.9563577    5.9563045    7.0629253    4.9997687  
  19 H       4.5745242    6.1055329    5.7907857    9.0799044  
  20 H       4.4284403    2.9817034 *  4.0087430    2.6053843 *
  21 H       0.0000000    1.7799969 *  1.7800121 *  6.4595994  
  22 H       1.7799969 *  0.0000000    1.7799292 *  5.1052842  
  23 H       1.7800121 *  1.7799292 *  0.0000000    6.4629059  
  24 H       6.4595994    5.1052842    6.4629059    0.0000000  

  * ... LESS THAN  3.000


     ATOMIC BASIS SET
     ----------------
 THE CONTRACTED PRIMITIVE FUNCTIONS HAVE BEEN UNNORMALIZED
 THE CONTRACTED BASIS FUNCTIONS ARE NOW NORMALIZED TO UNITY

  SHELL TYPE  PRIMITIVE        EXPONENT          CONTRACTION COEFFICIENT(S)

 C         

      1   S       1           172.2560000    0.061766907377
      1   S       2            25.9109000    0.358794042852
      1   S       3             5.5333500    0.700713083689

      2   L       4             3.6649800   -0.395895162119    0.236459946619
      2   L       5             0.7705450    1.215834355681    0.860618805716

      3   L       6             0.1958570    1.000000000000    1.000000000000

 C         

      4   S       7           172.2560000    0.061766907377
      4   S       8            25.9109000    0.358794042852
      4   S       9             5.5333500    0.700713083689

      5   L      10             3.6649800   -0.395895162119    0.236459946619
      5   L      11             0.7705450    1.215834355681    0.860618805716

      6   L      12             0.1958570    1.000000000000    1.000000000000

 C         

      7   S      13           172.2560000    0.061766907377
      7   S      14            25.9109000    0.358794042852
      7   S      15             5.5333500    0.700713083689

      8   L      16             3.6649800   -0.395895162119    0.236459946619
      8   L      17             0.7705450    1.215834355681    0.860618805716

      9   L      18             0.1958570    1.000000000000    1.000000000000

 C         

     10   S      19           172.2560000    0.061766907377
     10   S      20            25.9109000    0.358794042852
     10   S      21             5.5333500    0.700713083689

     11   L      22             3.6649800   -0.395895162119    0.236459946619
     11   L      23             0.7705450    1.215834355681    0.860618805716

     12   L      24             0.1958570    1.000000000000    1.000000000000

 C         

     13   S      25           172.2560000    0.061766907377
     13   S      26            25.9109000    0.358794042852
     13   S      27             5.5333500    0.700713083689

     14   L      28             3.6649800   -0.395895162119    0.236459946619
     14   L      29             0.7705450    1.215834355681    0.860618805716

     15   L      30             0.1958570    1.000000000000    1.000000000000

 O         

     16   S      31           322.0370000    0.059239393389
     16   S      32            48.4308000    0.351499960776
     16   S      33            10.4206000    0.707657921031

     17   L      34             7.4029400   -0.404453583190    0.244586106967
     17   L      35             1.5762000    1.221561761397    0.853955373466

     18   L      36             0.3736840    1.000000000000    1.000000000000

 O         

     19   S      37           322.0370000    0.059239393389
     19   S      38            48.4308000    0.351499960776
     19   S      39            10.4206000    0.707657921031

     20   L      40             7.4029400   -0.404453583190    0.244586106967
     20   L      41             1.5762000    1.221561761397    0.853955373466

     21   L      42             0.3736840    1.000000000000    1.000000000000

 C         

     22   S      43           172.2560000    0.061766907377
     22   S      44            25.9109000    0.358794042852
     22   S      45             5.5333500    0.700713083689

     23   L      46             3.6649800   -0.395895162119    0.236459946619
     23   L      47             0.7705450    1.215834355681    0.860618805716

     24   L      48             0.1958570    1.000000000000    1.000000000000

 C         

     25   S      49           172.2560000    0.061766907377
     25   S      50            25.9109000    0.358794042852
     25   S      51             5.5333500    0.700713083689

     26   L      52             3.6649800   -0.395895162119    0.236459946619
     26   L      53             0.7705450    1.215834355681    0.860618805716

     27   L      54             0.1958570    1.000000000000    1.000000000000

 C         

     28   S      55           172.2560000    0.061766907377
     28   S      56            25.9109000    0.358794042852
     28   S      57             5.5333500    0.700713083689

     29   L      58             3.6649800   -0.395895162119    0.236459946619
     29   L      59             0.7705450    1.215834355681    0.860618805716

     30   L      60             0.1958570    1.000000000000    1.000000000000

 O         

     31   S      61           322.0370000    0.059239393389
     31   S      62            48.4308000    0.351499960776
     31   S      63            10.4206000    0.707657921031

     32   L      64             7.4029400   -0.404453583190    0.244586106967
     32   L      65             1.5762000    1.221561761397    0.853955373466

     33   L      66             0.3736840    1.000000000000    1.000000000000

 C         

     34   S      67           172.2560000    0.061766907377
     34   S      68            25.9109000    0.358794042852
     34   S      69             5.5333500    0.700713083689

     35   L      70             3.6649800   -0.395895162119    0.236459946619
     35   L      71             0.7705450    1.215834355681    0.860618805716

     36   L      72             0.1958570    1.000000000000    1.000000000000

 C         

     37   S      73           172.2560000    0.061766907377
     37   S      74            25.9109000    0.358794042852
     37   S      75             5.5333500    0.700713083689

     38   L      76             3.6649800   -0.395895162119    0.236459946619
     38   L      77             0.7705450    1.215834355681    0.860618805716

     39   L      78             0.1958570    1.000000000000    1.000000000000

 C         

     40   S      79           172.2560000    0.061766907377
     40   S      80            25.9109000    0.358794042852
     40   S      81             5.5333500    0.700713083689

     41   L      82             3.6649800   -0.395895162119    0.236459946619
     41   L      83             0.7705450    1.215834355681    0.860618805716

     42   L      84             0.1958570    1.000000000000    1.000000000000

 C         

     43   S      85           172.2560000    0.061766907377
     43   S      86            25.9109000    0.358794042852
     43   S      87             5.5333500    0.700713083689

     44   L      88             3.6649800   -0.395895162119    0.236459946619
     44   L      89             0.7705450    1.215834355681    0.860618805716

     45   L      90             0.1958570    1.000000000000    1.000000000000

 O         

     46   S      91           322.0370000    0.059239393389
     46   S      92            48.4308000    0.351499960776
     46   S      93            10.4206000    0.707657921031

     47   L      94             7.4029400   -0.404453583190    0.244586106967
     47   L      95             1.5762000    1.221561761397    0.853955373466

     48   L      96             0.3736840    1.000000000000    1.000000000000

 H         

     49   S      97             5.4471780    0.156284978695
     49   S      98             0.8245472    0.904690876670

     50   S      99             0.1831916    1.000000000000

 H         

     51   S     100             5.4471780    0.156284978695
     51   S     101             0.8245472    0.904690876670

     52   S     102             0.1831916    1.000000000000

 H         

     53   S     103             5.4471780    0.156284978695
     53   S     104             0.8245472    0.904690876670

     54   S     105             0.1831916    1.000000000000

 H         

     55   S     106             5.4471780    0.156284978695
     55   S     107             0.8245472    0.904690876670

     56   S     108             0.1831916    1.000000000000

 H         

     57   S     109             5.4471780    0.156284978695
     57   S     110             0.8245472    0.904690876670

     58   S     111             0.1831916    1.000000000000

 H         

     59   S     112             5.4471780    0.156284978695
     59   S     113             0.8245472    0.904690876670

     60   S     114             0.1831916    1.000000000000

 H         

     61   S     115             5.4471780    0.156284978695
     61   S     116             0.8245472    0.904690876670

     62   S     117             0.1831916    1.000000000000

 H         

     63   S     118             5.4471780    0.156284978695
     63   S     119             0.8245472    0.904690876670

     64   S     120             0.1831916    1.000000000000

 TOTAL NUMBER OF BASIS SET SHELLS             =   64
 NUMBER OF CARTESIAN GAUSSIAN BASIS FUNCTIONS =  160
 NUMBER OF ELECTRONS                          =  112
 CHARGE OF MOLECULE                           =    0
 SPIN MULTIPLICITY                            =    1
 NUMBER OF OCCUPIED ORBITALS (ALPHA)          =   56
 NUMBER OF OCCUPIED ORBITALS (BETA )          =   56
 TOTAL NUMBER OF ATOMS                        =   24
 THE NUCLEAR REPULSION ENERGY IS     1051.7160015777

 SELECTED MURRAY-HANDY-LAMING RADIAL GRID

 LEGACY BECKE'S FUZZY CELL METHOD

 SELECTED ORIGINAL BECKE'S PARTITION FUNCTION

     LEBEDEV GRID-BASED DFT OPTIONS
     ------------------------------
     DFTTYP=B3LYP   
     NRAD  =      96     NLEB  =     302
     NRAD0 =      24     NLEB0 =     110
     SWOFF =    5.00E-03 (PURE SCF -> DFT)
     SWITCH=    3.00E-04 (COARSE -> TIGHT GRID)
     THRESH=    0.00E+00 GTHRE=    1.00E+00

 GRIMME'S EMPIRICAL DISPERSION CORRECTION= F

     $CONTRL OPTIONS
     ---------------
 SCFTYP=RHF          RUNTYP=OPTIMIZE     EXETYP=RUN     
 MPLEVL=       0     CITYP =NONE         CCTYP =NONE         VBTYP =NONE    
 DFTTYP=B3LYP        TDDFT =NONE    
 MULT  =       1     ICHARG=       0     NZVAR =       0     COORD =UNIQUE  
 PP    =NONE         RELWFN=NONE         LOCAL =NONE         NUMGRD=       F
 ISPHER=      -1     NOSYM =       0     MAXIT =      60     UNITS =ANGS    
 PLTORB=       F     MOLPLT=       F     AIMPAC=       F     FRIEND=        
 NPRINT=       7     IREST =       0     GEOM  =INPUT   
 NORMF =       0     NORMP =       0     ITOL  =      20     ICUT  =       9
 INTTYP=BEST         GRDTYP=BEST         QMTTOL= 1.0E-06

     $SYSTEM OPTIONS
     ---------------
  REPLICATED MEMORY=    30000000 WORDS (ON EVERY NODE).
 DISTRIBUTED MEMDDI=        1000 MILLION WORDS IN AGGREGATE,
 MEMDDI DISTRIBUTED OVER   6 PROCESSORS IS   166666666 WORDS/PROCESSOR.
 TOTAL MEMORY REQUESTED ON EACH PROCESSOR=   196666666 WORDS.
 TIMLIM=      525600.00 MINUTES, OR     365.0 DAYS.
 PARALL= T  BALTYP=  DLB     KDIAG=    0  COREFL= F
 MXSEQ2=     300 MXSEQ3=     150  mem10=         0

          ----------------
          PROPERTIES INPUT
          ----------------

     MOMENTS            FIELD           POTENTIAL          DENSITY
 IEMOM =       1   IEFLD =       0   IEPOT =       0   IEDEN =       0
 WHERE =COMASS     WHERE =NUCLEI     WHERE =NUCLEI     WHERE =NUCLEI  
 OUTPUT=BOTH       OUTPUT=BOTH       OUTPUT=BOTH       OUTPUT=BOTH    
 IEMINT=       0   IEFINT=       0                     IEDINT=       0
                                                       MORB  =       0
          EXTRAPOLATION IN EFFECT
          DIIS IN EFFECT
 ORBITAL PRINTING OPTION: NPREO=     1   160     2     1

     -------------------------------
     INTEGRAL TRANSFORMATION OPTIONS
     -------------------------------
     NWORD  =            0
     CUTOFF = 1.0E-09     MPTRAN =       0
     DIRTRF =       T     AOINTS =DUP     

          ----------------------
          INTEGRAL INPUT OPTIONS
          ----------------------
 NOPK  =       1 NORDER=       0 SCHWRZ=       T

     ------------------------------------------
     THE POINT GROUP IS C1 , NAXIS= 0, ORDER= 1
     ------------------------------------------

     DIMENSIONS OF THE SYMMETRY SUBSPACES ARE
 A   =  160

 ..... DONE SETTING UP THE RUN .....
 CPU     0: STEP CPU TIME=     0.06 TOTAL CPU TIME=          0.1 (      0.0 MIN)
 TOTAL WALL CLOCK TIME=          0.3 SECONDS, CPU UTILIZATION IS    19.35%


          -----------------------------
          STATIONARY POINT LOCATION RUN
          -----------------------------

 OBTAINING INITIAL HESSIAN, HESS=GUESS   
 CARTESIAN COORDINATE OPTIMIZATION USING BADGER'S RULE FORCE CONSTANT GUESS

          PARAMETERS CONTROLLING GEOMETRY SEARCH ARE
          METHOD =QA                  UPHESS =BFGS    
          NNEG   =         0          NFRZ   =         0
          NSTEP  =       999          IFOLOW =         1
          HESS   =GUESS               RESTAR =         F
          IHREP  =         0          HSSEND =         F
          NPRT   =         0          NPUN   =         0
          OPTTOL = 1.000E-04          RMIN   = 1.500E-03
          RMAX   = 1.000E-01          RLIM   = 7.000E-02
          DXMAX  = 3.000E-01          PURIFY =         F
          MOVIE  =         F          TRUPD  =         T
          TRMAX  = 5.000E-01          TRMIN  = 5.000E-02
          ITBMAT =         5          STPT   =         F
          STSTEP = 1.000E-02          PROJCT=          T

 BEGINNING GEOMETRY SEARCH POINT NSERCH=   0 ...

 COORDINATES OF ALL ATOMS ARE (ANGS)
   ATOM   CHARGE       X              Y              Z
 ------------------------------------------------------------
 C           6.0   0.2069000000  -1.7698000000   0.1312000000
 C           6.0   3.2448000000   0.1692000000  -0.1768000000
 C           6.0   3.7236000000  -1.0717000000  -0.0252000000
 C           6.0   1.1288000000   3.0798000000   0.7696000000
 C           6.0   0.7315000000   0.9633000000  -0.2324000000
 O           8.0  -4.2917000000  -0.9071000000   0.1047000000
 O           8.0   0.9843000000   2.2842000000  -0.4086000000
 C           6.0  -3.1589000000  -0.4666000000   0.0265000000
 C           6.0  -0.5872000000   0.4990000000  -0.1476000000
 C           6.0  -0.8438000000  -0.8768000000   0.0353000000
 O           8.0  -2.1214000000  -1.3133000000   0.1161000000
 C           6.0  -1.7153000000   1.4254000000  -0.2458000000
 C           6.0  -2.9731000000   0.9180000000  -0.1562000000
 C           6.0   1.7810000000   0.0508000000  -0.1340000000
 C           6.0   1.5190000000  -1.3195000000   0.0482000000
 O           8.0   2.7111000000  -1.9477000000   0.1072000000
 H           1.0  -1.5530000000   2.4840000000  -0.3855000000
 H           1.0   0.0074000000  -2.8214000000   0.2756000000
 H           1.0  -3.8278000000   1.5746000000  -0.2247000000
 H           1.0   3.8189000000   1.0749000000  -0.3051000000
 H           1.0   0.2102000000   3.0329000000   1.3546000000
 H           1.0   1.9587000000   2.6997000000   1.3653000000
 H           1.0   1.3276000000   4.1138000000   0.4877000000
 H           1.0   4.7716000000  -1.3322000000  -0.0114000000

          ********************
          1 ELECTRON INTEGRALS
          ********************
 ...... END OF ONE-ELECTRON INTEGRALS ......
 CPU     0: STEP CPU TIME=     0.03 TOTAL CPU TIME=          0.1 (      0.0 MIN)
 TOTAL WALL CLOCK TIME=          0.5 SECONDS, CPU UTILIZATION IS    16.98%

          -------------
          GUESS OPTIONS
          -------------
          GUESS =HUCKEL            NORB  =       0          NORDER=       0
          MIX   =       F          PRTMO =       F          PUNMO =       F
          TOLZ  = 1.0E-08          TOLE  = 1.0E-05
          SYMDEN=       F          PURIFY=       F

 INITIAL GUESS ORBITALS GENERATED BY HUCKEL   ROUTINE.
 HUCKEL GUESS REQUIRES    235000 WORDS.

 SYMMETRIES FOR INITIAL GUESS ORBITALS FOLLOW.   BOTH SET(S).
    56 ORBITALS ARE OCCUPIED (   16 CORE ORBITALS).
    17=A       18=A       19=A       20=A       21=A       22=A       23=A   
    24=A       25=A       26=A       27=A       28=A       29=A       30=A   
    31=A       32=A       33=A       34=A       35=A       36=A       37=A   
    38=A       39=A       40=A       41=A       42=A       43=A       44=A   
    45=A       46=A       47=A       48=A       49=A       50=A       51=A   
    52=A       53=A       54=A       55=A       56=A       57=A       58=A   
    59=A       60=A       61=A       62=A       63=A       64=A       65=A   
    66=A   
 ...... END OF INITIAL ORBITAL SELECTION ......
 CPU     0: STEP CPU TIME=     0.03 TOTAL CPU TIME=          0.1 (      0.0 MIN)
 TOTAL WALL CLOCK TIME=          0.6 SECONDS, CPU UTILIZATION IS    19.67%

                    ----------------------
                    AO INTEGRAL TECHNOLOGY
                    ----------------------
     S,P,L SHELL ROTATED AXIS INTEGRALS, REPROGRAMMED BY
        KAZUYA ISHIMURA (IMS) AND JOSE SIERRA (SYNSTAR).
     S,P,D,L SHELL ROTATED AXIS INTEGRALS PROGRAMMED BY
        KAZUYA ISHIMURA (INSTITUTE FOR MOLECULAR SCIENCE).
     S,P,D,F,G SHELL TO TOTAL QUARTET ANGULAR MOMENTUM SUM 5,
        ERIC PROGRAM BY GRAHAM FLETCHER (ELORET AND NASA ADVANCED
        SUPERCOMPUTING DIVISION, AMES RESEARCH CENTER).
     S,P,D,F,G,L SHELL GENERAL RYS QUADRATURE PROGRAMMED BY
        MICHEL DUPUIS (PACIFIC NORTHWEST NATIONAL LABORATORY).

          --------------------
          2 ELECTRON INTEGRALS
          --------------------

 DIRECT SCF METHOD SKIPS INTEGRAL STORAGE ON DISK.
 DIRECT TRANSFORMATION SKIPS AO INTEGRAL STORAGE ON DISK.
  ...... END OF TWO-ELECTRON INTEGRALS .....
 CPU     0: STEP CPU TIME=     0.01 TOTAL CPU TIME=          0.1 (      0.0 MIN)
 TOTAL WALL CLOCK TIME=          0.6 SECONDS, CPU UTILIZATION IS    20.97%

          --------------------------
             R-B3LYP SCF CALCULATION
          --------------------------

     NUCLEAR ENERGY =      1051.7160015777
     MAXIT =   60     NPUNCH=    2
     EXTRAP=T  DAMP=F  SHIFT=F  RSTRCT=F  DIIS=T  DEM=F  SOSCF=F
         DENSITY MATRIX CONVERGENCE THRESHOLD=  2.00E-05
     COARSE -> FINE DFT GRID SWITCH THRESHOLD=  3.00E-04 (SWITCH IN $DFT)
                   HF -> DFT SWITCH THRESHOLD=  5.00E-03 (SWOFF IN $DFT)
     MEMORY REQUIRED FOR RHF ITERS=   1018353 WORDS.

 DIRECT SCF CALCULATION, SCHWRZ=T   FDIFF=T,  DIRTHR=  0.00E+00 NITDIR=10
 SCHWARZ INEQUALITY OVERHEAD:     11436 INTEGRALS, T=        0.00

 DFT CODE IS SWITCHING FROM THE FINE GRID NRAD= 96,  NLEB=  302
                      TO THE COARSE GRID NRAD0= 24, NLEB0=  110

     EXCHANGE FUNCTIONAL   =B88&HFX   
     CORRELATION FUNCTIONAL=LYP88&VWN5
     DFT THRESHOLD         =.575E-08
     GRID CHANGE THRESHOLD =.300E-03
 FOR AN EULER-MACLAURIN QUADRATURE USING  96 RADIAL POINTS:
 SMALLEST GAUSSIAN PRIMITIVE EXPONENT=        0.1831915800 OF TYPE -S-
 ON ATOM NUMBER  17 HAS RADIAL NORMALIZATION=  1.000000
  LARGEST GAUSSIAN PRIMITIVE EXPONENT=      322.0370000000 OF TYPE -S-
 ON ATOM NUMBER   6 HAS RADIAL NORMALIZATION=  1.000000
 DFT IS SWITCHED OFF, PERFORMING PURE SCF UNTIL SWOFF THRESHOLD IS REACHED.

                                                                                   NONZERO     BLOCKS
 ITER EX DEM     TOTAL ENERGY        E CHANGE  DENSITY CHANGE    DIIS ERROR      INTEGRALS    SKIPPED
   1  0  0     -752.3710814418  -752.3710814418   0.887248558   0.570954716       37277026    1387589
          * * *   INITIATING DIIS PROCEDURE   * * *
   2  1  0     -754.0620965126    -1.6910150708   0.189630297   0.163499902       37244675    1402064
   3  2  0     -754.1651427029    -0.1030461903   0.150189002   0.147178037       37069790    1441648
   4  3  0     -754.2541065945    -0.0889638916   0.030424905   0.012968400       36668746    1483134
   5  4  0     -754.2567686662    -0.0026620718   0.005398375   0.003391592       36120502    1517139
   6  5  0     -754.2570281034    -0.0002594372   0.002065018   0.001579381       34978650    1564033
 CONVERGED TO SWOFF, SO DFT CALCULATION IS NOW SWITCHED ON.
          * * *   INITIATING DIIS PROCEDURE   * * *
   7  6  0     -758.2335275856    -3.9764994822   0.208928794   0.063410267       37293238    1377300
   8  7  0     -758.2949777198    -0.0614501342   0.120285949   0.034568430       37125113    1434257
   9  8  0     -758.2889252607     0.0060524591   0.091965421   0.056705948       36879085    1465514
  10  9  0     -758.3105481059    -0.0216228452   0.017528483   0.017100721       36630421    1488017
  11 10  0     -758.3122927398    -0.0017446339   0.004748935   0.006558360       35711455    1537135
  12 11  0     -758.3124876170    -0.0001948772   0.001103701   0.000472923       34380516    1584181
  13 12  0     -758.3124907738    -0.0000031568   0.000445139   0.000275747       32551163    1632831
  14 13  0     -758.3124921830    -0.0000014092   0.000179044   0.000086195       31163307    1667578
 DFT CODE IS SWITCHING BACK TO THE FINE GRID
          * * *   INITIATING DIIS PROCEDURE   * * *
  15 14  0     -758.3176210102    -0.0051288272   0.003669895   0.002071515       37300640    1372373
  16 15  0     -758.3176654513    -0.0000444410   0.002556387   0.001618293       34659834    1575316
  17 16  0     -758.3176697233    -0.0000042721   0.001571991   0.001492874       33429132    1611766
  18 17  0     -758.3176783724    -0.0000086491   0.000300099   0.000226210       32479079    1638513
  19 18  0     -758.3176788891    -0.0000005167   0.000139330   0.000074267       30295847    1690489
  20 19  0     -758.3176789182    -0.0000000291   0.000041056   0.000029085       27972632    1738123
  21 20  0     -758.3176789273    -0.0000000090   0.000009894   0.000010345       26305675    1771808
  22 21  0     -758.3176789280    -0.0000000007   0.000005795   0.000003839       24009979    1810763

          -----------------
          DENSITY CONVERGED
          -----------------
     TIME TO FORM FOCK OPERATORS=      36.1 SECONDS (       1.6 SEC/ITER)
     FOCK TIME ON FIRST ITERATION=       0.3, LAST ITERATION=       3.9
     TIME TO SOLVE SCF EQUATIONS=       0.3 SECONDS (       0.0 SEC/ITER)

 FINAL R-B3LYP ENERGY IS     -758.3176789280 AFTER  22 ITERATIONS
 DFT EXCHANGE + CORRELATION ENERGY =       -82.3162430450
 TOTAL ELECTRON NUMBER             =       111.9992397414

          ------------
          EIGENVECTORS
          ------------

                      1          2          3          4          5
                  -19.1281   -19.1165   -19.0746   -19.0028   -10.2479
                     A          A          A          A          A   
    1  C  1  S   -0.000406  -0.000309  -0.000223  -0.000192  -0.001404
    2  C  1  S   -0.001916  -0.001540  -0.000941  -0.001061  -0.002286
    3  C  1  X    0.001135  -0.000833  -0.000057  -0.000168  -0.000540
    4  C  1  Y   -0.000690  -0.000122   0.000068  -0.000111  -0.000043
    5  C  1  Z    0.000072   0.000038   0.000018   0.000019   0.000016
    6  C  1  S    0.035103   0.030850   0.021654   0.013267   0.031791
    7  C  1  X    0.004385   0.008386   0.004949  -0.003967  -0.012916
    8  C  1  Y    0.023624   0.021921   0.013080   0.007812   0.015024
    9  C  1  Z   -0.003169  -0.003041  -0.001981  -0.000946  -0.001706
   10  C  2  S    0.000168  -0.000070  -0.000313   0.000000  -0.000072
   11  C  2  S    0.000843  -0.000276  -0.001369  -0.000012  -0.000114
   12  C  2  X   -0.001444  -0.000284  -0.000912   0.000042   0.000019
   13  C  2  Y    0.000510   0.000078   0.000348  -0.000051  -0.000066
   14  C  2  Z   -0.000038  -0.000013  -0.000060   0.000005   0.000008
   15  C  2  S   -0.000498   0.008317   0.024860   0.000148   0.001708
   16  C  2  X    0.003290  -0.003430  -0.012052  -0.000368  -0.001453
   17  C  2  Y    0.006243  -0.001951  -0.005625   0.000610   0.001397
   18  C  2  Z   -0.000879   0.000349   0.001194  -0.000069  -0.000160
   19  C  3  S   -0.000258   0.000064   0.000072   0.000002   0.000167
   20  C  3  S    0.000524   0.000374   0.000215   0.000014   0.000109
   21  C  3  X   -0.001968  -0.000122   0.000034  -0.000022  -0.000066
   22  C  3  Y   -0.001876  -0.000092  -0.000201   0.000027   0.000088
   23  C  3  Z    0.000280   0.000016   0.000024  -0.000003  -0.000010
   24  C  3  S    0.013351  -0.003108  -0.006851   0.000216   0.000060
   25  C  3  X   -0.014416   0.002879   0.005923   0.000272   0.001219
   26  C  3  Y   -0.001474  -0.000737  -0.001020   0.000310   0.000644
   27  C  3  Z    0.000465   0.000030  -0.000028  -0.000046  -0.000107
   28  C  4  S   -0.000020   0.000028  -0.000313   0.000003  -0.000156
   29  C  4  S   -0.000127   0.000163  -0.000072   0.000027  -0.000123
   30  C  4  X    0.000007   0.000022  -0.000408  -0.000046  -0.000015
   31  C  4  Y    0.000070   0.000047  -0.001988   0.000013   0.000054
   32  C  4  Z   -0.000060  -0.000050  -0.001509  -0.000031  -0.000045
   33  C  4  S    0.000361  -0.000793   0.007776  -0.000005   0.000442
   34  C  4  X   -0.000153   0.000180   0.000316   0.000087   0.000043
   35  C  4  Y   -0.000278   0.000361   0.001218  -0.000050  -0.000364
   36  C  4  Z    0.000106   0.000408  -0.003761   0.000115   0.000065
   37  C  5  S    0.000215   0.000340   0.000277  -0.000019  -0.001124
   38  C  5  S    0.000795   0.001570   0.003677  -0.000221  -0.000095
   39  C  5  X   -0.000014   0.000693  -0.000024   0.000073   0.000152
   40  C  5  Y    0.000732   0.000322  -0.000011   0.000193   0.000371
   41  C  5  Z   -0.000071  -0.000123  -0.000089  -0.000028  -0.000019
   42  C  5  S   -0.021742  -0.032582  -0.026249  -0.000744  -0.010845
   43  C  5  X   -0.009584   0.008901   0.006581   0.000028   0.008860
   44  C  5  Y    0.008660   0.016110   0.060088   0.000128  -0.000440
   45  C  5  Z   -0.001016  -0.002104  -0.006400  -0.000013  -0.000204
   46  O  6  S    0.000269  -0.001714  -0.000042   0.982925   0.000490
   47  O  6  S    0.000178  -0.000978  -0.000013   0.108790   0.002530
   48  O  6  X   -0.000005   0.000152  -0.000043   0.004474  -0.000572
   49  O  6  Y    0.000032  -0.000393   0.000116   0.001637  -0.000889
   50  O  6  Z   -0.000004   0.000048  -0.000011  -0.000294   0.000126
   51  O  6  S   -0.000710   0.005065  -0.000036  -0.069825  -0.008816
   52  O  6  X   -0.000128  -0.000637   0.000187  -0.017592  -0.008347
   53  O  6  Y   -0.000209   0.003163  -0.000710  -0.006983   0.001506
   54  O  6  Z    0.000030  -0.000396   0.000071   0.001230  -0.000039
   55  O  7  S   -0.000091   0.002808   0.983001   0.000044  -0.000020
   56  O  7  S   -0.000047   0.000876   0.109700  -0.000011  -0.000156
   57  O  7  X   -0.000126   0.000138  -0.000608  -0.000062   0.000054
   58  O  7  Y    0.000080  -0.000107  -0.002541   0.000030   0.000035
   59  O  7  Z    0.000009  -0.000081   0.002662  -0.000004   0.000023
   60  O  7  S    0.000104  -0.003474  -0.071442   0.000103   0.000873
   61  O  7  X    0.001004  -0.000618   0.003138   0.000198  -0.000698
   62  O  7  Y   -0.000787   0.001131   0.013512  -0.000097  -0.000490
   63  O  7  Z   -0.000017   0.000295  -0.006139   0.000024  -0.000075
   64  C  8  S    0.000031  -0.000233  -0.000052   0.000315   0.985355
   65  C  8  S    0.000350   0.000667  -0.000298   0.002324   0.107809
   66  C  8  X    0.000190   0.001888  -0.000063  -0.000934   0.001296
   67  C  8  Y   -0.000062  -0.000838   0.000213  -0.001029  -0.000603
   68  C  8  Z    0.000005   0.000072  -0.000033   0.000150   0.000055
   69  C  8  S    0.000625   0.014218   0.003908   0.020413  -0.061319
   70  C  8  X   -0.000965   0.018984  -0.000222  -0.037738  -0.012378
   71  C  8  Y    0.000327  -0.007234   0.003648  -0.010077  -0.029922
   72  C  8  Z   -0.000024   0.000579  -0.000408   0.002017   0.004103
   73  C  9  S   -0.000070   0.000012  -0.000185  -0.000013   0.000022
   74  C  9  S   -0.000320   0.000103  -0.000797  -0.000195   0.000509
   75  C  9  X   -0.000486  -0.001779  -0.000775   0.000293  -0.000204
   76  C  9  Y    0.000393   0.000210   0.001721   0.000409   0.000005
   77  C  9  Z   -0.000045   0.000011  -0.000145  -0.000060  -0.000000
   78  C  9  S    0.003885   0.010451   0.024213  -0.002549  -0.010400
   79  C  9  X    0.006317   0.039251   0.030318   0.002743   0.017901
   80  C  9  Y   -0.009770  -0.009097  -0.032880  -0.001427   0.014840
   81  C  9  Z    0.001171   0.000371   0.002973   0.000133  -0.002221
   82  C 10  S    0.000259   0.000068   0.000390  -0.000082  -0.008636
   83  C 10  S    0.001155   0.002684   0.001974  -0.001162  -0.002801
   84  C 10  X   -0.000460  -0.000797  -0.000290   0.002100   0.003210
   85  C 10  Y    0.000276  -0.000240  -0.000802  -0.000431  -0.001503
   86  C 10  Z   -0.000027   0.000045   0.000094   0.000016   0.000134
   87  C 10  S   -0.022335  -0.004412  -0.030264  -0.006374  -0.003432
   88  C 10  X   -0.012624  -0.043049  -0.017006  -0.012990  -0.025782
   89  C 10  Y   -0.000404  -0.004048  -0.010492   0.007485   0.031100
   90  C 10  Z    0.000291   0.001369   0.001951  -0.000721  -0.003548
   91  O 11  S    0.003328   0.983178  -0.002654   0.001557   0.000400
   92  O 11  S    0.000587   0.111391   0.000303  -0.000472   0.002690
   93  O 11  X   -0.000114   0.000947   0.000253  -0.000502  -0.001550
   94  O 11  Y    0.000103   0.003814  -0.000198  -0.000575   0.000582
   95  O 11  Z   -0.000011  -0.000507   0.000036   0.000084  -0.000046
   96  O 11  S   -0.001856  -0.077778  -0.003732   0.003135  -0.006453
   97  O 11  X    0.000137  -0.004782  -0.002087   0.002118   0.007980
   98  O 11  Y   -0.000598  -0.013687   0.000601   0.003750  -0.004744
   99  O 11  Z    0.000074   0.001851  -0.000113  -0.000523   0.000464
  100  C 12  S   -0.000043  -0.000360  -0.000236  -0.000026  -0.001753
  101  C 12  S   -0.000147  -0.001488  -0.000911  -0.000496  -0.001626
  102  C 12  X    0.000294   0.000303   0.001120   0.000899   0.001403
  103  C 12  Y   -0.000096  -0.000705  -0.000059   0.000735   0.000557
  104  C 12  Z    0.000003   0.000076  -0.000059  -0.000117  -0.000099
  105  C 12  S    0.005792   0.034290   0.023146  -0.009608   0.007101
  106  C 12  X    0.002068  -0.001663   0.006519   0.005491  -0.006586
  107  C 12  Y   -0.002051  -0.016098  -0.011949   0.000041  -0.005257
  108  C 12  Z    0.000231   0.002151   0.001698  -0.000097   0.000795
  109  C 13  S    0.000038   0.000338   0.000102  -0.000085  -0.005788
  110  C 13  S    0.000254   0.001771   0.000518  -0.000796  -0.004400
  111  C 13  X    0.000020   0.000589  -0.000288  -0.000722   0.000012
  112  C 13  Y   -0.000189  -0.000353  -0.000416   0.000273   0.001699
  113  C 13  Z    0.000025   0.000037   0.000065  -0.000020  -0.000220
  114  C 13  S   -0.001036  -0.014263  -0.007219   0.008235   0.029582
  115  C 13  X   -0.000637  -0.020504  -0.002740   0.019386  -0.003498
  116  C 13  Y    0.001330   0.004519   0.005335  -0.002155  -0.022776
  117  C 13  Z   -0.000164  -0.000210  -0.000737  -0.000096   0.003017
  118  C 14  S   -0.000128  -0.000123  -0.000182  -0.000044  -0.000371
  119  C 14  S   -0.000808  -0.000502  -0.000810  -0.000237  -0.000511
  120  C 14  X    0.001156   0.000371   0.001258   0.000062   0.000221
  121  C 14  Y   -0.000005   0.000271   0.000780  -0.000051   0.000019
  122  C 14  Z   -0.000022  -0.000042  -0.000065   0.000007  -0.000009
  123  C 14  S    0.013665   0.010459   0.024309   0.002824   0.004370
  124  C 14  X   -0.021760  -0.015084  -0.042123  -0.001198  -0.003260
  125  C 14  Y    0.012578  -0.001947  -0.006888  -0.001656  -0.007078
  126  C 14  Z   -0.001197   0.000485   0.000993   0.000231   0.001012
  127  C 15  S    0.000025   0.000245   0.000319   0.000053   0.001828
  128  C 15  S    0.002557   0.001075   0.001475   0.000269   0.001036
  129  C 15  X    0.000906   0.000377  -0.000170   0.000158   0.000097
  130  C 15  Y   -0.000628   0.000011  -0.000791   0.000188   0.000353
  131  C 15  Z    0.000063  -0.000009   0.000094  -0.000028  -0.000048
  132  C 15  S   -0.000299  -0.021581  -0.025055  -0.003786  -0.008318
  133  C 15  X    0.043610   0.014148   0.015474   0.002155   0.004139
  134  C 15  Y   -0.008379  -0.003601  -0.008936  -0.003351  -0.009191
  135  C 15  Z    0.000272   0.000222   0.001111   0.000398   0.001104
  136  O 16  S    0.983078  -0.003267   0.000097  -0.000234   0.000046
  137  O 16  S    0.110431  -0.000149   0.000026   0.000140   0.000374
  138  O 16  X   -0.001021   0.000015  -0.000226  -0.000041  -0.000140
  139  O 16  Y    0.004182  -0.000071  -0.000271  -0.000027  -0.000073
  140  O 16  Z   -0.000519   0.000009   0.000043   0.000004   0.000012
  141  O 16  S   -0.073474  -0.001596  -0.001093  -0.000951  -0.002121
  142  O 16  X    0.006437   0.000700   0.002283   0.000504   0.001462
  143  O 16  Y   -0.014758   0.000160   0.001447   0.000108   0.000412
  144  O 16  Z    0.001786  -0.000035  -0.000260  -0.000024  -0.000080
  145  H 17  S   -0.000029   0.000224   0.000049   0.000259   0.000177
  146  H 17  S   -0.000044   0.003080   0.002262   0.001040   0.003191
  147  H 18  S    0.001373   0.001476   0.000688   0.000067  -0.000199
  148  H 18  S    0.006737   0.006397   0.002754   0.001851   0.002559
  149  H 19  S   -0.000084  -0.001768  -0.000307   0.001768  -0.000884
  150  H 19  S   -0.000444  -0.005890  -0.001156   0.006273   0.002744
  151  H 20  S   -0.000955   0.000028   0.000070  -0.000059  -0.000155
  152  H 20  S   -0.002892   0.000515   0.002035  -0.000140  -0.000372
  153  H 21  S   -0.000062   0.000081  -0.000517   0.000025  -0.000005
  154  H 21  S   -0.000278   0.000010  -0.000928  -0.000079  -0.000103
  155  H 22  S   -0.000020   0.000042  -0.000540  -0.000009  -0.000059
  156  H 22  S   -0.000055  -0.000177  -0.000848  -0.000071  -0.000217
  157  H 23  S   -0.000020   0.000023  -0.000937   0.000008   0.000004
  158  H 23  S    0.000177   0.000021  -0.002794   0.000049   0.000136
  159  H 24  S    0.000812  -0.000185  -0.000402  -0.000032  -0.000114
  160  H 24  S    0.004297  -0.000878  -0.001398  -0.000092  -0.000415

                      6          7          8          9         10
                  -10.2202   -10.2111   -10.2082   -10.1987   -10.1888
                     A          A          A          A          A   
    1  C  1  S   -0.009778  -0.011156  -0.000733  -0.001880  -0.000127
    2  C  1  S   -0.006999  -0.007187  -0.000976  -0.002002  -0.000196
    3  C  1  X    0.000867  -0.001348  -0.000089   0.000376  -0.000045
    4  C  1  Y   -0.001883  -0.001438  -0.000015  -0.000063   0.000006
    5  C  1  Z    0.000237   0.000219  -0.000033   0.000002   0.000101
    6  C  1  S    0.060580   0.060741   0.021714   0.027507   0.004756
    7  C  1  X    0.003723   0.014731   0.003374   0.016433   0.001246
    8  C  1  Y    0.038027   0.033772   0.011582   0.008251   0.003233
    9  C  1  Z   -0.005062  -0.004702  -0.001308  -0.001385  -0.001195
   10  C  2  S   -0.000244  -0.000599  -0.000791  -0.008269   0.000235
   11  C  2  S   -0.000497  -0.000771  -0.000759  -0.005076  -0.000229
   12  C  2  X   -0.000342  -0.000366  -0.000450  -0.001776  -0.000306
   13  C  2  Y    0.000074   0.000300   0.000027   0.002534   0.000177
   14  C  2  Z   -0.000014  -0.000035   0.000038  -0.000287   0.000060
   15  C  2  S    0.012357   0.005780   0.018563   0.039206   0.006786
   16  C  2  X   -0.005394  -0.008463  -0.008782   0.005759  -0.003302
   17  C  2  Y   -0.003420   0.006525  -0.006426  -0.018827  -0.001120
   18  C  2  Z    0.000599  -0.000663   0.000673   0.002307   0.000595
   19  C  3  S    0.001790  -0.004628  -0.004445   0.985502   0.000618
   20  C  3  S    0.000614  -0.001954  -0.000878   0.107504   0.000101
   21  C  3  X   -0.000180   0.000478   0.000236  -0.002753  -0.000006
   22  C  3  Y   -0.000230  -0.000482  -0.000227  -0.000520  -0.000042
   23  C  3  Z    0.000035   0.000054   0.000030   0.000124  -0.000037
   24  C  3  S   -0.004357   0.006797  -0.004214  -0.077143  -0.001627
   25  C  3  X    0.003660  -0.006762   0.001368   0.010329   0.001715
   26  C  3  Y   -0.001001   0.007510  -0.000346  -0.016832  -0.000198
   27  C  3  Z    0.000045  -0.000849   0.000073   0.001993   0.000070
   28  C  4  S    0.000674   0.000110  -0.007566  -0.000639   0.985964
   29  C  4  S    0.000411   0.000148  -0.002608  -0.000129   0.109814
   30  C  4  X    0.000007  -0.000016   0.000260  -0.000044  -0.000222
   31  C  4  Y    0.000082   0.000112   0.001458   0.000044  -0.000917
   32  C  4  Z   -0.000024  -0.000003  -0.000568   0.000033   0.000047
   33  C  4  S   -0.001755  -0.000995   0.003590   0.000106  -0.078535
   34  C  4  X    0.000367  -0.000031  -0.001491   0.000065   0.000565
   35  C  4  Y    0.000905   0.000534  -0.007917  -0.000175   0.002339
   36  C  4  Z    0.000586   0.000257   0.003087  -0.000231  -0.003232
   37  C  5  S    0.001303  -0.004744   0.986343   0.004374   0.007068
   38  C  5  S    0.001676   0.000738   0.113250   0.000337  -0.000864
   39  C  5  X    0.001048  -0.000694  -0.000060  -0.000099  -0.000247
   40  C  5  Y    0.000488   0.000890  -0.000187   0.000249  -0.001350
   41  C  5  Z   -0.000223  -0.000181   0.000768  -0.000005  -0.001017
   42  C  5  S   -0.036048  -0.032718  -0.131630  -0.008066  -0.000868
   43  C  5  X    0.000259   0.000809   0.005472  -0.004718   0.002553
   44  C  5  Y    0.026723   0.020930   0.051127   0.002684   0.020646
   45  C  5  Z   -0.003136  -0.002552  -0.009445  -0.000330   0.003360
   46  O  6  S   -0.000155   0.000013  -0.000019   0.000003   0.000004
   47  O  6  S   -0.001352   0.000108  -0.000191   0.000022   0.000032
   48  O  6  X   -0.000091  -0.000019  -0.000058  -0.000010  -0.000010
   49  O  6  Y    0.000147   0.000043   0.000047   0.000019   0.000037
   50  O  6  Z   -0.000017  -0.000005  -0.000010  -0.000002   0.000005
   51  O  6  S    0.006496  -0.000559   0.000732  -0.000179  -0.000218
   52  O  6  X    0.001943  -0.000055   0.000355   0.000034  -0.000003
   53  O  6  Y   -0.000876  -0.000255  -0.000293  -0.000154  -0.000280
   54  O  6  Z    0.000073   0.000032   0.000056   0.000020  -0.000008
   55  O  7  S    0.000108   0.000060   0.000493  -0.000002   0.000186
   56  O  7  S    0.000804   0.000413   0.003835  -0.000037   0.001766
   57  O  7  X    0.000117  -0.000216  -0.000228  -0.000049  -0.000098
   58  O  7  Y   -0.000045   0.000100  -0.000880   0.000046  -0.000305
   59  O  7  Z   -0.000178  -0.000120   0.000293   0.000014   0.000568
   60  O  7  S   -0.005890  -0.003816  -0.011530   0.000124  -0.002353
   61  O  7  X    0.000057   0.001207   0.001614   0.000263   0.001340
   62  O  7  Y    0.001827   0.000532   0.006129  -0.000355   0.006089
   63  O  7  Z    0.000625   0.000414  -0.002048  -0.000068   0.000252
   64  C  8  S    0.008168  -0.001661   0.001114  -0.000169   0.000122
   65  C  8  S   -0.001433   0.000218  -0.000300   0.000021  -0.000125
   66  C  8  X   -0.000572   0.000262  -0.000179   0.000060  -0.000010
   67  C  8  Y    0.000102  -0.000154   0.000005  -0.000032   0.000102
   68  C  8  Z   -0.000004   0.000014   0.000015   0.000004  -0.000037
   69  C  8  S    0.008204   0.001204   0.001423   0.000189   0.002125
   70  C  8  X    0.007522  -0.000709   0.000454  -0.000669  -0.000264
   71  C  8  Y    0.012192   0.000684   0.002275   0.000727   0.001536
   72  C  8  Z   -0.001703  -0.000066  -0.000386  -0.000085  -0.000076
   73  C  9  S   -0.010054  -0.001081  -0.012514  -0.000888   0.000551
   74  C  9  S   -0.005720  -0.001027  -0.006282  -0.000592   0.000205
   75  C  9  X   -0.001119  -0.000629  -0.002913  -0.000289  -0.000261
   76  C  9  Y    0.002842   0.000653   0.000262   0.000184   0.000684
   77  C  9  Z   -0.000340  -0.000069  -0.000064  -0.000022   0.000199
   78  C  9  S    0.049587   0.016167   0.049714   0.005481   0.004855
   79  C  9  X    0.031192   0.016733   0.044798   0.001459   0.008357
   80  C  9  Y   -0.045763  -0.011766  -0.014834  -0.007851  -0.012329
   81  C  9  Z    0.005202   0.001137   0.002174   0.001022  -0.001239
   82  C 10  S    0.986106   0.002774  -0.000744  -0.001630  -0.000509
   83  C 10  S    0.111738   0.001385   0.001033   0.000413   0.000444
   84  C 10  X   -0.000013  -0.000888  -0.000428  -0.000052  -0.000130
   85  C 10  Y    0.000455   0.000462  -0.001074   0.000377  -0.000266
   86  C 10  Z   -0.000054  -0.000044   0.000161  -0.000048  -0.000029
   87  C 10  S   -0.114820  -0.029760  -0.022458  -0.007139  -0.009281
   88  C 10  X   -0.049767  -0.018797  -0.017229  -0.005735  -0.004263
   89  C 10  Y   -0.023910  -0.001225  -0.004812  -0.007651  -0.003611
   90  C 10  Z    0.004081   0.000545   0.000571   0.001091   0.001595
   91  O 11  S    0.000532   0.000045   0.000064   0.000036   0.000013
   92  O 11  S    0.003926   0.000290   0.000427   0.000262   0.000097
   93  O 11  X    0.001525  -0.000263   0.000109   0.000024   0.000083
   94  O 11  Y    0.000320   0.000183  -0.000211   0.000007  -0.000055
   95  O 11  Z   -0.000068  -0.000017   0.000007  -0.000002   0.000051
   96  O 11  S   -0.013667  -0.002925  -0.003849  -0.001977  -0.000753
   97  O 11  X   -0.010672   0.000453  -0.001549  -0.000909  -0.000593
   98  O 11  Y   -0.003229  -0.001141   0.000418   0.000131   0.000244
   99  O 11  Z    0.000607   0.000130   0.000073   0.000003  -0.000268
  100  C 12  S   -0.001953  -0.000229  -0.001834  -0.000060   0.001976
  101  C 12  S   -0.001844  -0.000377  -0.001248  -0.000070   0.000300
  102  C 12  X    0.000073   0.000406   0.000242   0.000020   0.000357
  103  C 12  Y    0.000179  -0.000051  -0.000064  -0.000049   0.000194
  104  C 12  Z   -0.000044  -0.000013   0.000044   0.000009   0.000062
  105  C 12  S    0.026329   0.009627   0.016957   0.001800   0.006164
  106  C 12  X    0.010489   0.001917   0.003366   0.002485   0.003270
  107  C 12  Y   -0.011568  -0.004741  -0.009983   0.000048  -0.004984
  108  C 12  Z    0.001375   0.000623   0.000872  -0.000069   0.000854
  109  C 13  S    0.000721   0.000349  -0.000514   0.000037   0.000111
  110  C 13  S    0.001221   0.000310  -0.000300   0.000005   0.000128
  111  C 13  X    0.000087  -0.000096  -0.000467   0.000008  -0.000069
  112  C 13  Y    0.000040  -0.000229  -0.000136  -0.000037  -0.000209
  113  C 13  Z   -0.000002   0.000034   0.000023   0.000004   0.000002
  114  C 13  S   -0.013463  -0.002838  -0.004423   0.000704  -0.001801
  115  C 13  X   -0.005593  -0.001329  -0.000604   0.000822  -0.000623
  116  C 13  Y    0.011125   0.001667   0.001920   0.000908   0.003017
  117  C 13  Z   -0.001369  -0.000212  -0.000120  -0.000127  -0.000388
  118  C 14  S   -0.000812  -0.010500  -0.010802  -0.000724   0.000304
  119  C 14  S   -0.001060  -0.006086  -0.006136  -0.000298   0.000081
  120  C 14  X    0.000732   0.001918   0.002972  -0.000166   0.000368
  121  C 14  Y    0.000259   0.001890  -0.001345   0.000183   0.000377
  122  C 14  Z   -0.000041  -0.000276   0.000043  -0.000015   0.000243
  123  C 14  S    0.020118   0.051173   0.051125  -0.011534   0.006238
  124  C 14  X   -0.024766  -0.037810  -0.050010  -0.009243  -0.011162
  125  C 14  Y    0.001466  -0.017309   0.012212   0.015016  -0.004690
  126  C 14  Z    0.000155   0.002883   0.000421  -0.001760  -0.001939
  127  C 15  S   -0.002228   0.986006   0.005229   0.004080   0.000049
  128  C 15  S    0.000760   0.111191   0.001491  -0.000932   0.000329
  129  C 15  X    0.000939   0.000197   0.000115  -0.001993  -0.000013
  130  C 15  Y    0.000123   0.000691  -0.001032  -0.000929  -0.000277
  131  C 15  Z   -0.000035  -0.000085   0.000138   0.000156  -0.000017
  132  C 15  S   -0.029134  -0.107895  -0.019234  -0.000397  -0.007710
  133  C 15  X    0.021587   0.039694   0.015031   0.034472   0.003086
  134  C 15  Y   -0.005930  -0.028915  -0.006489   0.015902  -0.002827
  135  C 15  Z    0.000408   0.003020   0.000224  -0.002700   0.001322
  136  O 16  S    0.000049   0.000537   0.000014   0.000387  -0.000009
  137  O 16  S    0.000317   0.003978   0.000024   0.002657  -0.000072
  138  O 16  X    0.000119  -0.000997  -0.000125   0.000392  -0.000056
  139  O 16  Y   -0.000058   0.000445  -0.000327   0.000825  -0.000062
  140  O 16  Z    0.000006  -0.000038   0.000041  -0.000113   0.000038
  141  O 16  S   -0.003272  -0.013111  -0.002047  -0.005656   0.000184
  142  O 16  X    0.000855   0.007762   0.001448  -0.000029   0.000497
  143  O 16  Y   -0.000006  -0.004174   0.001367  -0.005519   0.000453
  144  O 16  Z   -0.000019   0.000392  -0.000168   0.000711  -0.000253
  145  H 17  S   -0.000135   0.000125   0.000283  -0.000138  -0.000001
  146  H 17  S    0.001707   0.000723   0.002098  -0.000384   0.001781
  147  H 18  S    0.001051   0.000725   0.000372  -0.000161   0.000212
  148  H 18  S    0.009716   0.009094   0.002348   0.002447   0.000730
  149  H 19  S   -0.000771  -0.000092  -0.000046  -0.000028  -0.000202
  150  H 19  S   -0.002750  -0.000487   0.000270   0.000014  -0.000703
  151  H 20  S    0.000079  -0.000534   0.000354  -0.001146   0.000078
  152  H 20  S    0.001119  -0.000569   0.002337   0.001241   0.000173
  153  H 21  S    0.000174   0.000055  -0.001155  -0.000003  -0.000580
  154  H 21  S    0.000081  -0.000100  -0.001935   0.000049   0.016938
  155  H 22  S    0.000117   0.000085  -0.001157  -0.000110  -0.000633
  156  H 22  S   -0.000057   0.000175  -0.001901   0.000241   0.016984
  157  H 23  S    0.000027  -0.000001   0.000755   0.000002  -0.001253
  158  H 23  S   -0.000069  -0.000021   0.004004   0.000006   0.014364
  159  H 24  S   -0.000233   0.000667   0.000036  -0.002986  -0.000139
  160  H 24  S   -0.001022   0.003898   0.000265   0.009311  -0.000447

                     11         12         13         14         15
                  -10.1633   -10.1579   -10.1492   -10.1480   -10.1419
                     A          A          A          A          A   
    1  C  1  S   -0.004572  -0.008886  -0.074152   0.983234   0.003442
    2  C  1  S   -0.001444  -0.001527  -0.008733   0.110716  -0.000012
    3  C  1  X   -0.000032   0.000537  -0.000906   0.000334   0.000012
    4  C  1  Y   -0.000338  -0.000625  -0.000519   0.001762   0.000056
    5  C  1  Z    0.000046   0.000069   0.000082  -0.000224  -0.000006
    6  C  1  S    0.005952   0.000451   0.006564  -0.115489   0.006261
    7  C  1  X    0.003836  -0.006335   0.004895  -0.006890  -0.001094
    8  C  1  Y    0.005479  -0.001646  -0.001552  -0.030965   0.002189
    9  C  1  Z   -0.000791   0.000342   0.000117   0.004131  -0.000276
   10  C  2  S   -0.000556  -0.002226  -0.059970  -0.011413  -0.000123
   11  C  2  S   -0.000315  -0.000587  -0.009638  -0.002173  -0.000024
   12  C  2  X   -0.000085   0.000219   0.000962   0.000036  -0.000031
   13  C  2  Y   -0.000006  -0.000143   0.000329   0.000333   0.000015
   14  C  2  Z    0.000003   0.000021  -0.000046  -0.000041  -0.000001
   15  C  2  S    0.004166  -0.000030   0.029111   0.002871   0.001585
   16  C  2  X   -0.002173  -0.001346  -0.014588  -0.002265  -0.000629
   17  C  2  Y   -0.001610   0.000256  -0.005208  -0.003090  -0.001657
   18  C  2  Z    0.000245  -0.000035   0.000900   0.000430   0.000235
   19  C  3  S   -0.000043   0.000674  -0.000024   0.001301  -0.000031
   20  C  3  S    0.000029  -0.000254  -0.000339  -0.000806  -0.000004
   21  C  3  X   -0.000012   0.000095   0.000048   0.000356   0.000022
   22  C  3  Y   -0.000117  -0.000043  -0.000627  -0.000158  -0.000085
   23  C  3  Z    0.000016   0.000003   0.000077   0.000014   0.000010
   24  C  3  S   -0.001355   0.001197  -0.004898   0.000780  -0.001112
   25  C  3  X    0.000915  -0.000820   0.002370  -0.003646   0.000104
   26  C  3  Y   -0.000187   0.000819  -0.000486   0.000295  -0.000149
   27  C  3  Z    0.000007  -0.000082   0.000041   0.000034   0.000018
   28  C  4  S   -0.001898  -0.000785  -0.000356   0.000034  -0.000121
   29  C  4  S    0.000216   0.000190   0.000156  -0.000026   0.000153
   30  C  4  X   -0.000209  -0.000142   0.000079  -0.000002   0.000039
   31  C  4  Y    0.000077   0.000155   0.000117   0.000022   0.000002
   32  C  4  Z   -0.000006   0.000022   0.000035  -0.000010   0.000074
   33  C  4  S   -0.001215  -0.000976  -0.000808   0.000180  -0.000844
   34  C  4  X    0.000869   0.000539  -0.000430  -0.000048  -0.000049
   35  C  4  Y   -0.000197  -0.000497  -0.000314  -0.000239   0.000484
   36  C  4  Z   -0.000033  -0.000085  -0.000146  -0.000029  -0.000036
   37  C  5  S    0.000345   0.011900   0.010198   0.001300   0.000569
   38  C  5  S   -0.000020  -0.002760  -0.002961  -0.000540  -0.000289
   39  C  5  X    0.000236   0.002370  -0.002096  -0.000051   0.000589
   40  C  5  Y   -0.000311   0.000692   0.001632   0.000281  -0.000374
   41  C  5  Z    0.000042  -0.000097  -0.000133  -0.000009  -0.000013
   42  C  5  S    0.000425   0.024944   0.022426   0.006797  -0.003271
   43  C  5  X   -0.006331  -0.019326   0.011720  -0.001549  -0.009096
   44  C  5  Y    0.001002  -0.004615  -0.009545  -0.003956   0.007469
   45  C  5  Z   -0.000060   0.000812   0.000869   0.000468  -0.000674
   46  O  6  S   -0.000049  -0.000027  -0.000005  -0.000056  -0.000038
   47  O  6  S   -0.000496  -0.000269  -0.000051  -0.000487  -0.000575
   48  O  6  X   -0.000019  -0.000046  -0.000010   0.000003  -0.000183
   49  O  6  Y   -0.000338   0.000010  -0.000004  -0.000035   0.000070
   50  O  6  Z    0.000044  -0.000001   0.000000   0.000004  -0.000005
   51  O  6  S    0.001219   0.001086   0.000115   0.002486   0.001608
   52  O  6  X    0.000313   0.000283   0.000054   0.000362   0.000167
   53  O  6  Y    0.001812  -0.000111  -0.000042   0.000386  -0.001575
   54  O  6  Z   -0.000238   0.000012   0.000006  -0.000055   0.000200
   55  O  7  S    0.000001   0.000034   0.000034  -0.000009   0.000043
   56  O  7  S    0.000038   0.000074   0.000058  -0.000104   0.000281
   57  O  7  X   -0.000173  -0.000180   0.000071  -0.000013  -0.000035
   58  O  7  Y    0.000040   0.000152   0.000114   0.000038  -0.000033
   59  O  7  Z   -0.000021  -0.000019  -0.000015   0.000020  -0.000064
   60  O  7  S    0.000081  -0.000653  -0.000737   0.000685  -0.002140
   61  O  7  X    0.001032   0.002177  -0.001161   0.000078   0.001064
   62  O  7  Y   -0.000212   0.000394   0.000979  -0.000187   0.000807
   63  O  7  Z    0.000160  -0.000051  -0.000099  -0.000096   0.000202
   64  C  8  S    0.001442   0.000260   0.000174   0.000882   0.005394
   65  C  8  S   -0.000243  -0.000313  -0.000170  -0.001081  -0.003707
   66  C  8  X   -0.000299   0.000016  -0.000037  -0.000297   0.000036
   67  C  8  Y   -0.000888  -0.000271  -0.000003   0.000121  -0.001732
   68  C  8  Z    0.000121   0.000036   0.000002  -0.000009   0.000223
   69  C  8  S   -0.011214   0.004531   0.001019   0.004077   0.036626
   70  C  8  X   -0.002460   0.001995  -0.000014   0.005340   0.009311
   71  C  8  Y   -0.005370   0.002739   0.000840   0.000977   0.018212
   72  C  8  Z    0.000730  -0.000405  -0.000116  -0.000231  -0.002530
   73  C  9  S   -0.101832   0.980810   0.009941   0.009146   0.004042
   74  C  9  S   -0.015055   0.110519   0.000596   0.001082   0.000847
   75  C  9  X    0.001762  -0.000015  -0.000823  -0.000306   0.000974
   76  C  9  Y   -0.000472  -0.000294   0.000178   0.000992   0.000108
   77  C  9  Z    0.000031   0.000058  -0.000013  -0.000125  -0.000029
   78  C  9  S    0.043581  -0.108544  -0.001696  -0.013819  -0.014270
   79  C  9  X   -0.027476  -0.000573   0.002101  -0.003141   0.005248
   80  C  9  Y    0.001517   0.004312  -0.001272   0.004437  -0.006655
   81  C  9  Z    0.000349  -0.000509   0.000190  -0.000485   0.000713
   82  C 10  S    0.000728   0.009465  -0.000017   0.008985  -0.000341
   83  C 10  S    0.000368  -0.003025  -0.000037  -0.004520   0.000392
   84  C 10  X    0.000541  -0.000395  -0.000088  -0.002366   0.000003
   85  C 10  Y   -0.000607  -0.002296  -0.000246   0.001394  -0.000576
   86  C 10  Z    0.000066   0.000303   0.000034  -0.000135   0.000074
   87  C 10  S   -0.013616   0.028174   0.001345   0.045715  -0.004089
   88  C 10  X   -0.000072   0.002231  -0.000345   0.028648  -0.003691
   89  C 10  Y   -0.007777   0.022180  -0.001257  -0.006729   0.003136
   90  C 10  Z    0.001011  -0.002922   0.000150   0.000325  -0.000319
   91  O 11  S   -0.000029   0.000056   0.000006  -0.000015   0.000140
   92  O 11  S   -0.000170   0.000238   0.000019  -0.000339   0.000890
   93  O 11  X   -0.000035  -0.000190   0.000028  -0.000226   0.000120
   94  O 11  Y   -0.000084   0.000282  -0.000022   0.000012   0.000187
   95  O 11  Z    0.000011  -0.000034   0.000001   0.000003  -0.000026
   96  O 11  S    0.001380  -0.001353  -0.000308   0.001846  -0.005209
   97  O 11  X    0.000303   0.000159  -0.000339   0.000951   0.000605
   98  O 11  Y    0.001064  -0.003149   0.000034   0.000367  -0.003654
   99  O 11  Z   -0.000141   0.000409   0.000008  -0.000065   0.000457
  100  C 12  S    0.980470   0.100990   0.003426   0.005296   0.028849
  101  C 12  S    0.110023   0.007889  -0.000150  -0.000419  -0.002309
  102  C 12  X   -0.000198  -0.000738  -0.000380  -0.000146   0.002298
  103  C 12  Y   -0.001767   0.000847  -0.000014   0.000415   0.001438
  104  C 12  Z    0.000280  -0.000071   0.000016  -0.000049  -0.000230
  105  C 12  S   -0.105213   0.016568   0.001133   0.003675   0.042713
  106  C 12  X    0.004711   0.009851   0.004445  -0.001285  -0.013375
  107  C 12  Y    0.029488  -0.012043  -0.000604  -0.004738  -0.020268
  108  C 12  Z   -0.003993   0.001296  -0.000039   0.000624   0.002888
  109  C 13  S   -0.028986  -0.006730  -0.001888  -0.003819   0.985568
  110  C 13  S   -0.008638  -0.001210  -0.000367  -0.000415   0.110204
  111  C 13  X   -0.002270  -0.001012  -0.000022  -0.000165   0.001337
  112  C 13  Y   -0.000160  -0.000295  -0.000037   0.000167  -0.001224
  113  C 13  Z    0.000058   0.000053   0.000004  -0.000019   0.000140
  114  C 13  S    0.046568  -0.003025   0.001974  -0.004450  -0.103013
  115  C 13  X    0.024397  -0.000903   0.001320  -0.003206  -0.021417
  116  C 13  Y   -0.005777   0.005177   0.001787   0.001264   0.016121
  117  C 13  Z    0.000322  -0.000619  -0.000243  -0.000098  -0.001686
  118  C 14  S   -0.002981  -0.011285   0.981438   0.073488   0.001921
  119  C 14  S   -0.000887  -0.001911   0.110662   0.008269  -0.000098
  120  C 14  X    0.000503   0.000814   0.000032   0.000815   0.000014
  121  C 14  Y   -0.000243  -0.000435  -0.000910   0.000584  -0.000197
  122  C 14  Z    0.000021   0.000041   0.000147  -0.000090   0.000030
  123  C 14  S    0.003180   0.001649  -0.107683  -0.016983   0.006995
  124  C 14  X   -0.007643  -0.001131  -0.001614   0.003225  -0.005685
  125  C 14  Y    0.003701   0.004483   0.011572   0.004874   0.005602
  126  C 14  Z   -0.000317  -0.000510  -0.001449  -0.000667  -0.000665
  127  C 15  S    0.000024   0.000661   0.009045   0.010916  -0.000207
  128  C 15  S    0.000129  -0.000365  -0.002965  -0.004355   0.000113
  129  C 15  X    0.000113   0.000256  -0.000496   0.002697  -0.000078
  130  C 15  Y   -0.000057  -0.000064  -0.001752   0.000512   0.000045
  131  C 15  Z    0.000005   0.000002   0.000233  -0.000117  -0.000005
  132  C 15  S   -0.004101   0.006547   0.030423   0.048022   0.000410
  133  C 15  X    0.005647  -0.002477   0.007421  -0.030017   0.003558
  134  C 15  Y    0.000528  -0.000007   0.021215   0.003092  -0.000039
  135  C 15  Z   -0.000176   0.000038  -0.002881   0.000161  -0.000046
  136  O 16  S    0.000013   0.000000   0.000003  -0.000026   0.000025
  137  O 16  S    0.000083  -0.000037  -0.000229  -0.000362   0.000191
  138  O 16  X    0.000013  -0.000010   0.000203   0.000051  -0.000026
  139  O 16  Y   -0.000019  -0.000024   0.000065   0.000018  -0.000025
  140  O 16  Z    0.000002   0.000004  -0.000011  -0.000003   0.000004
  141  O 16  S   -0.000855   0.000007  -0.000738   0.003232  -0.001267
  142  O 16  X    0.000322   0.000141   0.000288  -0.000167   0.000487
  143  O 16  Y   -0.000087   0.000056  -0.001655   0.000397  -0.000091
  144  O 16  Z    0.000005  -0.000011   0.000202  -0.000050   0.000000
  145  H 17  S   -0.003189  -0.000784  -0.000299   0.000253  -0.000198
  146  H 17  S    0.005677   0.003403   0.000227   0.001946   0.005086
  147  H 18  S    0.000393  -0.000470  -0.000200  -0.003005  -0.000103
  148  H 18  S    0.001942  -0.000088  -0.000235   0.006062   0.000218
  149  H 19  S   -0.000120  -0.000447  -0.000142  -0.000247  -0.003062
  150  H 19  S    0.004867  -0.000404  -0.000070  -0.000606   0.006836
  151  H 20  S    0.000065  -0.000045  -0.000420   0.000272   0.000140
  152  H 20  S    0.000672   0.000373   0.001388   0.001420   0.000623
  153  H 21  S   -0.000223  -0.000225   0.000076  -0.000018   0.000025
  154  H 21  S    0.001264   0.000895  -0.000047  -0.000049   0.000148
  155  H 22  S    0.000060   0.000040  -0.000252  -0.000040   0.000083
  156  H 22  S   -0.000243  -0.000020   0.000852   0.000020   0.000322
  157  H 23  S    0.000133   0.000113   0.000084   0.000017   0.000043
  158  H 23  S    0.000129   0.000305   0.000291   0.000080  -0.000193
  159  H 24  S   -0.000051   0.000012  -0.000081   0.000330   0.000045
  160  H 24  S   -0.000167   0.000433   0.000269   0.001791   0.000113

                     16         17         18         19         20
                  -10.1404    -1.1563    -1.1472    -1.0849    -1.0332
                     A          A          A          A          A   
    1  C  1  S    0.006620  -0.007915  -0.008930  -0.001231   0.011571
    2  C  1  S    0.000031   0.015426   0.017316   0.003401  -0.010058
    3  C  1  X   -0.000220   0.008916  -0.009939   0.000441   0.010063
    4  C  1  Y   -0.000150   0.004276   0.007027   0.002428  -0.006894
    5  C  1  Z    0.000023  -0.000710  -0.000720  -0.000415   0.000684
    6  C  1  S    0.001810  -0.115975  -0.124999  -0.039931  -0.036825
    7  C  1  X    0.002494  -0.028322  -0.014974  -0.010257   0.042160
    8  C  1  Y    0.001549  -0.070972  -0.084645  -0.028534  -0.004479
    9  C  1  Z   -0.000245   0.009769   0.011364   0.005017  -0.000216
   10  C  2  S    0.984260  -0.026758   0.001396  -0.002061  -0.000172
   11  C  2  S    0.110499   0.026173   0.000145   0.006493  -0.000423
   12  C  2  X   -0.000843  -0.004829   0.000836  -0.001694  -0.000212
   13  C  2  Y   -0.001953  -0.033275   0.001400   0.000496   0.000071
   14  C  2  Z    0.000301   0.004443  -0.000184   0.000112  -0.000006
   15  C  2  S   -0.107459   0.020625  -0.032645  -0.068505   0.011677
   16  C  2  X    0.018297  -0.014803   0.016077   0.032520  -0.004477
   17  C  2  Y    0.029113  -0.025295   0.006291   0.020820  -0.005893
   18  C  2  Z   -0.004162   0.003693  -0.001192  -0.004196   0.000847
   19  C  3  S    0.007985  -0.076482   0.003100   0.001340  -0.000548
   20  C  3  S   -0.003875   0.082238  -0.004694  -0.001824   0.000881
   21  C  3  X    0.000896  -0.083154   0.004239   0.001248  -0.000698
   22  C  3  Y   -0.002142  -0.037697   0.001958   0.002626  -0.000744
   23  C  3  Z    0.000258   0.006510  -0.000339  -0.000327   0.000111
   24  C  3  S    0.043253   0.077302   0.006133   0.018800  -0.003574
   25  C  3  X   -0.018555   0.039757  -0.013802  -0.014721   0.002448
   26  C  3  Y    0.017239  -0.004547   0.001980   0.005243  -0.002438
   27  C  3  Z   -0.001862  -0.000091   0.000028  -0.000326   0.000265
   28  C  4  S   -0.000346  -0.000511  -0.000613  -0.064981  -0.001427
   29  C  4  S    0.000055   0.001047   0.000266   0.065678   0.001658
   30  C  4  X    0.000106  -0.000063  -0.000118  -0.008626  -0.000030
   31  C  4  Y    0.000007  -0.000769  -0.000575  -0.045999  -0.000916
   32  C  4  Z   -0.000006  -0.000343  -0.000325  -0.055259  -0.001192
   33  C  4  S   -0.000158  -0.000632   0.002629   0.119564   0.001471
   34  C  4  X   -0.000468   0.000827  -0.000837  -0.001628  -0.000012
   35  C  4  Y   -0.000268   0.001484  -0.000605  -0.006972   0.000528
   36  C  4  Z   -0.000152  -0.000217  -0.001426  -0.006931  -0.000014
   37  C  5  S    0.001382  -0.004788  -0.003790  -0.088101   0.001818
   38  C  5  S   -0.000290   0.000920  -0.001027   0.085855   0.000329
[...]
             19  C  3  S      1.98529     1.97444
             20  C  3  S      0.41234     0.43657
             21  C  3  X      0.54875     0.51791
             22  C  3  Y      0.56923     0.53786
             23  C  3  Z      0.49384     0.47810
             24  C  3  S      0.84109     0.55757
             25  C  3  X      0.30776     0.44769
             26  C  3  Y      0.21237     0.42584
             27  C  3  Z      0.57272     0.59414
             28  C  4  S      1.98579     1.97409
             29  C  4  S      0.38160     0.43806
             30  C  4  X      0.58502     0.54105
             31  C  4  Y      0.55100     0.51831
             32  C  4  Z      0.48109     0.44961
             33  C  4  S      1.06515     0.60052
             34  C  4  X      0.50353     0.57363
             35  C  4  Y      0.46746     0.52897
             36  C  4  Z      0.33548     0.46120
             37  C  5  S      1.98697     1.97325
             38  C  5  S      0.40265     0.42243
             39  C  5  X      0.64553     0.60884
             40  C  5  Y      0.52280     0.49342
             41  C  5  Z      0.47721     0.45337
             42  C  5  S      0.93986     0.49939
             43  C  5  X      0.28693     0.47448
             44  C  5  Y      0.01403     0.38964
             45  C  5  Z      0.51897     0.55405
             46  O  6  S      1.98629     1.98052
             47  O  6  S      0.43755     0.59385
             48  O  6  X      0.69990     0.68557
             49  O  6  Y      0.79538     0.78528
             50  O  6  Z      0.62057     0.60991
             51  O  6  S      1.56391     1.04236
             52  O  6  X      0.76655     0.82052
             53  O  6  Y      0.85496     0.91450
             54  O  6  Z      0.74339     0.76296
             55  O  7  S      1.98565     1.97901
             56  O  7  S      0.42243     0.57705
             57  O  7  X      0.84884     0.84453
             58  O  7  Y      0.60089     0.58250
             59  O  7  Z      0.67655     0.66590
             60  O  7  S      1.54437     0.99247
             61  O  7  X      0.92623     0.97750
             62  O  7  Y      0.71080     0.73971
             63  O  7  Z      0.81880     0.85296
             64  C  8  S      1.98489     1.97328
             65  C  8  S      0.43021     0.43960
             66  C  8  X      0.55930     0.52595
             67  C  8  Y      0.59326     0.55393
             68  C  8  Z      0.44113     0.41638
             69  C  8  S      0.57501     0.51339
             70  C  8  X      0.01363     0.38042
             71  C  8  Y      0.27482     0.45995
             72  C  8  Z      0.48554     0.50871
             73  C  9  S      1.98673     1.97355
             74  C  9  S      0.40136     0.41468
             75  C  9  X      0.62147     0.59469
             76  C  9  Y      0.60912     0.58480
             77  C  9  Z      0.49405     0.47492
             78  C  9  S      0.81008     0.50450
             79  C  9  X      0.26151     0.47850
             80  C  9  Y      0.27717     0.48754
             81  C  9  Z      0.59636     0.60825
             82  C 10  S      1.98622     1.97336
             83  C 10  S      0.41008     0.42352
             84  C 10  X      0.53014     0.50316
             85  C 10  Y      0.63818     0.60131
             86  C 10  Z      0.47685     0.45117
             87  C 10  S      0.80911     0.49955
             88  C 10  X      0.03764     0.38240
             89  C 10  Y      0.24159     0.46867
             90  C 10  Z      0.52979     0.55553
             91  O 11  S      1.98609     1.97904
             92  O 11  S      0.42221     0.58361
             93  O 11  X      0.58768     0.57214
             94  O 11  Y      0.76410     0.75762
             95  O 11  Z      0.77950     0.77783
             96  O 11  S      1.55996     0.96842
             97  O 11  X      0.70098     0.69697
             98  O 11  Y      0.88253     0.91910
             99  O 11  Z      0.90508     0.90698
            100  C 12  S      1.98652     1.97485
            101  C 12  S      0.40853     0.42514
            102  C 12  X      0.63969     0.60563
            103  C 12  Y      0.61335     0.57547
            104  C 12  Z      0.41708     0.39395
            105  C 12  S      0.91331     0.53256
            106  C 12  X      0.22429     0.46830
            107  C 12  Y      0.40278     0.52799
            108  C 12  Z      0.49942     0.52956
            109  C 13  S      1.98634     1.97454
            110  C 13  S      0.40007     0.42520
            111  C 13  X      0.63759     0.59915
            112  C 13  Y      0.58380     0.55456
            113  C 13  Z      0.47461     0.45837
            114  C 13  S      0.94254     0.55219
            115  C 13  X      0.35778     0.50671
            116  C 13  Y      0.31962     0.51229
            117  C 13  Z      0.58413     0.60231
            118  C 14  S      1.98669     1.97371
            119  C 14  S      0.40421     0.41774
            120  C 14  X      0.61514     0.58692
            121  C 14  Y      0.61395     0.58837
            122  C 14  Z      0.49346     0.47375
            123  C 14  S      0.77298     0.50315
            124  C 14  X      0.26005     0.48354
            125  C 14  Y      0.27031     0.47764
            126  C 14  Z      0.58739     0.60155
            127  C 15  S      1.98622     1.97355
            128  C 15  S      0.41231     0.42791
            129  C 15  X      0.56910     0.54333
            130  C 15  Y      0.59862     0.56629
            131  C 15  Z      0.48839     0.46567
            132  C 15  S      0.77269     0.49800
            133  C 15  X      0.07591     0.40250
            134  C 15  Y      0.20573     0.43849
            135  C 15  Z      0.54207     0.56567
            136  O 16  S      1.98589     1.97932
            137  O 16  S      0.42637     0.58230
            138  O 16  X      0.58788     0.56522
            139  O 16  Y      0.74757     0.74092
            140  O 16  Z      0.78332     0.78046
            141  O 16  S      1.56477     0.97766
            142  O 16  X      0.66161     0.69608
            143  O 16  Y      0.86710     0.89517
            144  O 16  Z      0.89946     0.90080
            145  H 17  S      0.47465     0.46569
            146  H 17  S      0.30150     0.41759
            147  H 18  S      0.47065     0.45578
            148  H 18  S      0.30039     0.41422
            149  H 19  S      0.47391     0.46359
            150  H 19  S      0.30528     0.41729
            151  H 20  S      0.47283     0.45740
            152  H 20  S      0.32354     0.42436
            153  H 21  S      0.47791     0.47590
            154  H 21  S      0.31558     0.43698
            155  H 22  S      0.47876     0.47609
            156  H 22  S      0.31509     0.43765
            157  H 23  S      0.47877     0.47404
            158  H 23  S      0.29978     0.42447
            159  H 24  S      0.47787     0.46272
            160  H 24  S      0.29285     0.42221

          ----- MULLIKEN ATOMIC OVERLAP POPULATIONS -----
          (OFF-DIAGONAL ELEMENTS NEED TO BE MULTIPLIED BY 2)

             1           2           3           4           5

    1    5.3461485
    2    0.0065978   5.3383876
    3    0.0017634   0.4150069   5.0908597
    4    0.0000090  -0.0001914   0.0000364   5.1586372
    5   -0.0458037  -0.0617334   0.0101550  -0.0725809   5.3783691
    6   -0.0000337  -0.0000000   0.0000000  -0.0000000   0.0000005
    7   -0.0002002  -0.0019399   0.0000888   0.2522434   0.3772715
    8   -0.0009288  -0.0000000  -0.0000000  -0.0000001   0.0004795
    9   -0.0757972   0.0059361  -0.0001149  -0.0012526   0.1721989
   10    0.3723663  -0.0003940  -0.0002100   0.0000237   0.0312529
   11   -0.0446019  -0.0000004   0.0000001   0.0000001   0.0029802
   12    0.0074239  -0.0000098  -0.0000006  -0.0001626  -0.0838112
   13   -0.0008717   0.0000000   0.0000000   0.0000186   0.0077960
   14   -0.0477564   0.3803643  -0.0979221  -0.0063197   0.0698329
   15    0.3330123  -0.1308094  -0.1326559   0.0000743   0.0195186
   16   -0.0314260  -0.0872219   0.2985265  -0.0000002   0.0045141
   17   -0.0000440   0.0000017  -0.0000000  -0.0004561  -0.0018402
   18    0.3783617  -0.0000303  -0.0000041  -0.0000001  -0.0008231
   19    0.0000071  -0.0000000  -0.0000000   0.0000003  -0.0000349
   20   -0.0000514   0.3839584  -0.0272299   0.0001873  -0.0016223
   21   -0.0000050   0.0000914   0.0000010   0.3315857  -0.0044052
   22    0.0000072   0.0016012  -0.0001010   0.3314317  -0.0102457
   23   -0.0000002  -0.0000387  -0.0000002   0.3628352   0.0035052
   24   -0.0000469  -0.0386099   0.3851839   0.0000001  -0.0000275

             6           7           8           9          10

    6    8.0457287
    7   -0.0000000   8.1538405
    8    0.5532526  -0.0000036   4.6387023
    9    0.0000172  -0.0927619  -0.0068338   5.8614316
   10   -0.0004926   0.0021988  -0.0464297   0.1890228   5.0861239
   11   -0.0482476  -0.0000001   0.1789770  -0.0539747   0.2699352
   12    0.0034466   0.0034730  -0.0433804   0.2906681  -0.1020025
   13   -0.0836740   0.0004351   0.1181864  -0.0550868  -0.0127269
   14   -0.0000000  -0.0911492   0.0000053  -0.1018707  -0.0529046
   15    0.0000002   0.0022860  -0.0000637  -0.0374580  -0.0414243
   16   -0.0000000  -0.0000004   0.0000000  -0.0002572   0.0024125
   17   -0.0000069   0.0116415   0.0021935  -0.0507613   0.0027260
   18   -0.0000054   0.0000000  -0.0001504   0.0058996  -0.0402394
   19   -0.0014891   0.0000004  -0.0362054   0.0038723   0.0004413
   20    0.0000000   0.0002203   0.0000000   0.0000450  -0.0000043
   21    0.0000000  -0.0309021   0.0000009   0.0063116  -0.0000684
   22   -0.0000000  -0.0295527  -0.0000000  -0.0012840  -0.0000037
   23   -0.0000000  -0.0226380  -0.0000000  -0.0001023   0.0000020
   24   -0.0000000   0.0000001   0.0000000   0.0000004   0.0000016

            11          12          13          14          15

   11    8.3742622
   12   -0.0109941   5.3989723
   13   -0.0838079   0.2845081   5.7627558
   14   -0.0002998   0.0128389  -0.0001863   5.7682395
   15    0.0039212  -0.0012780   0.0001043   0.2345784   5.1870422
   16   -0.0000001  -0.0000002   0.0000000  -0.0524630   0.2498790
   17   -0.0000250   0.3853718  -0.0285185   0.0008427  -0.0000279
   18   -0.0015478  -0.0000007  -0.0000030   0.0046878  -0.0427036
   19    0.0015595  -0.0403492   0.3776235   0.0000002  -0.0000002
   20   -0.0000000   0.0000006  -0.0000000  -0.0267763   0.0039555
   21    0.0000000   0.0001566  -0.0000791  -0.0013528   0.0000104
   22   -0.0000000   0.0001173   0.0000016   0.0089472  -0.0001738
   23   -0.0000000  -0.0000150  -0.0000004  -0.0000841   0.0000024
   24   -0.0000000  -0.0000000   0.0000000   0.0029352   0.0032519

            16          17          18          19          20

   16    8.1628232
   17   -0.0000000   0.4587989
   18   -0.0015510   0.0000004   0.4691531
   19    0.0000000  -0.0035113  -0.0000001   0.4772809
   20    0.0013685   0.0000001   0.0000002  -0.0000000   0.4616558
   21    0.0000000  -0.0002701   0.0000000  -0.0000006   0.0000061
   22    0.0000008   0.0000913   0.0000000  -0.0000000   0.0010188
   23   -0.0000000  -0.0000615   0.0000000   0.0000000  -0.0000030
   24   -0.0226234  -0.0000000  -0.0000019  -0.0000000  -0.0003601

            21          22          23          24

   21    0.5632656
   22   -0.0412905   0.5617912
   23   -0.0295622  -0.0285082   0.4932203
   24    0.0000000  -0.0000012   0.0000000   0.4410097

          TOTAL MULLIKEN AND LOWDIN ATOMIC POPULATIONS
       ATOM         MULL.POP.    CHARGE          LOW.POP.     CHARGE
    1 C             6.198130   -0.198130         6.154832   -0.154832
    2 C             6.210966   -0.210966         6.149765   -0.149765
    3 C             5.943383    0.056617         5.970117    0.029883
    4 C             6.356119   -0.356119         6.085436   -0.085436
    5 C             5.794946    0.205054         5.868872    0.131128
    6 O             8.468496   -0.468496         8.195473   -0.195473
    7 O             8.534552   -0.534552         8.211633   -0.211633
    8 C             5.357802    0.642198         5.771609    0.228391
    9 C             6.057848   -0.057848         6.121438   -0.121438
   10 C             5.659607    0.340393         5.858677    0.141323
   11 O             8.588136   -0.588136         8.161711   -0.161711
   12 C             6.104973   -0.104973         6.033443   -0.033443
   13 C             6.286475   -0.286475         6.185317   -0.185317
   14 C             6.004187   -0.004187         6.106369   -0.106369
   15 C             5.651042    0.348958         5.881412    0.118588
   16 O             8.523981   -0.523981         8.117940   -0.117940
   17 H             0.776145    0.223855         0.883278    0.116722
   18 H             0.771042    0.228958         0.869992    0.130008
   19 H             0.779195    0.220805         0.880882    0.119118
   20 H             0.796369    0.203631         0.881762    0.118238
   21 H             0.793493    0.206507         0.912872    0.087128
   22 H             0.793848    0.206152         0.913737    0.086263
   23 H             0.778551    0.221449         0.898508    0.101492
   24 H             0.770712    0.229288         0.884925    0.115075

          -------------------------------
          BOND ORDER AND VALENCE ANALYSIS     BOND ORDER THRESHOLD=0.050
          -------------------------------

                   BOND                       BOND                       BOND
  ATOM PAIR DIST  ORDER      ATOM PAIR DIST  ORDER      ATOM PAIR DIST  ORDER
    1   5  2.865  0.088        1  10  1.393  1.366        1  15  1.384  1.342
    1  18  1.079  0.905        2   3  1.354  1.625        2  14  1.451  1.151
    2  16  2.293  0.059        2  20  1.077  0.932        3  16  1.420  0.968
    3  24  1.075  0.917        4   7  1.485  0.873        4  21  1.095  0.888
    4  22  1.095  0.886        4  23  1.090  0.912        5   7  1.395  0.966
    5   9  1.407  1.253        5  14  1.392  1.245        6   8  1.219  1.812
    6  11  2.271  0.119        6  12  3.606  0.062        8  11  1.439  0.815
    8  13  1.455  1.023        9  10  1.419  1.199        9  12  1.438  1.114
   10  11  1.378  0.864       10  14  2.791  0.053       12  13  1.351  1.607
   12  17  1.083  0.913       13  19  1.081  0.910       14  15  1.416  1.196
   14  16  2.293  0.060       15  16  1.391  0.851

                       TOTAL       BONDED        FREE
      ATOM            VALENCE     VALENCE     VALENCE
    1 C                 3.780       3.780       0.000
    2 C                 3.748       3.748       0.000
    3 C                 3.609       3.609      -0.000
    4 C                 3.590       3.590      -0.000
    5 C                 3.599       3.599      -0.000
    6 O                 2.112       2.112      -0.000
    7 O                 1.965       1.965      -0.000
    8 C                 3.648       3.648       0.000
    9 C                 3.641       3.641       0.000
   10 C                 3.504       3.504       0.000
   11 O                 1.981       1.981      -0.000
   12 C                 3.676       3.676       0.000
   13 C                 3.696       3.696       0.000
   14 C                 3.670       3.670      -0.000
   15 C                 3.440       3.440      -0.000
   16 O                 2.053       2.053      -0.000
   17 H                 0.933       0.933      -0.000
   18 H                 0.918       0.918      -0.000
   19 H                 0.921       0.921       0.000
   20 H                 0.938       0.938       0.000
   21 H                 0.906       0.906      -0.000
   22 H                 0.907       0.907       0.000
   23 H                 0.912       0.912       0.000
   24 H                 0.924       0.924       0.000

          ---------------------
          ELECTROSTATIC MOMENTS
          ---------------------

 POINT   1           X           Y           Z (BOHR)    CHARGE
                -0.058631   -0.000837    0.002311       -0.00 (A.U.)
         DX          DY          DZ         /D/  (DEBYE)
     4.984082    3.988084    1.131891    6.482829
 ...... END OF PROPERTY EVALUATION ......
 CPU     0: STEP CPU TIME=     0.07 TOTAL CPU TIME=       4651.6 (     77.5 MIN)
 TOTAL WALL CLOCK TIME=       4696.0 SECONDS, CPU UTILIZATION IS    99.06%
  $VIB   
          IVIB=   0 IATOM=   0 ICOORD=   0 E=     -758.3463628202
  1.679885502E-05 1.244062971E-05 1.210627430E-05-4.612974081E-05-8.953721746E-06
 -4.710858874E-07 4.167954487E-05-2.926699175E-05-8.213069409E-06 2.061375319E-05
  7.907718209E-05 3.389332966E-05 1.587722313E-05 2.650813467E-05-3.783892644E-06
  6.211998513E-05 1.840689096E-06-1.244024417E-05 5.903429689E-06-2.708146382E-05
 -9.271459895E-05-1.475240311E-05 4.304346641E-06 5.607769943E-06 1.348379121E-05
 -8.131014534E-05 6.282657272E-06-1.063017699E-05-1.475126843E-06-6.009548865E-06
 -4.267649173E-05-2.192435130E-05 1.352779678E-05 3.605513407E-05 3.405321339E-05
  2.323433869E-05-3.373551441E-05-1.423356048E-06-2.578407164E-05-7.194543206E-05
 -4.808831993E-06-1.034718052E-05 2.957464011E-05 3.212261982E-05-2.497381081E-06
  7.051888153E-06-1.304454211E-05 7.166754306E-06-2.783396580E-05 1.072084854E-05
 -2.312530912E-06-9.233976614E-06-2.075748744E-06 9.076843354E-07-1.869239941E-06
 -2.426417039E-06 9.602041402E-06 8.700542909E-07 2.090121541E-06-8.878147665E-06
 -2.927138112E-05-3.102139659E-05-5.291634376E-06 3.624490581E-05 2.102663878E-05
  6.398227521E-05 1.939501764E-05-1.103639845E-05 4.637173836E-06-1.758989971E-05
  1.166406749E-05-2.204709611E-06
  4.984082210E+00 3.988084266E+00 1.131891337E+00
 ......END OF GEOMETRY SEARCH......
 CPU     0: STEP CPU TIME=     0.01 TOTAL CPU TIME=       4651.7 (     77.5 MIN)
 TOTAL WALL CLOCK TIME=       4696.0 SECONDS, CPU UTILIZATION IS    99.06%
              1019121  WORDS OF DYNAMIC MEMORY USED
 EXECUTION OF GAMESS TERMINATED NORMALLY Fri May  8 23:19:00 2020
 DDI: 263640 bytes (0.3 MB / 0 MWords) used by master data server.
Note: The following floating-point exceptions are signalling: IEEE_UNDERFLOW_FLAGNote: The following floating-point exceptions are signalling: IEEE_UNDERFLOW_FLAGNote: The following floating-point exceptions are signalling:
 ----------------------------------------
 CPU timing information for all processes
 ========================================
 0: 4630.593 + 21.77 = 4651.670
 1: 4631.583 + 13.180 = 4644.764
 2: 4629.807 + 9.633 = 4639.441
 3: 4631.145 + 10.923 = 4642.68
 4: 4631.87 + 11.426 = 4642.514
 5: 4630.730 + 7.940 = 4638.671
 ----------------------------------------
Note: The following floating-point exceptions are signalling: IEEE_DENORMAL
 IEEE_DENORMAL
 IEEE_UNDERFLOW_FLAG IEEE_DENORMALNote: The following floating-point exceptions are signalling: IEEE_UNDERFLOW_FLAG IEEE_UNDERFLOW_FLAGNote: The following floating-point exceptions are signalling: IEEE_UNDERFLOW_FLAG
 IEEE_DENORMAL
 IEEE_DENORMAL
 IEEE_DENORMAL
 ddikick.x: exited gracefully.
unset echo
----- accounting info -----
Files used on the master node pietdev were:
-rwxr-xr-x 1 piet piet     1110 mei  8 22:00 /home/piet/scr/bergapten.F05*
-rw-r--r-- 1 piet piet 57344000 mei  8 23:18 /home/piet/scr/bergapten.F10
-rw-r--r-- 1 piet piet  6187424 mei  8 23:18 /home/piet/scr/bergapten.F22
-rw-r--r-- 1 piet piet  6187424 mei  8 23:18 /home/piet/scr/bergapten.F22.001
-rw-r--r-- 1 piet piet  6187424 mei  8 23:18 /home/piet/scr/bergapten.F22.002
-rw-r--r-- 1 piet piet  6187424 mei  8 23:18 /home/piet/scr/bergapten.F22.003
-rw-r--r-- 1 piet piet  6187424 mei  8 23:18 /home/piet/scr/bergapten.F22.004
-rw-r--r-- 1 piet piet  6187424 mei  8 23:18 /home/piet/scr/bergapten.F22.005
ls: No match.
ls: No match.
ls: No match.
vr  8 mei 2020 23:19:03 CEST
0.109u 0.028s 1:18:19.18 0.0%	0+0k 424+8io 3pf+0w
