----- GAMESS execution script 'rungms' -----
This job is running on host pietdev
under operating system Linux at zo 17 mei 2020 12:12:01 CEST
Available scratch disk space (Kbyte units) at beginning of the job is
Filesystem     1K-blocks     Used Available Use% Mounted on
/dev/sda2      244568380 30346172 201729152  14% /
GAMESS temporary binary files will be written to /home/piet/scr
GAMESS supplementary output files will be written to /home/piet/gamess/scr
Copying input file ethane_charge_geodisk.inp to your run's scratch directory...
cp ethane_charge_geodisk.inp /home/piet/scr/ethane_charge_geodisk.F05
unset echo
 
Assuming a single but multicore node.
 
/home/piet/gamess/ddikick.x /home/piet/gamess/gamess.03.x ethane_charge_geodisk -ddi 1 6 pietdev:cpus=6 -scr /home/piet/scr

 Distributed Data Interface kickoff program.
 Initiating 6 compute processes on 1 nodes to run the following command:
 /home/piet/gamess/gamess.03.x ethane_charge_geodisk 

          ******************************************************
          *         GAMESS VERSION = 30 SEP 2019 (R2)          *
          *             FROM IOWA STATE UNIVERSITY             *
          * M.W.SCHMIDT, K.K.BALDRIDGE, J.A.BOATZ, S.T.ELBERT, *
          *   M.S.GORDON, J.H.JENSEN, S.KOSEKI, N.MATSUNAGA,   *
          *          K.A.NGUYEN, S.J.SU, T.L.WINDUS,           *
          *       TOGETHER WITH M.DUPUIS, J.A.MONTGOMERY       *
          *         J.COMPUT.CHEM.  14, 1347-1363(1993)        *
          **************** 64 BIT LINUX VERSION ****************

  SINCE 1993, STUDENTS AND POSTDOCS WORKING AT IOWA STATE UNIVERSITY
  AND ALSO IN THEIR VARIOUS JOBS AFTER LEAVING ISU HAVE MADE IMPORTANT
  CONTRIBUTIONS TO THE CODE:
     IVANA ADAMOVIC, CHRISTINE AIKENS, YURI ALEXEEV, POOJA ARORA,
     ANDREY ASADCHEV, ROB BELL, PRADIPTA BANDYOPADHYAY, JONATHAN BENTZ,
     COLLEEN BERTONI, BRETT BODE, KURT BRORSEN, CALEB CARLIN, GALINA CHABAN,
     WEI CHEN, CHEOL HO CHOI, PAUL DAY, ALBERT DEFUSCO, NUWAN DESILVA,
     TIM DUDLEY, DMITRI FEDOROV, ALEX FINDLATER, GRAHAM FLETCHER, 
     MARK FREITAG, KURT GLAESEMANN, EMILIE B GUIDEZ, ANASTASIA GUNINA, 
     DAN KEMP, SAROM SOK LEANG, GRANT MERRILL,
     NORIYUKI MINEZAWA, JONATHAN MULLIN,
     TAKESHI NAGATA, SEAN NEDD, HEATHER NETZLOFF, BOSILJKA NJEGIC, RYAN OLSON,
     MIKE PAK, BUU PHAM, DAVID POOLE,
     SPENCER PRUITT, LUKE ROSKOP, TOSAPORN SATTASATHUCHANA,
     JIM SHOEMAKER, LYUDMILA SLIPCHENKO,
     TONY SMITH, JIE SONG, TETSUYA TAKETSUGU, SIMON WEBB,
     JORGE LUIS GALVEZ VALLEJO, PENG XU, SOOHAENG YOO,
     FEDERICO ZAHARIEV

  ADDITIONAL CODE HAS BEEN PROVIDED BY COLLABORATORS IN OTHER GROUPS:
     IOWA STATE UNIVERSITY:
          JOE IVANIC, AARON WEST, LAIMUTIS BYTAUTAS, KLAUS RUEDENBERG
     UNIVERSITY OF TOKYO: KIMIHIKO HIRAO, TAKAHITO NAKAJIMA,
          TAKAO TSUNEDA, MUNEAKI KAMIYA, SUSUMU YANAGISAWA,
          KIYOSHI YAGI, MAHITO CHIBA, SEIKEN TOKURA, NAOAKI KAWAKAMI
     UNIVERSITY OF AARHUS: FRANK JENSEN
     UNIVERSITY OF IOWA: VISVALDAS KAIRYS, HUI LI
     NATIONAL INST. OF STANDARDS AND TECHNOLOGY: WALT STEVENS, DAVID GARMER
     UNIVERSITY OF PISA: BENEDETTA MENNUCCI, JACOPO TOMASI
     UNIVERSITY OF MEMPHIS: HENRY KURTZ, PRAKASHAN KORAMBATH
     UNIVERSITY OF ALBERTA: TOBY ZENG, MARIUSZ KLOBUKOWSKI
     UNIVERSITY OF NEW ENGLAND: MARK SPACKMAN
     MIE UNIVERSITY: HIROAKI UMEDA
     NAT. INST. OF ADVANCED INDUSTRIAL SCIENCE AND TECHNOLOGY: KAZUO KITAURA
     MICHIGAN STATE UNIVERSITY:
          KAROL KOWALSKI, MARTA WLOCH, JEFFREY GOUR, JESSE LUTZ,
          WEI LI, JUN SHEN, J. EMILIANO DEUSTUA, PIOTR PIECUCH
     UNIVERSITY OF MINNESOTA:
          ANDREW SAND, PRACHI SHARMA, YINAN SHU
     UNIVERSITY OF SILESIA: MONIKA MUSIAL, STANISLAW KUCHARSKI
     FACULTES UNIVERSITAIRES NOTRE-DAME DE LA PAIX:
          OLIVIER QUINET, BENOIT CHAMPAGNE
     UNIVERSITY OF CALIFORNIA - SANTA BARBARA: BERNARD KIRTMAN
     INSTITUTE FOR MOLECULAR SCIENCE:
          KAZUYA ISHIMURA, MICHIO KATOUDA, AND SHIGERU NAGASE
     UNIVERSITY OF NOTRE DAME: ANNA POMOGAEVA, DAN CHIPMAN
     KYUSHU UNIVERSITY:
          HARUYUKI NAKANO,
          FENG LONG GU, JACEK KORCHOWIEC, MARCIN MAKOWSKI, AND YURIKO AOKI,
          HIROTOSHI MORI AND EISAKU MIYOSHI
     PENNSYLVANIA STATE UNIVERSITY:
          TZVETELIN IORDANOV, CHET SWALINA, JONATHAN SKONE,
          SHARON HAMMES-SCHIFFER
     WASEDA UNIVERSITY:
          MASATO KOBAYASHI, TOMOKO AKAMA, TSUGUKI TOUMA,
          TAKESHI YOSHIKAWA, YASUHIRO IKABATA, JUNJI SEINO,
          YUYA NAKAJIMA, HIROMI NAKAI
     NANJING UNIVERSITY: SHUHUA LI
     UNIVERSITY OF NEBRASKA:
          PEIFENG SU, DEJUN SI, NANDUN THELLAMUREGE, YALI WANG, HUI LI
     UNIVERSITY OF ZURICH: ROBERTO PEVERATI, KIM BALDRIDGE
     N. COPERNICUS UNIVERSITY AND JACKSON STATE UNIVERSITY:
          MARIA BARYSZ
     UNIVERSITY OF COPENHAGEN: Jimmy Kromann, CASPER STEINMANN
     TOKYO INSTITUTE OF TECHNOLOGY: HIROYA NAKATA
     NAGOYA UNIVERSITY: YOSHIO NISHIMOTO, STEPHAN IRLE
     MOSCOW STATE UNIVERSITY: VLADIMIR MIRONOV
     A.N.NESMEYANOV INSTITUTE OF ORGANOELEMENT COMPOUNDS OF RUSSIAN ACADEMY OF SCIENCES:
          IGOR S. GERASIMOV
     JOHANNES KEPLER UNIVERSITY LINZ:
          CHRISTIAN FRIEDL


 PARALLEL VERSION RUNNING ON        6 PROCESSORS IN        1 NODES.

 EXECUTION OF GAMESS BEGUN Sun May 17 12:12:01 2020

            ECHO OF THE FIRST FEW INPUT CARDS -
 INPUT CARD> $BASIS GBASIS=N21 NGAUSS=3 $END                                                
 INPUT CARD> $CONTRL SCFTYP=RHF DFTTYP=B3LYP MAXIT=60 MULT=1 ICHARG=0 $END                  
 INPUT CARD> $SYSTEM MEMDDI=1000 MWORDS=30 $END                                             
 INPUT CARD> $SCF DIRSCF=.TRUE. $END                                                        
 INPUT CARD> $ELPOT  IEPOT=1 WHERE=PDC $END                                                 
 INPUT CARD> $PDC PTSEL=GEODESIC CONSTR=CHARGE $END                                         
 INPUT CARD> $DATA                                                                          
 INPUT CARD>                                                                                
 INPUT CARD>C1                                                                              
 INPUT CARD>C 6.0000000 -0.7779600000 -0.1721700000 0.4089600000                            
 INPUT CARD>H 1.0000000 -0.7489000000 -0.5278100000 1.4451400000                            
 INPUT CARD>C 6.0000000 -1.2884500000 -1.2798100000 -0.5387000000                           
 INPUT CARD>H 1.0000000 -1.3175600000 -0.9241700000 -1.5748900000                           
 INPUT CARD>H 1.0000000 -0.6350600000 -2.1587500000 -0.4998700000                           
 INPUT CARD>H 1.0000000 -2.3001200000 -1.5961100000 -0.2602800000                           
 INPUT CARD>H 1.0000000 -1.4313300000 0.7067900000 0.3700900000                             
 INPUT CARD>H 1.0000000 0.2336700000 0.1442000000 0.1304700000                              
 INPUT CARD> $END                                                                           
   30000000 WORDS OF MEMORY AVAILABLE

     BASIS OPTIONS
     -------------
     GBASIS=N21          IGAUSS=       3      POLAR=NONE    
     NDFUNC=       0     NFFUNC=       0     DIFFSP=       F
     NPFUNC=       0      DIFFS=       F     BASNAM=        


     RUN TITLE
     ---------
                                                                                 

 THE POINT GROUP OF THE MOLECULE IS C1      
 THE ORDER OF THE PRINCIPAL AXIS IS     0

 ATOM      ATOMIC                      COORDINATES (BOHR)
           CHARGE         X                   Y                   Z
 C           6.0    -1.4701312294       -0.3253541233        0.7728223399
 H           1.0    -1.4152157922       -0.9974162736        2.7309186139
 C           6.0    -2.4348174489       -2.4184902163       -1.0179953896
 H           1.0    -2.4898273724       -1.7464280661       -2.9761105608
 H           1.0    -1.2000893858       -4.0794459760       -0.9446173295
 H           1.0    -4.3465965389       -3.0162105463       -0.4918578801
 H           1.0    -2.7048214980        1.3356394309        0.6993686908
 H           1.0     0.4415722716        0.2724984874        0.2465525496

          INTERNUCLEAR DISTANCES (ANGS.)
          ------------------------------

                1 C          2 H          3 C          4 H          5 H     

   1 C       0.0000000    1.0958984 *  1.5445148 *  2.1891398 *  2.1892676 *
   2 H       1.0958984 *  0.0000000    2.1891184 *  3.0985572    2.5408638 *
   3 C       1.5445148 *  2.1891184 *  0.0000000    1.0959092 *  1.0958840 *
   4 H       2.1891398 *  3.0985572    1.0959092 *  0.0000000    1.7736014 *
   5 H       2.1892676 *  2.5408638 *  1.0958840 *  1.7736014 *  0.0000000  
   6 H       2.1891684 *  2.5408671 *  1.0959195 *  1.7734506 *  1.7738072 *
   7 H       1.0958896 *  1.7736066 *  2.1892678 *  2.5408505 *  3.0987410  
   8 H       1.0959206 *  1.7735271 *  2.1891647 *  2.5408624 *  2.5407871 *

                6 H          7 H          8 H     

   1 C       2.1891684 *  1.0958896 *  1.0959206 *
   2 H       2.5408671 *  1.7736066 *  1.7735271 *
   3 C       1.0959195 *  2.1892678 *  2.1891647 *
   4 H       1.7734506 *  2.5408505 *  2.5408624 *
   5 H       1.7738072 *  3.0987410    2.5407871 *
   6 H       0.0000000    2.5407697 *  3.0986217  
   7 H       2.5407697 *  0.0000000    1.7737391 *
   8 H       3.0986217    1.7737391 *  0.0000000  

  * ... LESS THAN  3.000


     ATOMIC BASIS SET
     ----------------
 THE CONTRACTED PRIMITIVE FUNCTIONS HAVE BEEN UNNORMALIZED
 THE CONTRACTED BASIS FUNCTIONS ARE NOW NORMALIZED TO UNITY

  SHELL TYPE  PRIMITIVE        EXPONENT          CONTRACTION COEFFICIENT(S)

 C         

      1   S       1           172.2560000    0.061766907377
      1   S       2            25.9109000    0.358794042852
      1   S       3             5.5333500    0.700713083689

      2   L       4             3.6649800   -0.395895162119    0.236459946619
      2   L       5             0.7705450    1.215834355681    0.860618805716

      3   L       6             0.1958570    1.000000000000    1.000000000000

 H         

      4   S       7             5.4471780    0.156284978695
      4   S       8             0.8245472    0.904690876670

      5   S       9             0.1831916    1.000000000000

 C         

      6   S      10           172.2560000    0.061766907377
      6   S      11            25.9109000    0.358794042852
      6   S      12             5.5333500    0.700713083689

      7   L      13             3.6649800   -0.395895162119    0.236459946619
      7   L      14             0.7705450    1.215834355681    0.860618805716

      8   L      15             0.1958570    1.000000000000    1.000000000000

 H         

      9   S      16             5.4471780    0.156284978695
      9   S      17             0.8245472    0.904690876670

     10   S      18             0.1831916    1.000000000000

 H         

     11   S      19             5.4471780    0.156284978695
     11   S      20             0.8245472    0.904690876670

     12   S      21             0.1831916    1.000000000000

 H         

     13   S      22             5.4471780    0.156284978695
     13   S      23             0.8245472    0.904690876670

     14   S      24             0.1831916    1.000000000000

 H         

     15   S      25             5.4471780    0.156284978695
     15   S      26             0.8245472    0.904690876670

     16   S      27             0.1831916    1.000000000000

 H         

     17   S      28             5.4471780    0.156284978695
     17   S      29             0.8245472    0.904690876670

     18   S      30             0.1831916    1.000000000000

 TOTAL NUMBER OF BASIS SET SHELLS             =   18
 NUMBER OF CARTESIAN GAUSSIAN BASIS FUNCTIONS =   30
 NUMBER OF ELECTRONS                          =   18
 CHARGE OF MOLECULE                           =    0
 SPIN MULTIPLICITY                            =    1
 NUMBER OF OCCUPIED ORBITALS (ALPHA)          =    9
 NUMBER OF OCCUPIED ORBITALS (BETA )          =    9
 TOTAL NUMBER OF ATOMS                        =    8
 THE NUCLEAR REPULSION ENERGY IS       41.9716179677

 SELECTED MURRAY-HANDY-LAMING RADIAL GRID

 LEGACY BECKE'S FUZZY CELL METHOD

 SELECTED ORIGINAL BECKE'S PARTITION FUNCTION

     LEBEDEV GRID-BASED DFT OPTIONS
     ------------------------------
     DFTTYP=B3LYP   
     NRAD  =      96     NLEB  =     302
     NRAD0 =      24     NLEB0 =     110
     SWOFF =    5.00E-03 (PURE SCF -> DFT)
     SWITCH=    3.00E-04 (COARSE -> TIGHT GRID)
     THRESH=    0.00E+00 GTHRE=    1.00E+00

 GRIMME'S EMPIRICAL DISPERSION CORRECTION= F

     $CONTRL OPTIONS
     ---------------
 SCFTYP=RHF          RUNTYP=ENERGY       EXETYP=RUN     
 MPLEVL=       0     CITYP =NONE         CCTYP =NONE         VBTYP =NONE    
 DFTTYP=B3LYP        TDDFT =NONE    
 MULT  =       1     ICHARG=       0     NZVAR =       0     COORD =UNIQUE  
 PP    =NONE         RELWFN=NONE         LOCAL =NONE         NUMGRD=       F
 ISPHER=      -1     NOSYM =       0     MAXIT =      60     UNITS =ANGS    
 PLTORB=       F     MOLPLT=       F     AIMPAC=       F     FRIEND=        
 NPRINT=       7     IREST =       0     GEOM  =INPUT   
 NORMF =       0     NORMP =       0     ITOL  =      20     ICUT  =       9
 INTTYP=BEST         GRDTYP=BEST         QMTTOL= 1.0E-06

     $SYSTEM OPTIONS
     ---------------
  REPLICATED MEMORY=    30000000 WORDS (ON EVERY NODE).
 DISTRIBUTED MEMDDI=        1000 MILLION WORDS IN AGGREGATE,
 MEMDDI DISTRIBUTED OVER   6 PROCESSORS IS   166666666 WORDS/PROCESSOR.
 TOTAL MEMORY REQUESTED ON EACH PROCESSOR=   196666666 WORDS.
 TIMLIM=      525600.00 MINUTES, OR     365.0 DAYS.
 PARALL= T  BALTYP=  DLB     KDIAG=    0  COREFL= F
 MXSEQ2=     300 MXSEQ3=     150  mem10=         0

     INPUT FOR POTENTIAL-DERIVED CHARGES 
     -----------------------------------
     VDWSCL=    1.40   RMAX=    3.00   DELR=    0.80
     VDWINC=    0.20 PTDENS=    0.28
     LAYER =       4  NFREQ=      30 MAXPDC=   10000
     CONSTR=CHARGE    UNITS=ANGS      PTSEL=GEODESIC
     CENTER=  0.0000  0.0000  0.0000
     DPOLE =  0.0000  0.0000  0.0000
     QPOLE =  0.0000  0.0000  0.0000  0.0000  0.0000  0.0000


          ----------------
          PROPERTIES INPUT
          ----------------

     MOMENTS            FIELD           POTENTIAL          DENSITY
 IEMOM =       1   IEFLD =       0   IEPOT =       1   IEDEN =       0
 WHERE =COMASS     WHERE =NUCLEI     WHERE =PDC        WHERE =NUCLEI  
 OUTPUT=BOTH       OUTPUT=BOTH       OUTPUT=BOTH       OUTPUT=BOTH    
 IEMINT=       0   IEFINT=       0                     IEDINT=       0
                                                       MORB  =       0
          EXTRAPOLATION IN EFFECT
          DIIS IN EFFECT
 ORBITAL PRINTING OPTION: NPREO=     1    30     2     1

     -------------------------------
     INTEGRAL TRANSFORMATION OPTIONS
     -------------------------------
     NWORD  =            0
     CUTOFF = 1.0E-09     MPTRAN =       0
     DIRTRF =       T     AOINTS =DUP     

          ----------------------
          INTEGRAL INPUT OPTIONS
          ----------------------
 NOPK  =       1 NORDER=       0 SCHWRZ=       T

     ------------------------------------------
     THE POINT GROUP IS C1 , NAXIS= 0, ORDER= 1
     ------------------------------------------

     DIMENSIONS OF THE SYMMETRY SUBSPACES ARE
 A   =   30

 ..... DONE SETTING UP THE RUN .....
 CPU     0: STEP CPU TIME=     0.02 TOTAL CPU TIME=          0.0 (      0.0 MIN)
 TOTAL WALL CLOCK TIME=          0.0 SECONDS, CPU UTILIZATION IS    66.67%

          ********************
          1 ELECTRON INTEGRALS
          ********************
 ...... END OF ONE-ELECTRON INTEGRALS ......
 CPU     0: STEP CPU TIME=     0.01 TOTAL CPU TIME=          0.0 (      0.0 MIN)
 TOTAL WALL CLOCK TIME=          0.0 SECONDS, CPU UTILIZATION IS   100.00%

          -------------
          GUESS OPTIONS
          -------------
          GUESS =HUCKEL            NORB  =       0          NORDER=       0
          MIX   =       F          PRTMO =       F          PUNMO =       F
          TOLZ  = 1.0E-08          TOLE  = 1.0E-05
          SYMDEN=       F          PURIFY=       F

 INITIAL GUESS ORBITALS GENERATED BY HUCKEL   ROUTINE.
 HUCKEL GUESS REQUIRES     13224 WORDS.

 SYMMETRIES FOR INITIAL GUESS ORBITALS FOLLOW.   BOTH SET(S).
     9 ORBITALS ARE OCCUPIED (    2 CORE ORBITALS).
     3=A        4=A        5=A        6=A        7=A        8=A        9=A   
    10=A       11=A       12=A       13=A       14=A       15=A       16=A   
    17=A       18=A       19=A   
 ...... END OF INITIAL ORBITAL SELECTION ......
 CPU     0: STEP CPU TIME=     0.00 TOTAL CPU TIME=          0.0 (      0.0 MIN)
 TOTAL WALL CLOCK TIME=          0.1 SECONDS, CPU UTILIZATION IS    60.00%

                    ----------------------
                    AO INTEGRAL TECHNOLOGY
                    ----------------------
     S,P,L SHELL ROTATED AXIS INTEGRALS, REPROGRAMMED BY
        KAZUYA ISHIMURA (IMS) AND JOSE SIERRA (SYNSTAR).
     S,P,D,L SHELL ROTATED AXIS INTEGRALS PROGRAMMED BY
        KAZUYA ISHIMURA (INSTITUTE FOR MOLECULAR SCIENCE).
     S,P,D,F,G SHELL TO TOTAL QUARTET ANGULAR MOMENTUM SUM 5,
        ERIC PROGRAM BY GRAHAM FLETCHER (ELORET AND NASA ADVANCED
        SUPERCOMPUTING DIVISION, AMES RESEARCH CENTER).
     S,P,D,F,G,L SHELL GENERAL RYS QUADRATURE PROGRAMMED BY
        MICHEL DUPUIS (PACIFIC NORTHWEST NATIONAL LABORATORY).

          --------------------
          2 ELECTRON INTEGRALS
          --------------------

 DIRECT SCF METHOD SKIPS INTEGRAL STORAGE ON DISK.
 DIRECT TRANSFORMATION SKIPS AO INTEGRAL STORAGE ON DISK.
  ...... END OF TWO-ELECTRON INTEGRALS .....
 CPU     0: STEP CPU TIME=     0.01 TOTAL CPU TIME=          0.0 (      0.0 MIN)
 TOTAL WALL CLOCK TIME=          0.1 SECONDS, CPU UTILIZATION IS    80.00%

          --------------------------
             R-B3LYP SCF CALCULATION
          --------------------------

     NUCLEAR ENERGY =        41.9716179677
     MAXIT =   60     NPUNCH=    2
     EXTRAP=T  DAMP=F  SHIFT=F  RSTRCT=F  DIIS=T  DEM=F  SOSCF=F
         DENSITY MATRIX CONVERGENCE THRESHOLD=  2.00E-05
     COARSE -> FINE DFT GRID SWITCH THRESHOLD=  3.00E-04 (SWITCH IN $DFT)
                   HF -> DFT SWITCH THRESHOLD=  5.00E-03 (SWOFF IN $DFT)
     MEMORY REQUIRED FOR RHF ITERS=    338868 WORDS.

 DIRECT SCF CALCULATION, SCHWRZ=T   FDIFF=T,  DIRTHR=  0.00E+00 NITDIR=10
 SCHWARZ INEQUALITY OVERHEAD:       465 INTEGRALS, T=        0.00

 DFT CODE IS SWITCHING FROM THE FINE GRID NRAD= 96,  NLEB=  302
                      TO THE COARSE GRID NRAD0= 24, NLEB0=  110

     EXCHANGE FUNCTIONAL   =B88&HFX   
     CORRELATION FUNCTIONAL=LYP88&VWN5
     DFT THRESHOLD         =.172E-07
     GRID CHANGE THRESHOLD =.300E-03
 FOR AN EULER-MACLAURIN QUADRATURE USING  96 RADIAL POINTS:
 SMALLEST GAUSSIAN PRIMITIVE EXPONENT=        0.1831915800 OF TYPE -S-
 ON ATOM NUMBER   2 HAS RADIAL NORMALIZATION=  1.000000
  LARGEST GAUSSIAN PRIMITIVE EXPONENT=      172.2560000000 OF TYPE -S-
 ON ATOM NUMBER   1 HAS RADIAL NORMALIZATION=  1.000000
 DFT IS SWITCHED OFF, PERFORMING PURE SCF UNTIL SWOFF THRESHOLD IS REACHED.

                                                                                   NONZERO     BLOCKS
 ITER EX DEM     TOTAL ENERGY        E CHANGE  DENSITY CHANGE    DIIS ERROR      INTEGRALS    SKIPPED
   1  0  0      -78.6518129520   -78.6518129520   0.437779623   0.683045032         106127        268
          * * *   INITIATING DIIS PROCEDURE   * * *
   2  1  0      -78.7867576291    -0.1349446771   0.084154115   0.053982425         106127        268
   3  2  0      -78.7926215859    -0.0058639568   0.028031109   0.025461065         105980        351
   4  3  0      -78.7933311536    -0.0007095677   0.011732296   0.003943220         105597        594
   5  4  0      -78.7933890395    -0.0000578859   0.001623356   0.000824014         105504        687
 CONVERGED TO SWOFF, SO DFT CALCULATION IS NOW SWITCHED ON.
          * * *   INITIATING DIIS PROCEDURE   * * *
   6  5  0      -79.3285706363    -0.5351815969   0.032827052   0.098941088         106127        266
   7  6  0      -79.3311717127    -0.0026010763   0.036674479   0.035611023         105992        357
   8  7  0      -79.3325014588    -0.0013297461   0.014202462   0.022450358         105848        447
   9  8  0      -79.3334227557    -0.0009212969   0.000057194   0.000089121         105552        639
 DFT CODE IS SWITCHING BACK TO THE FINE GRID
          * * *   INITIATING DIIS PROCEDURE   * * *
  10  9  0      -79.3354497978    -0.0020270421   0.001052977   0.000745938         106127        264
  11 10  0      -79.3354509728    -0.0000011750   0.000036471   0.000041073         104999        931
  12 11  0      -79.3354509796    -0.0000000068   0.000012368   0.000014606         102847       1715
  13 12  0      -79.3354509801    -0.0000000004   0.000007991   0.000010410         101236       2126

          -----------------
          DENSITY CONVERGED
          -----------------
     TIME TO FORM FOCK OPERATORS=       0.8 SECONDS (       0.1 SEC/ITER)
     FOCK TIME ON FIRST ITERATION=       0.0, LAST ITERATION=       0.2
     TIME TO SOLVE SCF EQUATIONS=       0.1 SECONDS (       0.0 SEC/ITER)

 FINAL R-B3LYP ENERGY IS      -79.3354509801 AFTER  13 ITERATIONS
 DFT EXCHANGE + CORRELATION ENERGY =       -10.4934884977
 TOTAL ELECTRON NUMBER             =        18.0000253438

          ------------
          EIGENVECTORS
          ------------

                      1          2          3          4          5
                  -10.1033   -10.1026    -0.7438    -0.6088    -0.4281
                     A          A          A          A          A   
    1  C  1  S    0.698811   0.695988  -0.158072   0.140245   0.000007
    2  C  1  S    0.080900   0.077239   0.154311  -0.131646  -0.000011
    3  C  1  X   -0.000001   0.000059  -0.016198  -0.036025   0.236937
    4  C  1  Y   -0.000003   0.000127  -0.035158  -0.078134  -0.137084
    5  C  1  Z   -0.000002   0.000109  -0.030067  -0.066884   0.032542
    6  C  1  S   -0.077783  -0.049089   0.407892  -0.474679  -0.000007
    7  C  1  X    0.004018  -0.001944  -0.001554  -0.011659   0.176180
    8  C  1  Y    0.008723  -0.004210  -0.003426  -0.025265  -0.101945
    9  C  1  Z    0.007460  -0.003608  -0.002897  -0.021641   0.024205
   10  H  2  S    0.000791  -0.001038   0.078520  -0.106039   0.052840
   11  H  2  S    0.010565   0.011968   0.003523  -0.035687   0.044993
   12  C  3  S   -0.696426   0.698374  -0.158072  -0.140246  -0.000011
   13  C  3  S   -0.080636   0.077515   0.154305   0.131646   0.000015
   14  C  3  X   -0.000001  -0.000059   0.016196  -0.036029   0.236975
   15  C  3  Y   -0.000003  -0.000127   0.035162  -0.078129  -0.137083
   16  C  3  Z   -0.000002  -0.000110   0.030064  -0.066888   0.032552
   17  C  3  S    0.077615  -0.049355   0.407911   0.474685   0.000019
   18  C  3  X    0.004024   0.001931   0.001553  -0.011666   0.176211
   19  C  3  Y    0.008739   0.004180   0.003434  -0.025255  -0.101948
   20  C  3  Z    0.007471   0.003584   0.002899  -0.021651   0.024213
   21  H  4  S   -0.000795  -0.001035   0.078517   0.106040  -0.052848
   22  H  4  S   -0.010525   0.012004   0.003521   0.035683  -0.044998
   23  H  5  S   -0.000793  -0.001037   0.078514   0.106037   0.163599
   24  H  5  S   -0.010522   0.012001   0.003545   0.035693   0.139322
   25  H  6  S   -0.000794  -0.001036   0.078513   0.106028  -0.110765
   26  H  6  S   -0.010523   0.012002   0.003527   0.035685  -0.094336
   27  H  7  S    0.000790  -0.001039   0.078516  -0.106037  -0.163581
   28  H  7  S    0.010564   0.011965   0.003550  -0.035691  -0.139313
   29  H  8  S    0.000791  -0.001039   0.078514  -0.106027   0.110738
   30  H  8  S    0.010564   0.011966   0.003532  -0.035686   0.094315

                      6          7          8          9         10
                   -0.4280    -0.3590    -0.3368    -0.3368     0.1337
                     A          A          A          A          A   
    1  C  1  S    0.000010  -0.018675   0.000017  -0.000004  -0.113220
    2  C  1  S   -0.000007   0.019793  -0.000017   0.000002   0.053776
    3  C  1  X   -0.107470  -0.119043   0.236370   0.099799   0.036889
    4  C  1  Y   -0.134665  -0.258574  -0.131503   0.136209   0.080014
    5  C  1  Z    0.215251  -0.221204   0.026662  -0.212929   0.068437
    6  C  1  S   -0.000046   0.059102  -0.000057   0.000020   1.489414
    7  C  1  X   -0.079904  -0.088240   0.188113   0.079433   0.157119
    8  C  1  Y   -0.100132  -0.191694  -0.104654   0.108392   0.340739
    9  C  1  Z    0.160068  -0.163984   0.021224  -0.169471   0.291573
   10  H  2  S    0.158404  -0.075524   0.059170  -0.193911  -0.013921
   11  H  2  S    0.134928  -0.087638   0.063710  -0.208842  -0.730790
   12  C  3  S   -0.000013  -0.018676   0.000021  -0.000007  -0.113232
   13  C  3  S    0.000010   0.019791  -0.000023   0.000008   0.053774
   14  C  3  X   -0.107450   0.119035  -0.236337  -0.099815  -0.036895
   15  C  3  Y   -0.134622   0.258590   0.131491  -0.136238  -0.080004
   16  C  3  Z    0.215222   0.221191  -0.026661   0.212969  -0.068461
   17  C  3  S    0.000054   0.059126  -0.000063   0.000018   1.489583
   18  C  3  X   -0.079892   0.088237  -0.188082  -0.079449  -0.157151
   19  C  3  Y   -0.100100   0.191715   0.104645  -0.108425  -0.340716
   20  C  3  Z    0.160045   0.163985  -0.021221   0.169499  -0.291682
   21  H  4  S   -0.158370  -0.075512   0.059166  -0.193941  -0.013927
   22  H  4  S   -0.134904  -0.087618   0.063706  -0.208878  -0.730963
   23  H  5  S    0.033422  -0.075669  -0.197457   0.045768  -0.013926
   24  H  5  S    0.028471  -0.087758  -0.212608   0.049302  -0.730990
   25  H  6  S    0.124943  -0.075469   0.138420   0.148173  -0.013927
   26  H  6  S    0.106433  -0.087576   0.149055   0.159591  -0.730954
   27  H  7  S   -0.033440  -0.075655  -0.197475   0.045758  -0.013924
   28  H  7  S   -0.028485  -0.087742  -0.212631   0.049291  -0.730948
   29  H  8  S   -0.124974  -0.075468   0.138436   0.148154  -0.013930
   30  H  8  S   -0.106458  -0.087573   0.149076   0.159567  -0.730905

                     11         12         13         14         15
                    0.1836     0.1836     0.1873     0.2155     0.2155
                     A          A          A          A          A   
    1  C  1  S    0.000267   0.000050  -0.150077  -0.000010   0.000010
    2  C  1  S   -0.000113  -0.000011   0.052969   0.000005  -0.000007
    3  C  1  X    0.148672   0.182978   0.007597   0.106632   0.214200
    4  C  1  Y   -0.165561   0.053693   0.015476   0.119206  -0.130455
    5  C  1  Z    0.113442  -0.161299   0.013679  -0.196763   0.037066
    6  C  1  S   -0.003383  -0.000718   2.000643   0.000079  -0.000177
    7  C  1  X    0.465724   0.572938  -0.050669   0.491881   0.988378
    8  C  1  Y   -0.518257   0.168162  -0.113190   0.549863  -0.601928
    9  C  1  Z    0.355383  -0.504925  -0.095352  -0.907695   0.171005
   10  H  2  S   -0.067149   0.067265  -0.017860   0.046470  -0.017365
   11  H  2  S   -0.771914   0.774125  -0.733174   1.123553  -0.420492
   12  C  3  S   -0.000276  -0.000043   0.150065   0.000020  -0.000011
   13  C  3  S    0.000120   0.000007  -0.052954  -0.000011  -0.000001
   14  C  3  X    0.148610   0.182972   0.007588  -0.106622  -0.214250
   15  C  3  Y   -0.165566   0.053741   0.015500  -0.119170   0.130490
   16  C  3  Z    0.113462  -0.161339   0.013638   0.196697  -0.037057
   17  C  3  S    0.003480   0.000635  -2.000516  -0.000304   0.000120
   18  C  3  X    0.465514   0.572935  -0.050691  -0.491849  -0.988555
   19  C  3  Y   -0.518276   0.168324  -0.113063  -0.549746   0.602066
   20  C  3  Z    0.355473  -0.505079  -0.095534   0.907450  -0.170953
   21  H  4  S    0.067151  -0.067285   0.017846   0.046458  -0.017361
   22  H  4  S    0.771977  -0.774328   0.732843   1.123344  -0.420623
   23  H  5  S   -0.091866  -0.024515   0.017639  -0.008193   0.048904
   24  H  5  S   -1.058096  -0.282630   0.730007  -0.197370   1.183485
   25  H  6  S    0.024592   0.091815   0.017848  -0.038307  -0.031509
   26  H  6  S    0.282511   1.056428   0.732657  -0.925553  -0.763051
   27  H  7  S    0.091873   0.024531  -0.017625  -0.008196   0.048894
   28  H  7  S    1.058201   0.282831  -0.729890  -0.197650   1.183315
   29  H  8  S   -0.024618  -0.091806  -0.017844  -0.038310  -0.031509
   30  H  8  S   -0.282797  -1.056309  -0.732643  -0.925897  -0.762719

                     16         17         18         19         20
                    0.2532     0.6964     0.6964     0.7493     0.7901
                     A          A          A          A          A   
    1  C  1  S    0.056653  -0.000013   0.000006   0.003270  -0.051764
    2  C  1  S   -0.013630   0.000021  -0.000009   0.032262   0.147528
    3  C  1  X    0.107355   0.186699  -0.403538   0.234405  -0.238723
    4  C  1  Y    0.232995  -0.327870  -0.021143   0.508482  -0.517312
    5  C  1  Z    0.199338   0.282226   0.242251   0.435096  -0.442980
    6  C  1  S   -0.752217  -0.000367   0.000049  -0.544508  -0.417948
    7  C  1  X    0.507391  -0.270698   0.585114  -0.300849   0.450068
    8  C  1  Y    1.101240   0.475514   0.030542  -0.652572   0.975422
    9  C  1  Z    0.942146  -0.409033  -0.351271  -0.558504   0.835287
   10  H  2  S   -0.049100   0.411463   0.245114   0.141832  -0.178851
   11  H  2  S   -0.338463  -0.056883  -0.033913   0.081233  -0.164674
   12  C  3  S   -0.056657   0.000014  -0.000005   0.003275   0.051764
   13  C  3  S    0.013638   0.000001   0.000008   0.032241  -0.147532
   14  C  3  X    0.107354   0.186596  -0.403517  -0.234462  -0.238647
   15  C  3  Y    0.232966  -0.327944  -0.021207  -0.508485  -0.517388
   16  C  3  Z    0.199341   0.282193   0.242284  -0.435225  -0.442802
   17  C  3  S    0.752244   0.000289  -0.000066  -0.544438   0.418006
   18  C  3  X    0.507440  -0.270601   0.585104   0.300955   0.449946
   19  C  3  Y    1.101175   0.475595   0.030588   0.652589   0.975624
   20  C  3  Z    0.942204  -0.408946  -0.351278   0.558729   0.834954
   21  H  4  S    0.049089  -0.411432  -0.245150   0.141911   0.178745
   22  H  4  S    0.338526   0.056923   0.033991   0.081290   0.164592
   23  H  5  S    0.049088   0.418164  -0.233889   0.141811   0.178466
   24  H  5  S    0.338774  -0.057732   0.032143   0.081240   0.164584
   25  H  6  S    0.049078  -0.006312   0.478977   0.141853   0.178694
   26  H  6  S    0.338390   0.000683  -0.066211   0.081191   0.164583
   27  H  7  S   -0.049084  -0.418137   0.233932   0.141867  -0.178415
   28  H  7  S   -0.338869   0.057738  -0.032208   0.081230  -0.164533
   29  H  8  S   -0.049075   0.006405  -0.478971   0.141856  -0.178703
   30  H  8  S   -0.338404  -0.000782   0.066208   0.081165  -0.164565

                     21         22         23         24         25
                    0.8512     0.8514     0.9883     1.0727     1.0728
                     A          A          A          A          A   
    1  C  1  S   -0.000015  -0.000016   0.064258  -0.000011   0.000003
    2  C  1  S   -0.000021  -0.000029  -0.024915   0.000034  -0.000042
    3  C  1  X   -0.290913   0.637981  -0.092915   0.302620  -0.527564
    4  C  1  Y   -0.362040  -0.370223  -0.202232   0.282453   0.348909
    5  C  1  Z    0.579759   0.088915  -0.172477  -0.493045  -0.123533
    6  C  1  S   -0.000017   0.000089  -0.042571   0.000028   0.000124
    7  C  1  X    0.655160  -1.437124   0.012728  -0.399316   0.695584
    8  C  1  Y    0.815432   0.834104   0.028916  -0.372939  -0.460133
    9  C  1  Z   -1.305569  -0.200204   0.023654   0.650769   0.163026
   10  H  2  S    0.181316   0.060708   0.520001   0.520624   0.231342
   11  H  2  S    0.526962   0.177328  -0.256183  -0.988769  -0.438936
   12  C  3  S   -0.000004  -0.000007   0.064256   0.000011  -0.000004
   13  C  3  S   -0.000076  -0.000078  -0.024909  -0.000024   0.000051
   14  C  3  X    0.290847  -0.638079   0.092896   0.302716  -0.526917
   15  C  3  Y    0.361899   0.370145   0.202249   0.282924   0.348700
   16  C  3  Z   -0.579827  -0.089008   0.172455  -0.493629  -0.123628
   17  C  3  S    0.000111   0.000186  -0.042554  -0.000033  -0.000129
   18  C  3  X   -0.654985   1.437378  -0.012666  -0.399326   0.695486
   19  C  3  Y   -0.815062  -0.833928  -0.028944  -0.373007  -0.460110
   20  C  3  Z    1.305692   0.200419  -0.023570   0.650841   0.163040
   21  H  4  S    0.181278   0.060740   0.520021  -0.522597  -0.231368
   22  H  4  S    0.526985   0.177419  -0.256129   0.990768   0.438958
   23  H  5  S   -0.038071  -0.187508   0.520711   0.061058   0.566695
   24  H  5  S   -0.109985  -0.545695  -0.257715  -0.115368  -1.075756
   25  H  6  S   -0.143578   0.126353   0.520433   0.461755  -0.335390
   26  H  6  S   -0.416627   0.368582  -0.257016  -0.875611   0.636977
   27  H  7  S   -0.038113  -0.187463   0.520727  -0.060126  -0.568231
   28  H  7  S   -0.110092  -0.545716  -0.257672   0.114421   1.077315
   29  H  8  S   -0.143650   0.126291   0.520440  -0.460723   0.336918
   30  H  8  S   -0.416752   0.368446  -0.257040   0.874569  -0.638534

                     26         27         28         29         30
                    1.0782     1.0783     1.1415     1.6799     2.0290
                     A          A          A          A          A   
    1  C  1  S   -0.000037   0.000031   0.078695   0.007556  -0.074778
    2  C  1  S    0.000063  -0.000103  -0.337990  -1.388631  -1.535541
    3  C  1  X   -0.103880  -0.265572  -0.120347   0.019082  -0.005932
    4  C  1  Y   -0.156293   0.141832  -0.261244   0.041475  -0.012803
    5  C  1  Z    0.238892  -0.022919  -0.223612   0.035413  -0.010979
    6  C  1  S    0.000000   0.000102   0.190970   2.215049   4.015778
    7  C  1  X    0.018961   0.046277   0.286283   0.102345  -0.292517
    8  C  1  Y    0.028615  -0.024709   0.621318   0.221473  -0.635004
    9  C  1  Z   -0.043824   0.004159   0.531690   0.189984  -0.543112
   10  H  2  S   -0.742551   0.203396   0.484865  -0.043123  -0.295330
   11  H  2  S    0.756011  -0.206652  -0.583603  -0.578364  -0.417010
   12  C  3  S   -0.000032   0.000021  -0.078696   0.007552   0.074777
   13  C  3  S    0.000070  -0.000092   0.338006  -1.388714   1.535461
   14  C  3  X    0.103481   0.266889  -0.120360  -0.019076  -0.005949
   15  C  3  Y    0.155414  -0.142482  -0.261222  -0.041481  -0.012787
   16  C  3  Z   -0.237559   0.022849  -0.223609  -0.035409  -0.011012
   17  C  3  S   -0.000073   0.000158  -0.190973   2.215247  -4.015652
   18  C  3  X   -0.018484  -0.047936   0.286240  -0.102356  -0.292427
   19  C  3  Y   -0.027557   0.025621   0.621367  -0.221407  -0.635169
   20  C  3  Z    0.042044  -0.003998   0.531624  -0.189984  -0.542958
   21  H  4  S   -0.741050   0.203538  -0.484961  -0.043170   0.295371
   22  H  4  S    0.753263  -0.206922   0.583638  -0.578353   0.417040
   23  H  5  S    0.194261  -0.744342  -0.484749  -0.042961   0.295160
   24  H  5  S   -0.197581   0.757332   0.583661  -0.578208   0.416868
   25  H  6  S    0.546015   0.541379  -0.484756  -0.043087   0.295292
   26  H  6  S   -0.555352  -0.550708   0.583427  -0.578234   0.416946
   27  H  7  S    0.194745  -0.743037   0.484863  -0.042959  -0.295209
   28  H  7  S   -0.198468   0.754977  -0.583721  -0.578187  -0.416960
   29  H  8  S    0.546944   0.540395   0.484716  -0.043065  -0.295295
   30  H  8  S   -0.557036  -0.548891  -0.583392  -0.578217  -0.416982
 ...... END OF RHF CALCULATION ......
 CPU     0: STEP CPU TIME=     0.97 TOTAL CPU TIME=          1.0 (      0.0 MIN)
 TOTAL WALL CLOCK TIME=          1.3 SECONDS, CPU UTILIZATION IS    79.53%

     ---------------------------------------------------------------------
     PROPERTIES FOR THE B3LYP    DFT FUNCTIONAL (RHF  TYPE) DENSITY MATRIX
     ---------------------------------------------------------------------

          -----------------
          ENERGY COMPONENTS
          -----------------

         WAVEFUNCTION NORMALIZATION =       1.0000000000

                ONE ELECTRON ENERGY =    -188.1898928742
                TWO ELECTRON ENERGY =      66.8828239264
           NUCLEAR REPULSION ENERGY =      41.9716179677
                                      ------------------
                       TOTAL ENERGY =     -79.3354509801

 ELECTRON-ELECTRON POTENTIAL ENERGY =      66.8828239264
  NUCLEUS-ELECTRON POTENTIAL ENERGY =    -266.8007544037
   NUCLEUS-NUCLEUS POTENTIAL ENERGY =      41.9716179677
                                      ------------------
             TOTAL POTENTIAL ENERGY =    -157.9463125096
               TOTAL KINETIC ENERGY =      78.6108615295
                 VIRIAL RATIO (V/T) =       2.0092174216

          ---------------------------------------
          MULLIKEN AND LOWDIN POPULATION ANALYSES
          ---------------------------------------

     ATOMIC MULLIKEN POPULATION IN EACH MOLECULAR ORBITAL

                      1          2          3          4          5

                  2.000000   2.000000   2.000000   2.000000   2.000000

    1             0.999307   0.991097   0.867392   0.703656   0.611693
    2             0.001366   0.001834   0.044194   0.098786   0.025919
    3             0.992532   0.997872   0.867416   0.703668   0.611833
    4             0.001355   0.001844   0.044190   0.098786   0.025927
    5             0.001355   0.001844   0.044207   0.098784   0.248460
    6             0.001355   0.001844   0.044191   0.098768   0.113905
    7             0.001366   0.001833   0.044214   0.098784   0.248412
    8             0.001365   0.001833   0.044197   0.098768   0.113851

                      6          7          8          9

                  2.000000   2.000000   2.000000   2.000000

    1             0.611870   0.827417   0.474798   0.474618
    2             0.232937   0.057494   0.029828   0.320344
    3             0.611664   0.827439   0.474659   0.474826
    4             0.232847   0.057474   0.029825   0.320454
    5             0.010371   0.057685   0.332145   0.017848
    6             0.144929   0.057415   0.163246   0.187062
    7             0.010381   0.057664   0.332213   0.017840
    8             0.145000   0.057412   0.163286   0.187008

               ----- POPULATIONS IN EACH AO -----
                             MULLIKEN      LOWDIN
              1  C  1  S      1.98623     1.97430
              2  C  1  S      0.36801     0.41918
              3  C  1  X      0.56372     0.52419
              4  C  1  Y      0.55514     0.52027
              5  C  1  Z      0.55806     0.52161
              6  C  1  S      1.10153     0.58157
              7  C  1  X      0.50599     0.58387
              8  C  1  Y      0.45247     0.56488
              9  C  1  Z      0.47068     0.57134
             10  H  2  S      0.47158     0.47183
             11  H  2  S      0.34112     0.44109
             12  C  3  S      1.98623     1.97430
             13  C  3  S      0.36800     0.41918
             14  C  3  X      0.56372     0.52419
             15  C  3  Y      0.55514     0.52027
             16  C  3  Z      0.55806     0.52161
             17  C  3  S      1.10157     0.58158
             18  C  3  X      0.50600     0.58387
             19  C  3  Y      0.45248     0.56488
             20  C  3  Z      0.47070     0.57135
             21  H  4  S      0.47157     0.47183
             22  H  4  S      0.34113     0.44110
             23  H  5  S      0.47158     0.47182
             24  H  5  S      0.34112     0.44109
             25  H  6  S      0.47157     0.47182
             26  H  6  S      0.34115     0.44111
             27  H  7  S      0.47158     0.47182
             28  H  7  S      0.34113     0.44110
             29  H  8  S      0.47157     0.47182
             30  H  8  S      0.34115     0.44111

          ----- MULLIKEN ATOMIC OVERLAP POPULATIONS -----
          (OFF-DIAGONAL ELEMENTS NEED TO BE MULTIPLIED BY 2)

             1           2           3           4           5

    1    5.2872254
    2    0.3699011   0.5417623
    3    0.2842067  -0.0397862   5.2873044
    4   -0.0397827   0.0032802   0.3698962   0.5417751
    5   -0.0397628  -0.0023309   0.3699281  -0.0288916   0.5416775
    6   -0.0397848  -0.0023309   0.3699091  -0.0289133  -0.0288697
    7    0.3699293  -0.0288904  -0.0397619  -0.0023313   0.0032774
    8    0.3699155  -0.0289037  -0.0397864  -0.0023312  -0.0023290

             6           7           8

    6    0.5417541
    7   -0.0023289   0.5416897
    8    0.0032792  -0.0288786   0.5417546

          TOTAL MULLIKEN AND LOWDIN ATOMIC POPULATIONS
       ATOM         MULL.POP.    CHARGE          LOW.POP.     CHARGE
    1 C             6.561848   -0.561848         6.261219   -0.261219
    2 H             0.812702    0.187298         0.912927    0.087073
    3 C             6.561910   -0.561910         6.261238   -0.261238
    4 H             0.812701    0.187299         0.912929    0.087071
    5 H             0.812699    0.187301         0.912913    0.087087
    6 H             0.812715    0.187285         0.912928    0.087072
    7 H             0.812705    0.187295         0.912916    0.087084
    8 H             0.812720    0.187280         0.912929    0.087071

          -------------------------------
          BOND ORDER AND VALENCE ANALYSIS     BOND ORDER THRESHOLD=0.050
          -------------------------------

                   BOND                       BOND                       BOND
  ATOM PAIR DIST  ORDER      ATOM PAIR DIST  ORDER      ATOM PAIR DIST  ORDER
    1   2  1.096  0.926        1   3  1.545  0.956        1   7  1.096  0.926
    1   8  1.096  0.926        3   4  1.096  0.926        3   5  1.096  0.926
    3   6  1.096  0.926

                       TOTAL       BONDED        FREE
      ATOM            VALENCE     VALENCE     VALENCE
    1 C                 3.713       3.713      -0.000
    2 H                 0.918       0.918      -0.000
    3 C                 3.713       3.713      -0.000
    4 H                 0.918       0.918      -0.000
    5 H                 0.918       0.918       0.000
    6 H                 0.918       0.918      -0.000
    7 H                 0.918       0.918       0.000
    8 H                 0.918       0.918      -0.000

          ---------------------
          ELECTROSTATIC MOMENTS
          ---------------------

 POINT   1           X           Y           Z (BOHR)    CHARGE
                -1.952479   -1.371916   -0.122594       -0.00 (A.U.)
         DX          DY          DZ         /D/  (DEBYE)
    -0.000009    0.000064   -0.000007    0.000065

          -----------------------
          ELECTROSTATIC POTENTIAL
          -----------------------

   POINT      X          Y          Z           ELECTRONIC      NUCLEAR         TOTAL
                       (BOHR)                                    (A.U.)
 GAVEZZOTTI RADII USED FOR CHARGE FITTING
 {3,5+}NH,NK TEMPLATE USED, NH= 3 NK= 0
 NUMBER OF POINTS SELECTED FOR FITTING =     896
      1    1.42692   -2.91656    1.57355        -4.108743       4.104592      -0.004151
      2    1.92180   -1.62095    2.37427        -3.850022       3.845651      -0.004371
      3    0.13132   -3.71728    2.06842        -4.304939       4.302272      -0.002667
      4    0.82104    1.96582    3.06399        -3.585153       3.580896      -0.004257
      5    0.13132    3.06657    2.06842        -3.589850       3.585554      -0.004297
      6   -0.66941    2.57170    3.36402        -3.570184       3.565528      -0.004656
      7   -1.47013    1.76097   -2.60292        -4.148101       4.144146      -0.003955
      8   -0.66941    2.57170   -1.81838        -3.904223       3.899706      -0.004517
      9   -4.84587   -0.32535    2.85915        -3.994887       3.990376      -0.004510
     10   -5.35693   -0.32535    1.57355        -4.209567       4.206374      -0.003193
     11   -4.86206   -1.62095    2.37427        -4.288032       4.285021      -0.003011
     12   -1.41522   -2.66648    5.43151        -3.119007       3.123519       0.004512
     13   -0.37874   -2.27858    5.44446        -3.084680       3.088867       0.004187
     14    0.65775   -1.63800    5.04856        -3.149033       3.151336       0.002303
     15    1.28538   -0.99742    4.39998        -3.305610       3.305231      -0.000379
     16   -1.41522   -1.63800    5.84036        -3.034110       3.038743       0.004634
     17   -0.28240   -0.99742    5.69667        -3.040245       3.043835       0.003591
     18    0.65775   -0.35684    5.04856        -3.171517       3.172488       0.000971
     19   -1.41522   -0.35684    5.84036        -3.047842       3.051100       0.003258
     20   -0.37874    0.28374    5.44446        -3.119562       3.121040       0.001478
     21   -1.41522    0.67164    5.43151        -3.158392       3.159317       0.000925
     22    0.25384   -3.69801    2.73092        -3.931754       3.929965      -0.001789
     23    0.90243   -3.07038    3.37150        -3.611426       3.610337      -0.001089
     24    1.29833   -2.03390    4.01208        -3.394227       3.393739      -0.000488
     25   -0.13406   -3.71096    3.76740        -3.534536       3.535371       0.000835
     26    0.41772   -2.83035    4.56386        -3.266411       3.268554       0.002142
     27   -0.77464   -3.31506    4.80388        -3.250398       3.253774       0.003375
     28    1.29833    0.03906    4.01208        -3.452223       3.449788      -0.002435
     29    0.41772    0.83552    4.56386        -3.338501       3.336874      -0.001627
     30   -0.77464    1.32022    4.80388        -3.321222       3.319731      -0.001490
     31    1.69423   -0.99742    3.37150        -3.618850       3.615537      -0.003313
     32    1.55054   -2.13023    2.73092        -3.841247       3.837230      -0.004018
     33   -2.05580    1.32022    4.80388        -3.361588       3.359906      -0.001682
     34   -2.45170    0.28374    5.44446        -3.175566       3.176778       0.001212
     35   -3.24815    0.83552    4.56386        -3.459191       3.457045      -0.002146
     36   -3.48818   -0.35684    5.04856        -3.296987       3.297521       0.000534
     37   -4.12876    0.03906    4.01208        -3.660062       3.656972      -0.003090
     38   -4.11581   -0.99742    4.39998        -3.506871       3.506160      -0.000711
     39   -4.52466   -0.99742    3.37150        -3.933982       3.930569      -0.003414
     40   -3.08428   -3.69801    2.73092        -4.277877       4.275170      -0.002708
     41   -3.73286   -3.07038    3.37150        -3.930425       3.929339      -0.001086
     42   -4.12876   -2.03390    4.01208        -3.648291       3.647843      -0.000448
     43   -2.05580   -4.10686    2.73092        -4.185681       4.183268      -0.002413
     44   -0.77464   -4.10686    2.73092        -4.045681       4.044100      -0.001581
     45   -3.48818   -1.63800    5.04856        -3.286729       3.288784       0.002055
     46   -3.24815   -2.83035    4.56386        -3.423447       3.425446       0.001999
     47   -2.69638   -3.71096    3.76740        -3.696183       3.696652       0.000469
     48   -2.45170   -2.27858    5.44446        -3.150356       3.154411       0.004055
     49   -2.05580   -3.31506    4.80388        -3.303833       3.307115       0.003282
     50   -1.41522   -3.96317    3.86374        -3.581485       3.582680       0.001195
     51   -2.54803   -0.99742    5.69667        -3.101746       3.105130       0.003384
     52   -2.43482   -4.50481    2.35775        -4.148079       4.144122      -0.003957
     53    0.95711   -1.12289   -2.61945        -4.288036       4.285025      -0.003011
     54    1.45198   -2.41849   -1.81872        -4.209564       4.206371      -0.003193
     55    0.94093   -2.41849   -3.10432        -3.994889       3.990378      -0.004511
     56   -4.03627    0.97344   -2.31360        -4.304964       4.302297      -0.002667
     57   -5.33187    0.17271   -1.81872        -4.108767       4.104618      -0.004150
     58   -5.82674   -1.12289   -2.61945        -3.850049       3.845682      -0.004367
     59   -3.23554   -5.31554   -3.60920        -3.570189       3.565532      -0.004657
     60   -4.03627   -5.81042   -2.31360        -3.589849       3.585550      -0.004299
     61   -4.72599   -4.70966   -3.30917        -3.585164       3.580906      -0.004257
     62   -3.23554   -5.31554    1.57321        -3.904200       3.899678      -0.004522
     63   -0.82077    0.95417   -2.97611        -4.277908       4.275200      -0.002707
     64   -0.17219    0.32653   -3.61669        -3.930458       3.929371      -0.001087
     65    0.22371   -0.70995   -4.25727        -3.648321       3.647871      -0.000450
     66    0.61961   -1.74643   -3.61669        -3.934026       3.930610      -0.003416
     67    0.21077   -1.74643   -4.64517        -3.506898       3.506185      -0.000713
     68    0.22371   -2.78291   -4.25727        -3.660093       3.657002      -0.003091
     69   -2.48983   -3.41549   -5.67671        -3.158389       3.159313       0.000924
     70   -1.45335   -3.02759   -5.68965        -3.175572       3.176783       0.001211
     71   -0.41687   -2.38701   -5.29375        -3.297003       3.297536       0.000532
     72   -1.84925   -4.06407   -5.04907        -3.361590       3.359907      -0.001683
     73   -0.65689   -3.57936   -4.80905        -3.459208       3.457060      -0.002148
     74   -2.48983   -0.07737   -5.67671        -3.119007       3.123519       0.004511
     75   -1.45335   -0.46527   -5.68965        -3.150364       3.154417       0.004053
     76   -0.41687   -1.10585   -5.29375        -3.286746       3.288800       0.002053
     77   -2.48983   -1.10585   -6.08555        -3.034109       3.038742       0.004633
     78   -1.35701   -1.74643   -5.94186        -3.101753       3.105136       0.003383
     79   -2.48983   -2.38701   -6.08555        -3.047840       3.051098       0.003258
     80   -1.20867    0.96711   -4.01259        -3.696199       3.696668       0.000468
     81   -0.65689    0.08651   -4.80905        -3.423465       3.425463       0.001998
     82   -1.84925    0.57121   -5.04907        -3.303840       3.307121       0.003281
     83   -1.84925    1.36301   -2.97611        -4.185692       4.183280      -0.002412
     84   -3.13041    1.36301   -2.97611        -4.045671       4.044090      -0.001581
     85   -4.15889    0.95417   -2.97611        -3.931730       3.929941      -0.001788
     86   -3.77099    0.96711   -4.01259        -3.534524       3.535359       0.000835
     87   -2.48983    1.21933   -4.10893        -3.581486       3.582680       0.001195
     88   -3.13041    0.57121   -5.04907        -3.250394       3.253769       0.003375
     89   -4.80747    0.32653   -3.61669        -3.611401       3.610313      -0.001088
     90   -4.32276    0.08651   -4.80905        -3.266397       3.268539       0.002143
     91   -3.52631   -0.46527   -5.68965        -3.084673       3.088860       0.004187
     92   -5.20337   -0.70995   -4.25727        -3.394202       3.393715      -0.000487
     93   -4.56279   -1.10585   -5.29375        -3.149017       3.151321       0.002304
     94   -5.19042   -1.74643   -4.64517        -3.305585       3.305208      -0.000377
     95   -4.56279   -2.38701   -5.29375        -3.171498       3.172470       0.000972
     96   -3.62264   -1.74643   -5.94186        -3.040236       3.043827       0.003591
     97   -3.52631   -3.02759   -5.68965        -3.119552       3.121029       0.001478
     98   -5.45558   -0.61361   -2.97611        -3.841208       3.837193      -0.004015
     99   -5.59927   -1.74643   -3.61669        -3.618814       3.615504      -0.003310
    100   -5.20337   -2.78291   -4.25727        -3.452192       3.449759      -0.002433
    101   -3.13041   -4.06407   -5.04907        -3.321211       3.319720      -0.001490
    102   -4.32276   -3.57936   -4.80905        -3.338479       3.336853      -0.001626
    103   -1.20009   -5.74851    1.75598        -3.601979       3.601246      -0.000733
    104   -0.16361   -5.36061    1.76892        -3.607847       3.608253       0.000407
    105    0.87287   -4.72003    1.37302        -3.678283       3.678833       0.000550
    106    1.50051   -4.07945    0.72444        -3.783619       3.783531      -0.000087
    107   -1.20009   -4.72003    2.16482        -4.062892       4.060422      -0.002470
    108   -0.06727   -4.07945    2.02114        -4.204300       4.202184      -0.002116
    109    0.46897   -6.78004   -0.94462        -3.036184       3.040870       0.004686
    110    1.11755   -6.15241   -0.30404        -3.135558       3.139995       0.004437
    111    1.51345   -5.11593    0.33654        -3.390689       3.393344       0.002655
    112    0.08107   -6.79299    0.09186        -3.106023       3.110121       0.004098
    113    0.63285   -5.91238    0.88832        -3.297358       3.300433       0.003074
    114   -0.55951   -6.39709    1.12834        -3.303160       3.305136       0.001975
    115    1.51345   -3.04297    0.33654        -4.256494       4.253985      -0.002509
    116    1.76566   -2.94663   -0.94462        -4.053350       4.051553      -0.001797
    117    1.90935   -4.07945   -0.30404        -3.624241       3.625014       0.000773
    118    1.51345   -3.04297   -2.22578        -3.891344       3.888719      -0.002624
    119    1.90935   -4.07945   -1.58520        -3.515874       3.516469       0.000595
    120    1.50051   -4.07945   -2.61368        -3.494775       3.494220      -0.000555
    121    1.11755   -6.15241   -1.58520        -3.080463       3.084698       0.004235
    122    1.51345   -5.11593   -2.22578        -3.240662       3.242872       0.002210
    123    1.76566   -5.21226   -0.94462        -3.260218       3.263432       0.003215
    124   -1.20009   -5.74851   -3.64521        -3.338100       3.336603      -0.001497
    125   -0.16361   -5.36061   -3.65816        -3.305780       3.305121      -0.000659
    126    0.87287   -4.72003   -3.26226        -3.359329       3.358990      -0.000340
    127   -0.55951   -6.39709   -3.01758        -3.134482       3.135904       0.001421
    128    0.63285   -5.91238   -2.77755        -3.127202       3.129660       0.002458
    129    0.08107   -6.79299   -1.98110        -3.030102       3.033929       0.003827
    130    0.87287   -3.43887   -3.26226        -3.756629       3.753117      -0.003512
    131   -0.06727   -4.07945   -3.91037        -3.656333       3.652762      -0.003571
    132   -1.20009   -4.72003   -4.05406        -3.629905       3.626230      -0.003675
    133   -2.86915   -6.78004   -0.94462        -3.384639       3.382850      -0.001790
    134   -1.84067   -6.39709   -3.01758        -3.276694       3.275747      -0.000947
    135   -2.48125   -6.79299   -1.98110        -3.293462       3.292396      -0.001065
    136   -1.84067   -7.18889   -0.94462        -3.164232       3.165431       0.001200
    137   -1.20009   -7.04520   -2.07743        -3.093966       3.095964       0.001998
    138   -0.55951   -7.18889   -0.94462        -3.043981       3.047710       0.003729
    139   -3.03303   -5.91238    0.88832        -3.767645       3.763618      -0.004026
    140   -2.48125   -6.79299    0.09186        -3.369817       3.368766      -0.001051
    141   -2.23657   -5.36061    1.76892        -3.901718       3.898090      -0.003628
    142   -1.84067   -6.39709    1.12834        -3.444494       3.443815      -0.000679
    143   -1.20009   -7.04520    0.18820        -3.172042       3.174230       0.002188
    144   -4.34660   -4.68527    2.20874        -3.682207       3.680621      -0.001587
    145   -4.34660   -3.65679    2.61758        -3.925440       3.923808      -0.001632
    146   -4.34660   -2.37563    2.61758        -4.349476       4.347004      -0.002472
    147   -3.70602   -5.33385    1.58110        -3.781799       3.778193      -0.003606
    148   -6.01566   -0.31562   -0.49186        -3.992720       3.990539      -0.002180
    149   -5.62776   -0.30267    0.54462        -4.248153       4.245963      -0.002190
    150   -6.66424   -0.94325   -1.13244        -3.600107       3.599147      -0.000960
    151   -6.17953   -1.18327   -2.32479        -3.720074       3.716705      -0.003369
    152   -7.06014   -1.97973   -1.77302        -3.330396       3.330792       0.000396
    153   -6.41956   -2.37563   -2.80950        -3.460405       3.458384      -0.002021
    154   -7.04719   -3.01621   -2.16092        -3.209724       3.210738       0.001014
    155   -6.41956   -3.65679   -2.80950        -3.291910       3.291176      -0.000734
    156   -5.38308   -4.29737   -3.20540        -3.503375       3.500213      -0.003161
    157   -5.38308   -1.73505    2.22168        -4.004551       4.003098      -0.001453
    158   -6.17953   -1.18327    1.34108        -3.779549       3.779445      -0.000103
    159   -6.66424   -0.94325    0.14872        -3.622802       3.623105       0.000303
    160   -6.41956   -2.37563    1.82578        -3.469321       3.471400       0.002079
    161   -7.06014   -1.97973    0.78930        -3.343806       3.346584       0.002778
    162   -7.04719   -3.01621    1.17720        -3.207286       3.211261       0.003975
    163   -7.45604   -3.01621    0.14872        -3.115886       3.120186       0.004300
    164   -7.31235   -1.88339   -0.49186        -3.283004       3.285304       0.002300
    165   -7.45604   -3.01621   -1.13244        -3.116071       3.119236       0.003165
    166   -6.01566   -5.71681   -0.49186        -3.118614       3.120506       0.001892
    167   -6.66424   -5.08917    0.14872        -3.049930       3.053732       0.003803
    168   -7.06014   -4.05269    0.78930        -3.080798       3.085398       0.004600
    169   -6.66424   -5.08917   -1.13244        -3.059612       3.062369       0.002757
    170   -7.31235   -4.14903   -0.49186        -3.025356       3.029710       0.004354
    171   -7.06014   -4.05269   -1.77302        -3.091589       3.094007       0.002418
    172   -4.98718   -5.33385   -2.56482        -3.455515       3.452635      -0.002880
    173   -5.62776   -5.72975   -1.52834        -3.216107       3.216059      -0.000047
    174   -6.17953   -4.84915   -2.32479        -3.201587       3.201719       0.000131
    175   -4.98718   -6.12565   -0.49186        -3.306024       3.305194      -0.000830
    176   -4.34660   -5.98196   -1.62468        -3.534081       3.530738      -0.003343
    177   -6.41956   -3.65679    1.82578        -3.269541       3.272789       0.003248
    178   -6.17953   -4.84915    1.34108        -3.168765       3.171896       0.003131
    179   -5.62776   -5.72975    0.54462        -3.188826       3.190364       0.001539
    180   -5.38308   -4.29737    2.22168        -3.438257       3.439371       0.001114
    181   -4.98718   -5.33385    1.58110        -3.384385       3.384501       0.000115
    182   -4.34660   -5.98196    0.64096        -3.477833       3.475784      -0.002048
    183   -5.47941   -3.01621    2.47390        -3.651254       3.651798       0.000544
    184   -2.70482    1.97622    3.80881        -3.629933       3.626258      -0.003675
    185   -2.70482    3.00470    3.39996        -3.338115       3.336619      -0.001496
    186   -1.03576    4.03623    0.69937        -3.384625       3.382838      -0.001787
    187   -1.42366    4.04918    1.73585        -3.293456       3.292393      -0.001063
    188   -2.06424    3.65328    2.77233        -3.276698       3.275753      -0.000945
    189   -2.70482    3.00470   -2.00123        -3.601955       3.601225      -0.000731
    190   -1.66834    2.61680   -2.01417        -3.901681       3.898056      -0.003625
    191   -2.70482    1.97622   -2.41007        -4.062857       4.060389      -0.002469
    192   -1.42366    4.04918   -0.33711        -3.369798       3.368751      -0.001048
    193   -0.87188    3.16858   -1.13357        -3.767612       3.763591      -0.004021
    194   -2.06424    3.65328   -1.37359        -3.444472       3.443796      -0.000676
    195   -2.06424    4.44508    0.69937        -3.164223       3.165425       0.001202
    196   -3.34540    4.44508    0.69937        -3.043979       3.047709       0.003730
    197   -4.37388    4.03623    0.69937        -3.036186       3.040873       0.004686
    198   -2.70482    4.30139    1.83219        -3.093967       3.095965       0.001999
    199   -3.98598    4.04918    1.73585        -3.030108       3.033935       0.003827
    200   -3.34540    3.65328    2.77233        -3.134493       3.135914       0.001422
    201   -3.98598    4.04918   -0.33711        -3.106020       3.110119       0.004099
    202   -2.70482    4.30139   -0.43345        -3.172031       3.174221       0.002190
    203   -3.34540    3.65328   -1.37359        -3.303148       3.305124       0.001977
    204   -5.02246    3.40860    0.05879        -3.135562       3.139999       0.004437
    205   -4.53776    3.16858   -1.13357        -3.297355       3.300429       0.003075
    206   -3.74130    2.61680   -2.01417        -3.607831       3.608239       0.000408
    207   -5.41836    2.37212   -0.58179        -3.390696       3.393351       0.002655
    208   -4.77778    1.97622   -1.61827        -3.678280       3.678830       0.000550
    209   -5.40542    1.33564   -0.96969        -3.783629       3.783542      -0.000087
    210   -3.83764    1.33564   -2.26639        -4.204281       4.202165      -0.002116
    211   -3.74130    2.61680    3.41291        -3.305802       3.305143      -0.000659
    212   -4.53776    3.16858    2.53231        -3.127217       3.129675       0.002458
    213   -5.02246    3.40860    1.33995        -3.080473       3.084708       0.004235
    214   -4.77778    1.97622    3.01701        -3.359357       3.359017      -0.000340
    215   -5.41836    2.37212    1.98053        -3.240682       3.242891       0.002209
    216   -5.40542    1.33564    2.36843        -3.494807       3.494251      -0.000556
    217   -5.81426    1.33564    1.33995        -3.515901       3.516495       0.000594
    218   -5.67058    2.46846    0.69937        -3.260232       3.263446       0.003214
    219   -5.81426    1.33564    0.05879        -3.624260       3.625033       0.000773
    220   -5.41836    0.29916    1.98053        -3.891388       3.888763      -0.002625
    221   -5.67058    0.20282    0.69937        -4.053388       4.051592      -0.001797
    222   -5.41836    0.29916   -0.58179        -4.256520       4.254012      -0.002508
    223   -4.77778    0.69506    3.01701        -3.756674       3.753161      -0.003512
    224   -3.83764    1.33564    3.66512        -3.656371       3.652801      -0.003571
    225    2.51453   -0.36808    2.56419        -3.460463       3.458439      -0.002024
    226    3.14217    0.27250    1.91561        -3.209759       3.210772       0.001012
    227    2.51453    0.91308    2.56419        -3.291944       3.291208      -0.000736
    228    1.47805    1.55366    2.96009        -3.503403       3.500241      -0.003162
    229    2.11063   -2.42810    0.24655        -3.992799       3.990617      -0.002182
    230    2.75921   -1.80046    0.88713        -3.600170       3.599208      -0.000962
    231    3.15511   -0.76398    1.52771        -3.330444       3.330838       0.000394
    232    2.27451   -1.56044    2.07949        -3.720157       3.716784      -0.003373
    233    3.15511    1.30898    1.52771        -3.091606       3.094023       0.002418
    234    2.75921    2.34546    0.88713        -3.059609       3.062367       0.002758
    235    2.11063    2.97309    0.24655        -3.118594       3.120488       0.001894
    236    2.27451    2.10544    2.07949        -3.201597       3.201728       0.000132
    237    1.72273    2.98604    1.28303        -3.216093       3.216047      -0.000046
    238    1.08215    2.59014    2.31951        -3.455513       3.452635      -0.002878
    239    2.75921    2.34546   -0.39403        -3.049915       3.053719       0.003804
    240    3.40733    1.40532    0.24655        -3.025360       3.029714       0.004354
    241    3.55101    0.27250    0.88713        -3.116094       3.119258       0.003164
    242    3.15511    1.30898   -1.03461        -3.080790       3.085391       0.004601
    243    3.55101    0.27250   -0.39403        -3.115897       3.120196       0.004299
    244    3.14217    0.27250   -1.42251        -3.207284       3.211259       0.003975
    245    2.75921   -1.80046   -0.39403        -3.622846       3.623147       0.000302
    246    3.15511   -0.76398   -1.03461        -3.343822       3.346600       0.002778
    247    3.40733   -0.86032    0.24655        -3.283037       3.285335       0.002298
    248    1.47805   -1.00866   -2.46699        -4.004534       4.003081      -0.001453
    249    2.51453   -0.36808   -2.07109        -3.469314       3.471393       0.002079
    250    2.27451   -1.56044   -1.58638        -3.779569       3.779465      -0.000104
    251    1.72273   -2.44104   -0.78993        -4.248218       4.246027      -0.002191
    252    0.44157    1.94156   -2.45404        -3.682133       3.680549      -0.001583
    253    1.47805    1.55366   -2.46699        -3.438210       3.439326       0.001116
    254    2.51453    0.91308   -2.07109        -3.269520       3.272770       0.003250
    255    0.44157    0.91308   -2.86289        -3.925363       3.923734      -0.001630
    256    1.57439    0.27250   -2.71920        -3.651216       3.651761       0.000545
    257    0.44157   -0.36808   -2.86289        -4.349408       4.346936      -0.002472
    258    1.72273    2.98604   -0.78993        -3.188790       3.190332       0.001542
    259    2.27451    2.10544   -1.58638        -3.168736       3.171869       0.003133
    260    1.08215    2.59014   -1.82641        -3.384331       3.384450       0.000119
    261    1.08215    3.38194    0.24655        -3.305986       3.305160      -0.000826
    262    0.44157    3.23825    1.37937        -3.534048       3.530708      -0.003340
    263    0.44157    3.23825   -0.88626        -3.477770       3.475726      -0.002043
    264   -0.19901    2.59014   -1.82641        -3.781708       3.778107      -0.003601
    265    1.84078   -3.28673    1.68794        -3.683565       3.680804      -0.002760
    266    2.40636   -1.80604    2.60305        -3.445871       3.442814      -0.003056
    267    1.14835    2.29313    3.39130        -3.207408       3.204171      -0.003237
    268    0.36010    3.55113    2.25351        -3.211444       3.208203      -0.003241
    269   -0.55502    2.98556    3.73420        -3.195246       3.191728      -0.003517
    270   -1.47013    2.05902   -3.08517        -3.719000       3.716404      -0.002596
    271   -0.55502    2.98556   -2.18855        -3.496255       3.493126      -0.003129
    272   -4.43150    0.58976    4.08374        -3.411479       3.408499      -0.002980
    273   -5.32812   -0.32535    3.15719        -3.579929       3.576850      -0.003079
    274   -5.91219   -0.32535    1.68794        -3.772417       3.770283      -0.002135
    275   -1.41522   -2.90491    5.81731        -2.896498       2.899364       0.002866
    276   -0.23067   -2.46160    5.83211        -2.862387       2.865009       0.002622
    277    0.95388   -1.72951    5.37965        -2.919195       2.920412       0.001217
    278    1.67118   -0.99742    4.63842        -3.060770       3.060033      -0.000737
    279   -1.41522   -1.72951    6.28457        -2.814651       2.817601       0.002950
    280   -0.12057   -0.99742    6.12035        -2.817806       2.819963       0.002158
    281    0.95388   -0.26532    5.37965        -2.936221       2.936433       0.000211
    282   -1.41522   -0.26532    6.28457        -2.824197       2.826102       0.001906
    283   -0.23067    0.46677    5.83211        -2.887751       2.888312       0.000562
    284   -1.41522    0.91008    5.81731        -2.923280       2.923439       0.000159
    285    0.49228   -4.08381    2.73092        -3.665466       3.663878      -0.001588
    286    1.23352   -3.36651    3.46301        -3.355171       3.353979      -0.001192
    287    1.68597   -2.18197    4.19510        -3.146595       3.145796      -0.000799
    288    0.04897   -4.09861    3.91547        -3.289170       3.289362       0.000192
    289    0.67957   -3.09220    4.82570        -3.032465       3.033588       0.001123
    290   -0.68312   -3.64615    5.10002        -3.020881       3.022904       0.002024
    291    1.68597    0.18713    4.19510        -3.191088       3.188859      -0.002228
    292    0.67957    1.09737    4.82570        -3.085641       3.083895      -0.001746
    293   -0.68312    1.65132    5.10002        -3.069634       3.067969      -0.001665
    294    2.13843   -0.99742    3.46301        -3.347462       3.344683      -0.002779
    295   -2.14731    1.65132    5.10002        -3.107867       3.106138      -0.001729
    296   -2.59977    0.46677    5.83211        -2.941109       2.941511       0.000402
    297   -3.51000    1.09737    4.82570        -3.200500       3.198519      -0.001982
    298   -3.78431   -0.26532    5.37965        -3.056405       3.056340      -0.000065
    299   -4.51641    0.18713    4.19510        -3.390869       3.388215      -0.002654
    300   -4.50161   -0.99742    4.63842        -3.255155       3.254214      -0.000941
    301   -4.06395   -3.36651    3.46301        -3.671551       3.670318      -0.001233
    302   -4.51641   -2.18197    4.19510        -3.394517       3.393812      -0.000704
    303   -0.68312   -4.55106    2.73092        -3.783623       3.782030      -0.001593
    304   -3.78431   -1.72951    5.37965        -3.051913       3.052975       0.001062
    305   -3.51000   -3.09220    4.82570        -3.185171       3.186182       0.001011
    306   -2.87940   -4.09861    3.91547        -3.448415       3.448171      -0.000245
    307   -2.59977   -2.46160    5.83211        -2.925649       2.928177       0.002528
    308   -2.14731   -3.64615    5.10002        -3.072773       3.074709       0.001936
    309   -1.41522   -4.38685    4.02557        -3.337748       3.338103       0.000355
    310   -2.70986   -0.99742    6.12035        -2.876695       2.878715       0.002020
    311   -2.43482   -4.80286    2.84000        -3.718982       3.716384      -0.002598
    312    2.00724   -2.41849   -1.93311        -3.772413       3.770279      -0.002135
    313    1.42318   -2.41849   -3.40237        -3.579930       3.576851      -0.003080
    314    0.52656   -3.33360   -4.32891        -3.411482       3.408502      -0.002981
    315   -5.74573    0.54288   -1.93311        -3.683584       3.680825      -0.002759
    316   -6.31131   -0.93780   -2.84822        -3.445892       3.442838      -0.003054
    317   -3.34993   -5.72941   -3.97937        -3.195250       3.191732      -0.003518
    318   -4.26505   -6.29498   -2.49868        -3.211443       3.208201      -0.003243
    319   -5.05330   -5.03697   -3.63648        -3.207416       3.204179      -0.003237
    320   -3.34993   -5.72941    1.94338        -3.496237       3.493105      -0.003132
    321    0.15891    0.62267   -3.70820        -3.671583       3.670350      -0.001233
    322    0.61136   -0.56188   -4.44029        -3.394545       3.393840      -0.000706
    323    0.59657   -1.74643   -4.88361        -3.255180       3.254238      -0.000942
    324    0.61136   -2.93098   -4.44029        -3.390898       3.388242      -0.002656
    325   -2.48983   -3.65392   -6.06250        -2.923277       2.923436       0.000159
    326   -1.30528   -3.21061   -6.07730        -2.941115       2.941516       0.000401
    327   -0.12073   -2.47852   -5.62484        -3.056421       3.056354      -0.000066
    328   -1.75774   -4.39516   -5.34521        -3.107869       3.106139      -0.001730
    329   -0.39504   -3.84121   -5.07090        -3.200515       3.198533      -0.001983
    330   -2.48983    0.16107   -6.06250        -2.896499       2.899364       0.002866
    331   -1.30528   -0.28224   -6.07730        -2.925657       2.928184       0.002527
    332   -0.12073   -1.01434   -5.62484        -3.051929       3.052990       0.001060
    333   -2.48983   -1.01434   -6.52976        -2.814651       2.817600       0.002949
    334   -1.19518   -1.74643   -6.36554        -2.876702       2.878721       0.002019
    335   -2.48983   -2.47852   -6.52976        -2.824196       2.826101       0.001905
    336   -1.02564    1.35476   -4.16066        -3.448431       3.448187      -0.000245
    337   -0.39504    0.34836   -5.07090        -3.185188       3.186198       0.001010
    338   -1.75774    0.90230   -5.34521        -3.072780       3.074715       0.001936
    339   -3.22192    1.80722   -2.97611        -3.783615       3.782022      -0.001593
    340   -4.39732    1.33997   -2.97611        -3.665444       3.663856      -0.001587
    341   -3.95401    1.35476   -4.16066        -3.289159       3.289352       0.000193
    342   -2.48983    1.64301   -4.27076        -3.337750       3.338105       0.000355
    343   -3.22192    0.90230   -5.34521        -3.020877       3.022901       0.002024
    344   -5.13856    0.62267   -3.70820        -3.355149       3.353957      -0.001191
    345   -4.58461    0.34836   -5.07090        -3.032452       3.033575       0.001123
    346   -3.67438   -0.28224   -6.07730        -2.862381       2.865002       0.002621
    347   -5.59102   -0.56188   -4.44029        -3.146572       3.145775      -0.000797
    348   -4.85893   -1.01434   -5.62484        -2.919181       2.920399       0.001218
    349   -5.57622   -1.74643   -4.88361        -3.060747       3.060012      -0.000736
    350   -4.85893   -2.47852   -5.62484        -2.936205       2.936417       0.000212
    351   -3.78448   -1.74643   -6.36554        -2.817798       2.819956       0.002157
    352   -3.67438   -3.21061   -6.07730        -2.887742       2.888303       0.000562
    353   -6.04348   -1.74643   -3.70820        -3.347429       3.344653      -0.002776
    354   -5.59102   -2.93098   -4.44029        -3.191061       3.188834      -0.002227
    355   -3.22192   -4.39516   -5.34521        -3.069624       3.067959      -0.001665
    356   -4.58461   -3.84121   -5.07090        -3.085622       3.083877      -0.001746
    357   -1.20009   -5.98694    2.14178        -3.347737       3.346809      -0.000929
    358   -0.01554   -5.54363    2.15657        -3.359272       3.359159      -0.000113
    359    1.16901   -4.81154    1.70412        -3.430724       3.430578      -0.000145
    360    1.88630   -4.07945    0.96288        -3.532962       3.532248      -0.000714
    361    0.70741   -7.16584   -0.94462        -2.816775       2.819765       0.002990
    362    1.44864   -6.44854   -0.21253        -2.912336       2.915146       0.002810
    363    1.90110   -5.26400    0.51957        -3.155671       3.157128       0.001457
    364    0.26409   -7.18064    0.23993        -2.882798       2.885355       0.002558
    365    0.89470   -6.17423    1.15017        -3.065693       3.067492       0.001799
    366   -0.46800   -6.72818    1.42448        -3.067606       3.068611       0.001005
    367    2.18934   -2.78480   -0.94462        -3.787032       3.785455      -0.001577
    368    2.35356   -4.07945   -0.21253        -3.377768       3.377852       0.000084
    369    1.90110   -2.89490   -2.40880        -3.619541       3.617282      -0.002260
    370    2.35356   -4.07945   -1.67671        -3.269709       3.269735       0.000025
    371    1.88630   -4.07945   -2.85211        -3.244064       3.243236      -0.000828
    372    1.44864   -6.44854   -1.67671        -2.858421       2.861079       0.002658
    373    1.90110   -5.26400   -2.40880        -3.007681       3.008849       0.001169
    374    2.18934   -5.37409   -0.94462        -3.029912       3.031820       0.001908
    375   -1.20009   -5.98694   -4.03101        -3.086083       3.084469      -0.001615
    376   -0.01554   -5.54363   -4.04581        -3.059465       3.058515      -0.000950
    377    1.16901   -4.81154   -3.59335        -3.113297       3.112601      -0.000695
    378   -0.46800   -6.72818   -3.31372        -2.902000       2.902533       0.000533
    379    0.89470   -6.17423   -3.03940        -2.898532       2.899860       0.001327
    380    0.26409   -7.18064   -2.12917        -2.808648       2.810982       0.002334
    381   -3.10759   -7.16584   -0.94462        -3.129757       3.127980      -0.001777
    382   -1.93218   -6.72818   -3.31372        -3.029420       3.028164      -0.001257
    383   -2.66427   -7.18064   -2.12917        -3.045124       3.043803      -0.001322
    384   -1.93218   -7.63309   -0.94462        -2.930051       2.930435       0.000384
    385   -1.20009   -7.46888   -2.23927        -2.864806       2.865759       0.000952
    386   -0.46800   -7.63309   -0.94462        -2.821795       2.824059       0.002264
    387   -2.66427   -7.18064    0.23993        -3.119995       3.118783      -0.001212
    388   -1.93218   -6.72818    1.42448        -3.194646       3.193715      -0.000931
    389   -1.20009   -7.46888    0.35003        -2.941116       2.942253       0.001137
    390   -4.34660   -4.92371    2.59454        -3.421678       3.420134      -0.001543
    391   -4.34660   -3.74830    3.06179        -3.660580       3.659100      -0.001480
    392   -6.25409    0.07018   -0.49186        -3.722495       3.720645      -0.001850
    393   -6.99533   -0.64711   -1.22395        -3.344755       3.343656      -0.001099
    394   -6.44138   -0.92143   -2.58664        -3.447365       3.444505      -0.002861
    395   -7.44779   -1.83166   -1.95604        -3.088291       3.088131      -0.000160
    396   -6.71570   -2.28412   -3.14059        -3.202641       3.200750      -0.001891
    397   -7.43299   -3.01621   -2.39935        -2.973508       2.973776       0.000268
    398   -6.71570   -3.74830   -3.14059        -3.045498       3.044471      -0.001027
    399   -5.53115   -1.55203    2.60933        -3.747320       3.745437      -0.001884
    400   -6.44138   -0.92143    1.60293        -3.528236       3.527581      -0.000655
    401   -6.99533   -0.64711    0.24023        -3.373456       3.373272      -0.000184
    402   -6.71570   -2.28412    2.15687        -3.230842       3.231855       0.001013
    403   -7.44779   -1.83166    0.97233        -3.110084       3.111659       0.001575
    404   -7.43299   -3.01621    1.41564        -2.980747       2.983209       0.002462
    405   -7.90024   -3.01621    0.24023        -2.892897       2.895606       0.002709
    406   -7.73603   -1.72156   -0.49186        -3.049096       3.050338       0.001242
    407   -7.90024   -3.01621   -1.22395        -2.889916       2.891774       0.001858
    408   -6.25409   -6.10260   -0.49186        -2.888352       2.889242       0.000890
    409   -6.99533   -5.38531    0.24023        -2.827762       2.830085       0.002323
    410   -7.44779   -4.20076    0.97233        -2.859717       2.862648       0.002931
    411   -6.99533   -5.38531   -1.22395        -2.834064       2.835587       0.001523
    412   -7.73603   -4.31086   -0.49186        -2.805477       2.808212       0.002735
    413   -7.44779   -4.20076   -1.95604        -2.863930       2.865211       0.001281
    414   -5.07869   -5.66494   -2.86096        -3.190560       3.187814      -0.002747
    415   -5.81078   -6.11740   -1.67641        -2.975110       2.974540      -0.000570
    416   -6.44138   -5.11100   -2.58664        -2.961810       2.961367      -0.000442
    417   -5.07869   -6.56986   -0.49186        -3.058813       3.057727      -0.001086
[...]
    706    2.23159    0.81854    4.91147        -2.690703       2.689464      -0.001239
    707   -1.47013    2.65511    5.59531        -2.667450       2.666083      -0.001368
    708    2.66851   -4.02707    1.91672        -3.037272       3.036330      -0.000941
    709    3.37548   -2.17621    3.06061        -2.844922       2.843676      -0.001246
    710    1.80297    2.94775    4.04592        -2.651303       2.649670      -0.001633
    711    0.81766    4.52026    2.62368        -2.654403       2.652787      -0.001616
    712   -0.32624    3.81329    4.47454        -2.642643       2.640839      -0.001804
    713   -1.47013    2.65511   -4.04967        -3.064749       3.063929      -0.000820
    714    0.38073    1.96243   -4.07279        -3.054269       3.053561      -0.000708
    715   -0.32624    3.81329   -2.92889        -2.886756       2.885494      -0.001262
    716   -0.32624    5.22722    0.77282        -2.701245       2.700094      -0.001152
    717   -3.32099    1.96243    5.61843        -2.718038       2.716927      -0.001111
    718   -5.17185    0.81854    4.91147        -2.816188       2.814965      -0.001223
    719   -6.29262   -0.32535    3.75329        -2.955065       2.953873      -0.001192
    720   -1.41522   -3.38179    6.58891        -2.535886       2.537277       0.001391
    721    0.06547   -2.82765    6.60741        -2.503597       2.504843       0.001246
    722    1.54616   -1.91253    6.04183        -2.548213       2.548647       0.000434
    723    2.44278   -0.99742    5.11529        -2.663870       2.663250      -0.000620
    724   -1.41522   -1.91253    7.17298        -2.461536       2.462965       0.001429
    725    0.20309   -0.99742    6.96771        -2.460680       2.461629       0.000949
    726    1.54616   -0.08230    6.04183        -2.557273       2.557108      -0.000164
    727   -1.41522   -0.08230    7.17298        -2.465226       2.466023       0.000797
    728    0.06547    0.83281    6.60741        -2.515406       2.515404      -0.000002
    729   -1.41522    1.38695    6.58891        -2.545100       2.544881      -0.000219
    730    1.89570   -3.95879    3.64603        -2.929118       2.928374      -0.000744
    731    2.46127   -2.47810    4.56115        -2.742247       2.741624      -0.000622
    732    0.41501   -4.87390    4.21161        -2.880012       2.879981      -0.000031
    733    1.20327   -3.61590    5.34940        -2.651096       2.651515       0.000419
    734   -0.50010   -4.30833    5.69229        -2.645543       2.646457       0.000914
    735   -2.89590    0.83281    6.60741        -2.563092       2.563053      -0.000039
    736   -4.37659   -0.08230    6.04183        -2.665402       2.665153      -0.000249
    737   -5.27321   -0.99742    5.11529        -2.840216       2.839556      -0.000660
    738   -5.29170   -2.47810    4.56115        -2.969107       2.968666      -0.000441
    739   -4.37659   -1.91253    6.04183        -2.668504       2.668893       0.000389
    740   -4.03370   -3.61590    5.34940        -2.790424       2.790783       0.000359
    741   -3.24545   -4.87390    4.21161        -3.026395       3.025918      -0.000477
    742   -2.89590   -2.82765    6.60741        -2.560933       2.562133       0.001199
    743   -2.33033   -4.30833    5.69229        -2.692836       2.693676       0.000840
    744   -1.41522   -5.23421    4.34923        -2.927475       2.927400      -0.000075
    745   -3.03353   -0.99742    6.96771        -2.513746       2.514639       0.000893
    746   -2.43482   -5.39895    3.80450        -3.064736       3.063915      -0.000821
    747    2.38767   -2.41849   -3.99846        -2.955066       2.953874      -0.001193
    748   -2.43482   -5.39895   -5.84049        -2.667455       2.666087      -0.001368
    749   -0.58396   -4.70628   -5.86361        -2.718042       2.716931      -0.001111
    750    1.26690   -3.56238   -5.15664        -2.816190       2.814967      -0.001224
    751   -6.57346    1.28323   -2.16189        -3.037285       3.036345      -0.000940
    752   -7.28043   -0.56763   -3.30578        -2.844936       2.843691      -0.001245
    753   -7.25731   -2.41849   -3.99846        -2.746082       2.744954      -0.001129
    754   -6.13653   -3.56238   -5.15664        -2.690714       2.689475      -0.001239
    755   -3.57871   -6.55714   -4.71971        -2.642647       2.640842      -0.001805
    756   -4.72260   -7.26410   -2.86885        -2.654403       2.652786      -0.001617
    757   -5.70792   -5.69159   -4.29110        -2.651308       2.649675      -0.001633
    758   -3.57871   -7.97107   -1.01800        -2.701240       2.700086      -0.001154
    759   -4.28568   -4.70628    3.82761        -3.054258       3.053550      -0.000709
    760   -3.57871   -6.55714    2.68372        -2.886745       2.885481      -0.001264
    761    1.38666   -0.26574   -4.80634        -2.969132       2.968690      -0.000442
    762    1.36817   -1.74643   -5.36048        -2.840237       2.839576      -0.000661
    763   -2.48983   -4.13080   -6.83410        -2.545098       2.544878      -0.000220
    764   -1.00914   -3.57666   -6.85260        -2.563097       2.563057      -0.000040
    765    0.47155   -2.66154   -6.28703        -2.665415       2.665166      -0.000250
    766   -2.48983    0.63794   -6.83410        -2.535887       2.537278       0.001391
    767   -1.00914    0.08380   -6.85260        -2.560940       2.562139       0.001199
    768    0.47155   -0.83131   -6.28703        -2.668518       2.668906       0.000388
    769   -2.48983   -0.83131   -7.41817        -2.461537       2.462965       0.001429
    770   -0.87152   -1.74643   -7.21290        -2.513752       2.514645       0.000893
    771   -2.48983   -2.66154   -7.41817        -2.465225       2.466022       0.000796
    772   -0.65960    2.13006   -4.45680        -3.026410       3.025934      -0.000476
    773    0.12865    0.87205   -5.59459        -2.790439       2.790797       0.000358
    774   -1.57471    1.56449   -5.93748        -2.692842       2.693682       0.000840
    775   -4.32006    2.13006   -4.45680        -2.880003       2.879972      -0.000031
    776   -2.48983    2.49036   -4.59442        -2.927478       2.927403      -0.000075
    777   -3.40494    1.56449   -5.93748        -2.645541       2.646454       0.000914
    778   -5.80074    1.21495   -3.89123        -2.929100       2.928357      -0.000743
    779   -5.10831    0.87205   -5.59459        -2.651086       2.651505       0.000419
    780   -3.97051    0.08380   -6.85260        -2.503592       2.504838       0.001246
    781   -6.36632   -0.26574   -4.80634        -2.742228       2.741607      -0.000621
    782   -5.45120   -0.83131   -6.28703        -2.548201       2.548636       0.000435
    783   -6.34782   -1.74643   -5.36048        -2.663852       2.663233      -0.000619
    784   -5.45120   -2.66154   -6.28703        -2.557260       2.557096      -0.000164
    785   -4.10814   -1.74643   -7.21290        -2.460674       2.461623       0.000949
    786   -3.97051   -3.57666   -6.85260        -2.515399       2.515397      -0.000002
    787   -1.20009   -6.46382    2.91338        -2.924567       2.923968      -0.000599
    788    0.28060   -5.90968    2.93187        -2.942103       2.941932      -0.000171
    789    1.76128   -4.99456    2.36630        -3.010115       3.009747      -0.000368
    790    1.18428   -7.93744   -0.94462        -2.463636       2.465090       0.001454
    791    2.11083   -7.04082   -0.02950        -2.550091       2.551449       0.001359
    792    2.67640   -5.56013    0.88561        -2.766438       2.766990       0.000553
    793    0.63014   -7.95593    0.53607        -2.521918       2.523131       0.001213
    794    1.41839   -6.69793    1.67386        -2.685416       2.686200       0.000784
    795   -0.28497   -7.39036    2.01676        -2.682496       2.682857       0.000361
    796    3.24197   -4.07945   -0.02950        -2.961838       2.961677      -0.000161
    797    3.24197   -4.07945   -1.85973        -2.860756       2.860641      -0.000114
    798    2.65790   -4.07945   -3.32899        -2.830970       2.830368      -0.000602
    799    2.11083   -7.04082   -1.85973        -2.500126       2.501392       0.001266
    800    2.67640   -5.56013   -2.77485        -2.628715       2.629152       0.000438
    801    3.03670   -5.69776   -0.94462        -2.653154       2.654006       0.000852
    802   -1.20009   -6.46382   -4.80261        -2.678403       2.677236      -0.001168
    803    0.28060   -5.90968   -4.82111        -2.660610       2.659863      -0.000747
    804    1.76128   -4.99456   -4.25553        -2.712563       2.711987      -0.000576
    805   -0.28497   -7.39036   -3.90599        -2.528189       2.528188      -0.000000
    806    1.41839   -6.69793   -3.56310        -2.529942       2.530432       0.000490
    807    0.63014   -7.95593   -2.42530        -2.453181       2.454233       0.001052
    808   -2.11520   -7.39036   -3.90599        -2.630593       2.629548      -0.001045
    809   -3.03032   -7.95593   -2.42530        -2.644175       2.643128      -0.001048
    810   -2.11520   -8.52151   -0.94462        -2.552845       2.552784      -0.000061
    811   -1.20009   -8.31624   -2.56293        -2.496907       2.497134       0.000227
    812   -0.28497   -8.52151   -0.94462        -2.464842       2.465859       0.001016
    813   -3.03032   -7.95593    0.53607        -2.713852       2.713004      -0.000848
    814   -2.11520   -7.39036    2.01676        -2.785141       2.784461      -0.000680
    815   -1.20009   -8.31624    0.67369        -2.567784       2.568180       0.000396
    816   -7.65751   -0.05484   -1.40697        -2.920400       2.919703      -0.000697
    817   -8.22308   -1.53552   -2.32209        -2.693858       2.693567      -0.000291
    818   -8.20459   -3.01621   -2.87623        -2.591820       2.591724      -0.000096
    819   -7.30797   -3.93133   -3.80277        -2.647091       2.646274      -0.000817
    820   -7.65751   -0.05484    0.42326        -2.954510       2.954310      -0.000200
    821   -7.30797   -2.10110    2.81906        -2.833180       2.833463       0.000283
    822   -8.22308   -1.53552    1.33837        -2.724942       2.725596       0.000654
    823   -8.20459   -3.01621    1.89251        -2.611073       2.612226       0.001153
    824   -8.78866   -3.01621    0.42326        -2.531854       2.533156       0.001302
    825   -8.58339   -1.39790   -0.49186        -2.666951       2.667442       0.000491
    826   -8.78866   -3.01621   -1.40697        -2.524975       2.525777       0.000802
    827   -6.73097   -6.87420   -0.49186        -2.518050       2.518265       0.000215
    828   -7.65751   -5.97758    0.42326        -2.470595       2.471650       0.001055
    829   -8.22308   -4.49690    1.33837        -2.502580       2.504007       0.001427
    830   -7.65751   -5.97758   -1.40697        -2.472181       2.472744       0.000563
    831   -8.58339   -4.63452   -0.49186        -2.452197       2.453493       0.001296
    832   -8.22308   -4.49690   -2.32209        -2.498065       2.498503       0.000438
    833   -6.17683   -6.89270   -1.97254        -2.586943       2.586303      -0.000640
    834   -6.96508   -5.63469   -3.11034        -2.575826       2.575249      -0.000576
    835   -5.26171   -7.45827   -0.49186        -2.658769       2.657935      -0.000834
    836   -7.30797   -3.93133    2.81906        -2.661782       2.662641       0.000859
    837   -6.96508   -5.63469    2.12662        -2.571414       2.572222       0.000808
    838   -6.17683   -6.89270    0.98883        -2.577723       2.577842       0.000120
    839   -5.82728   -4.84644    3.38463        -2.796022       2.796078       0.000056
    840   -5.26171   -6.32713    2.46952        -2.739413       2.739029      -0.000384
    841   -5.96491   -3.01621    3.74493        -2.984131       2.983904      -0.000227
    842   -2.70482    3.72001    4.55736        -2.678414       2.677247      -0.001167
    843   -0.87459    5.21213    2.18006        -2.644171       2.643124      -0.001046
    844   -1.78971    4.64656    3.66074        -2.630596       2.629551      -0.001045
    845   -2.70482    3.72001   -3.15862        -2.924549       2.923951      -0.000598
    846   -0.87459    5.21213   -0.78132        -2.713838       2.712992      -0.000846
    847   -1.78971    4.64656   -2.26200        -2.785125       2.784446      -0.000679
    848   -1.78971    5.77770    0.69937        -2.552839       2.552779      -0.000060
    849   -3.61994    5.77770    0.69937        -2.464841       2.465858       0.001017
    850   -5.08919    5.19363    0.69937        -2.463638       2.465093       0.001454
    851   -2.70482    5.57243    2.31768        -2.496907       2.497135       0.000228
    852   -4.53505    5.21213    2.18006        -2.453185       2.454238       0.001053
    853   -3.61994    4.64656    3.66074        -2.528196       2.528196       0.000000
    854   -4.53505    5.21213   -0.78132        -2.521916       2.523129       0.001213
    855   -2.70482    5.57243   -0.91894        -2.567775       2.568173       0.000397
    856   -3.61994    4.64656   -2.26200        -2.682487       2.682849       0.000362
    857   -6.01574    4.29701   -0.21575        -2.550094       2.551453       0.001359
    858   -5.32330    3.95412   -1.91911        -2.685413       2.686198       0.000785
    859   -4.18551    3.16587   -3.17712        -2.942091       2.941921      -0.000170
    860   -6.58131    2.81633   -1.13086        -2.766443       2.766996       0.000553
    861   -5.66619    2.25075   -2.61155        -3.010113       3.009746      -0.000367
    862   -4.18551    3.16587    4.57586        -2.660626       2.659879      -0.000746
    863   -5.32330    3.95412    3.31785        -2.529953       2.530443       0.000490
    864   -6.01574    4.29701    1.61448        -2.500134       2.501400       0.001267
    865   -5.66619    2.25075    4.01028        -2.712583       2.712007      -0.000576
    866   -6.58131    2.81633    2.52960        -2.628730       2.629168       0.000438
    867   -6.56281    1.33564    3.08374        -2.830994       2.830392      -0.000602
    868   -7.14688    1.33564    1.61448        -2.860776       2.860662      -0.000114
    869   -6.94161    2.95395    0.69937        -2.653165       2.654017       0.000852
    870   -7.14688    1.33564   -0.21575        -2.961854       2.961693      -0.000161
    871    4.29956    0.27250    2.63092        -2.591846       2.591750      -0.000096
    872    3.40295    1.18761    3.55747        -2.647116       2.646298      -0.000818
    873    3.75249   -2.68887    1.16167        -2.920449       2.919751      -0.000698
    874    4.31806   -1.20819    2.07678        -2.693894       2.693602      -0.000292
    875    4.31806    1.75319    2.07678        -2.498077       2.498515       0.000438
    876    3.75249    3.23387    1.16167        -2.472179       2.472743       0.000564
    877    2.82594    4.13049    0.24655        -2.518035       2.518251       0.000216
    878    3.06005    2.89098    2.86503        -2.575833       2.575257      -0.000576
    879    2.27180    4.14899    1.72724        -2.586933       2.586294      -0.000639
    880    3.75249    3.23387   -0.66856        -2.470583       2.471639       0.001056
    881    4.67836    1.89081    0.24655        -2.452200       2.453497       0.001296
    882    4.88363    0.27250    1.16167        -2.524993       2.525794       0.000802
    883    4.31806    1.75319   -1.58368        -2.502573       2.504001       0.001428
    884    4.88363    0.27250   -0.66856        -2.531863       2.533164       0.001302
    885    4.29956    0.27250   -2.13782        -2.611072       2.612225       0.001154
    886    3.75249   -2.68887   -0.66856        -2.954545       2.954344      -0.000200
    887    4.31806   -1.20819   -1.58368        -2.724955       2.725609       0.000654
    888    4.67836   -1.34581    0.24655        -2.666977       2.667467       0.000490
    889    3.40295   -0.64262   -3.06436        -2.833175       2.833458       0.000283
    890    1.92226    2.10273   -3.62994        -2.795986       2.796043       0.000057
    891    3.40295    1.18761   -3.06436        -2.661766       2.662626       0.000860
    892    2.05988    0.27250   -3.99024        -2.984101       2.983875      -0.000226
    893    2.27180    4.14899   -1.23413        -2.577696       2.577818       0.000121
    894    3.06005    2.89098   -2.37193        -2.571391       2.572201       0.000809
    895    1.35669    3.58341   -2.71482        -2.739372       2.738990      -0.000382
    896    1.35669    4.71456    0.24655        -2.658741       2.657910      -0.000832

 NET CHARGES:
 -------------------------------------
 ATOM                CHARGE    E.S.D.
 -------------------------------------
 C                  -0.1195    0.1368
 H                   0.0396    0.0089
 C                  -0.1195    0.1368
 H                   0.0396    0.0089
 H                   0.0403    0.0089
 H                   0.0396    0.0089
 H                   0.0403    0.0089
 H                   0.0396    0.0089
 -------------------------------------

 RMS DEVIATION IS            0.958 KCAL/MOLE
 RELATIVE RMS DEVIATION IS  82.676 %

 MULTIPOLE MOMENTS:
 ---------------------------------------------------------
 STATUS  ACTUAL VALUE       QUANTITY        FITTED VALUE 
 ---------------------------------------------------------
 FIXED       0.0000       TOTAL CHARGE        -0.0000
             0.0001 D    DIPOLE MOMENT         0.0001 D
 FREE       -0.0000 D          DX             -0.0000 D
 FREE        0.0001 D          DY              0.0001 D
 FREE       -0.0000 D          DZ             -0.0000 D
 FREE        0.0000 BU         QXX            -0.0940 BU
 FREE        0.0000 BU         QYY             0.0837 BU
 FREE        0.0000 BU         QZZ             0.0103 BU
 FREE        0.0000 BU         QXY             0.0860 BU
 FREE        0.0000 BU         QXZ             0.0772 BU
 FREE        0.0000 BU         QYZ             0.1780 BU
 ---------------------------------------------------------
 ...... END OF PROPERTY EVALUATION ......
 CPU     0: STEP CPU TIME=     0.05 TOTAL CPU TIME=          1.1 (      0.0 MIN)
 TOTAL WALL CLOCK TIME=          1.4 SECONDS, CPU UTILIZATION IS    77.94%
               580000  WORDS OF DYNAMIC MEMORY USED
 EXECUTION OF GAMESS TERMINATED NORMALLY Sun May 17 12:12:03 2020
 DDI: 263640 bytes (0.3 MB / 0 MWords) used by master data server.
Note: The following floating-point exceptions are signalling: IEEE_UNDERFLOW_FLAGNote: The following floating-point exceptions are signalling: IEEE_UNDERFLOW_FLAGNote: The following floating-point exceptions are signalling: IEEE_UNDERFLOW_FLAGNote: The following floating-point exceptions are signalling: IEEE_UNDERFLOW_FLAGNote: The following floating-point exceptions are signalling: IEEE_UNDERFLOW_FLAG
 ----------------------------------------
 CPU timing information for all processes
 ========================================
 0: 0.915 + 0.153 = 1.68
 1: 0.784 + 0.35 = 0.819
 2: 0.741 + 0.23 = 0.765
 3: 0.872 + 0.35 = 0.907
 4: 0.801 + 0.27 = 0.829
 5: 0.718 + 0.05 = 0.723
 ----------------------------------------
 IEEE_DENORMAL IEEE_DENORMAL
 IEEE_DENORMAL IEEE_DENORMAL
 IEEE_DENORMAL
Note: The following floating-point exceptions are signalling:

 IEEE_UNDERFLOW_FLAG IEEE_DENORMAL
 ddikick.x: exited gracefully.
unset echo
----- accounting info -----
Files used on the master node pietdev were:
-rwxr-xr-x 1 piet piet      671 mei 17 12:12 /home/piet/scr/ethane_charge_geodisk.F05*
-rw-r--r-- 1 piet piet 50790400 mei 17 12:12 /home/piet/scr/ethane_charge_geodisk.F10
ls: No match.
ls: No match.
ls: No match.
zo 17 mei 2020 12:12:06 CEST
0.098u 0.035s 0:04.51 2.6%	0+0k 0+8io 0pf+0w
