----- GAMESS execution script 'rungms' -----
This job is running on host pietdev
under operating system Linux at zo 17 mei 2020 12:12:13 CEST
Available scratch disk space (Kbyte units) at beginning of the job is
Filesystem     1K-blocks     Used Available Use% Mounted on
/dev/sda2      244568380 30346168 201729156  14% /
GAMESS temporary binary files will be written to /home/piet/scr
GAMESS supplementary output files will be written to /home/piet/gamess/scr
Copying input file ethane_fukui_neu.inp to your run's scratch directory...
cp ethane_fukui_neu.inp /home/piet/scr/ethane_fukui_neu.F05
unset echo
 
Assuming a single but multicore node.
 
/home/piet/gamess/ddikick.x /home/piet/gamess/gamess.03.x ethane_fukui_neu -ddi 1 6 pietdev:cpus=6 -scr /home/piet/scr

 Distributed Data Interface kickoff program.
 Initiating 6 compute processes on 1 nodes to run the following command:
 /home/piet/gamess/gamess.03.x ethane_fukui_neu 

          ******************************************************
          *         GAMESS VERSION = 30 SEP 2019 (R2)          *
          *             FROM IOWA STATE UNIVERSITY             *
          * M.W.SCHMIDT, K.K.BALDRIDGE, J.A.BOATZ, S.T.ELBERT, *
          *   M.S.GORDON, J.H.JENSEN, S.KOSEKI, N.MATSUNAGA,   *
          *          K.A.NGUYEN, S.J.SU, T.L.WINDUS,           *
          *       TOGETHER WITH M.DUPUIS, J.A.MONTGOMERY       *
          *         J.COMPUT.CHEM.  14, 1347-1363(1993)        *
          **************** 64 BIT LINUX VERSION ****************

  SINCE 1993, STUDENTS AND POSTDOCS WORKING AT IOWA STATE UNIVERSITY
  AND ALSO IN THEIR VARIOUS JOBS AFTER LEAVING ISU HAVE MADE IMPORTANT
  CONTRIBUTIONS TO THE CODE:
     IVANA ADAMOVIC, CHRISTINE AIKENS, YURI ALEXEEV, POOJA ARORA,
     ANDREY ASADCHEV, ROB BELL, PRADIPTA BANDYOPADHYAY, JONATHAN BENTZ,
     COLLEEN BERTONI, BRETT BODE, KURT BRORSEN, CALEB CARLIN, GALINA CHABAN,
     WEI CHEN, CHEOL HO CHOI, PAUL DAY, ALBERT DEFUSCO, NUWAN DESILVA,
     TIM DUDLEY, DMITRI FEDOROV, ALEX FINDLATER, GRAHAM FLETCHER, 
     MARK FREITAG, KURT GLAESEMANN, EMILIE B GUIDEZ, ANASTASIA GUNINA, 
     DAN KEMP, SAROM SOK LEANG, GRANT MERRILL,
     NORIYUKI MINEZAWA, JONATHAN MULLIN,
     TAKESHI NAGATA, SEAN NEDD, HEATHER NETZLOFF, BOSILJKA NJEGIC, RYAN OLSON,
     MIKE PAK, BUU PHAM, DAVID POOLE,
     SPENCER PRUITT, LUKE ROSKOP, TOSAPORN SATTASATHUCHANA,
     JIM SHOEMAKER, LYUDMILA SLIPCHENKO,
     TONY SMITH, JIE SONG, TETSUYA TAKETSUGU, SIMON WEBB,
     JORGE LUIS GALVEZ VALLEJO, PENG XU, SOOHAENG YOO,
     FEDERICO ZAHARIEV

  ADDITIONAL CODE HAS BEEN PROVIDED BY COLLABORATORS IN OTHER GROUPS:
     IOWA STATE UNIVERSITY:
          JOE IVANIC, AARON WEST, LAIMUTIS BYTAUTAS, KLAUS RUEDENBERG
     UNIVERSITY OF TOKYO: KIMIHIKO HIRAO, TAKAHITO NAKAJIMA,
          TAKAO TSUNEDA, MUNEAKI KAMIYA, SUSUMU YANAGISAWA,
          KIYOSHI YAGI, MAHITO CHIBA, SEIKEN TOKURA, NAOAKI KAWAKAMI
     UNIVERSITY OF AARHUS: FRANK JENSEN
     UNIVERSITY OF IOWA: VISVALDAS KAIRYS, HUI LI
     NATIONAL INST. OF STANDARDS AND TECHNOLOGY: WALT STEVENS, DAVID GARMER
     UNIVERSITY OF PISA: BENEDETTA MENNUCCI, JACOPO TOMASI
     UNIVERSITY OF MEMPHIS: HENRY KURTZ, PRAKASHAN KORAMBATH
     UNIVERSITY OF ALBERTA: TOBY ZENG, MARIUSZ KLOBUKOWSKI
     UNIVERSITY OF NEW ENGLAND: MARK SPACKMAN
     MIE UNIVERSITY: HIROAKI UMEDA
     NAT. INST. OF ADVANCED INDUSTRIAL SCIENCE AND TECHNOLOGY: KAZUO KITAURA
     MICHIGAN STATE UNIVERSITY:
          KAROL KOWALSKI, MARTA WLOCH, JEFFREY GOUR, JESSE LUTZ,
          WEI LI, JUN SHEN, J. EMILIANO DEUSTUA, PIOTR PIECUCH
     UNIVERSITY OF MINNESOTA:
          ANDREW SAND, PRACHI SHARMA, YINAN SHU
     UNIVERSITY OF SILESIA: MONIKA MUSIAL, STANISLAW KUCHARSKI
     FACULTES UNIVERSITAIRES NOTRE-DAME DE LA PAIX:
          OLIVIER QUINET, BENOIT CHAMPAGNE
     UNIVERSITY OF CALIFORNIA - SANTA BARBARA: BERNARD KIRTMAN
     INSTITUTE FOR MOLECULAR SCIENCE:
          KAZUYA ISHIMURA, MICHIO KATOUDA, AND SHIGERU NAGASE
     UNIVERSITY OF NOTRE DAME: ANNA POMOGAEVA, DAN CHIPMAN
     KYUSHU UNIVERSITY:
          HARUYUKI NAKANO,
          FENG LONG GU, JACEK KORCHOWIEC, MARCIN MAKOWSKI, AND YURIKO AOKI,
          HIROTOSHI MORI AND EISAKU MIYOSHI
     PENNSYLVANIA STATE UNIVERSITY:
          TZVETELIN IORDANOV, CHET SWALINA, JONATHAN SKONE,
          SHARON HAMMES-SCHIFFER
     WASEDA UNIVERSITY:
          MASATO KOBAYASHI, TOMOKO AKAMA, TSUGUKI TOUMA,
          TAKESHI YOSHIKAWA, YASUHIRO IKABATA, JUNJI SEINO,
          YUYA NAKAJIMA, HIROMI NAKAI
     NANJING UNIVERSITY: SHUHUA LI
     UNIVERSITY OF NEBRASKA:
          PEIFENG SU, DEJUN SI, NANDUN THELLAMUREGE, YALI WANG, HUI LI
     UNIVERSITY OF ZURICH: ROBERTO PEVERATI, KIM BALDRIDGE
     N. COPERNICUS UNIVERSITY AND JACKSON STATE UNIVERSITY:
          MARIA BARYSZ
     UNIVERSITY OF COPENHAGEN: Jimmy Kromann, CASPER STEINMANN
     TOKYO INSTITUTE OF TECHNOLOGY: HIROYA NAKATA
     NAGOYA UNIVERSITY: YOSHIO NISHIMOTO, STEPHAN IRLE
     MOSCOW STATE UNIVERSITY: VLADIMIR MIRONOV
     A.N.NESMEYANOV INSTITUTE OF ORGANOELEMENT COMPOUNDS OF RUSSIAN ACADEMY OF SCIENCES:
          IGOR S. GERASIMOV
     JOHANNES KEPLER UNIVERSITY LINZ:
          CHRISTIAN FRIEDL


 PARALLEL VERSION RUNNING ON        6 PROCESSORS IN        1 NODES.

 EXECUTION OF GAMESS BEGUN Sun May 17 12:12:14 2020

            ECHO OF THE FIRST FEW INPUT CARDS -
 INPUT CARD> $BASIS GBASIS=N21 NGAUSS=3 $END                                                
 INPUT CARD> $CONTRL SCFTYP=RHF MAXIT=60 MULT=1 ICHARG=0 $END                               
 INPUT CARD> $SYSTEM MEMDDI=1000 MWORDS=30 $END                                             
 INPUT CARD> $SCF DIRSCF=.TRUE. $END                                                        
 INPUT CARD> $DATA                                                                          
 INPUT CARD>                                                                                
 INPUT CARD>C1                                                                              
 INPUT CARD>C 6.0000000 -0.7779600000 -0.1721700000 0.4089600000                            
 INPUT CARD>H 1.0000000 -0.7489000000 -0.5278100000 1.4451400000                            
 INPUT CARD>C 6.0000000 -1.2884500000 -1.2798100000 -0.5387000000                           
 INPUT CARD>H 1.0000000 -1.3175600000 -0.9241700000 -1.5748900000                           
 INPUT CARD>H 1.0000000 -0.6350600000 -2.1587500000 -0.4998700000                           
 INPUT CARD>H 1.0000000 -2.3001200000 -1.5961100000 -0.2602800000                           
 INPUT CARD>H 1.0000000 -1.4313300000 0.7067900000 0.3700900000                             
 INPUT CARD>H 1.0000000 0.2336700000 0.1442000000 0.1304700000                              
 INPUT CARD> $END                                                                           
   30000000 WORDS OF MEMORY AVAILABLE

     BASIS OPTIONS
     -------------
     GBASIS=N21          IGAUSS=       3      POLAR=NONE    
     NDFUNC=       0     NFFUNC=       0     DIFFSP=       F
     NPFUNC=       0      DIFFS=       F     BASNAM=        


     RUN TITLE
     ---------
                                                                                 

 THE POINT GROUP OF THE MOLECULE IS C1      
 THE ORDER OF THE PRINCIPAL AXIS IS     0

 ATOM      ATOMIC                      COORDINATES (BOHR)
           CHARGE         X                   Y                   Z
 C           6.0    -1.4701312294       -0.3253541233        0.7728223399
 H           1.0    -1.4152157922       -0.9974162736        2.7309186139
 C           6.0    -2.4348174489       -2.4184902163       -1.0179953896
 H           1.0    -2.4898273724       -1.7464280661       -2.9761105608
 H           1.0    -1.2000893858       -4.0794459760       -0.9446173295
 H           1.0    -4.3465965389       -3.0162105463       -0.4918578801
 H           1.0    -2.7048214980        1.3356394309        0.6993686908
 H           1.0     0.4415722716        0.2724984874        0.2465525496

          INTERNUCLEAR DISTANCES (ANGS.)
          ------------------------------

                1 C          2 H          3 C          4 H          5 H     

   1 C       0.0000000    1.0958984 *  1.5445148 *  2.1891398 *  2.1892676 *
   2 H       1.0958984 *  0.0000000    2.1891184 *  3.0985572    2.5408638 *
   3 C       1.5445148 *  2.1891184 *  0.0000000    1.0959092 *  1.0958840 *
   4 H       2.1891398 *  3.0985572    1.0959092 *  0.0000000    1.7736014 *
   5 H       2.1892676 *  2.5408638 *  1.0958840 *  1.7736014 *  0.0000000  
   6 H       2.1891684 *  2.5408671 *  1.0959195 *  1.7734506 *  1.7738072 *
   7 H       1.0958896 *  1.7736066 *  2.1892678 *  2.5408505 *  3.0987410  
   8 H       1.0959206 *  1.7735271 *  2.1891647 *  2.5408624 *  2.5407871 *

                6 H          7 H          8 H     

   1 C       2.1891684 *  1.0958896 *  1.0959206 *
   2 H       2.5408671 *  1.7736066 *  1.7735271 *
   3 C       1.0959195 *  2.1892678 *  2.1891647 *
   4 H       1.7734506 *  2.5408505 *  2.5408624 *
   5 H       1.7738072 *  3.0987410    2.5407871 *
   6 H       0.0000000    2.5407697 *  3.0986217  
   7 H       2.5407697 *  0.0000000    1.7737391 *
   8 H       3.0986217    1.7737391 *  0.0000000  

  * ... LESS THAN  3.000


     ATOMIC BASIS SET
     ----------------
 THE CONTRACTED PRIMITIVE FUNCTIONS HAVE BEEN UNNORMALIZED
 THE CONTRACTED BASIS FUNCTIONS ARE NOW NORMALIZED TO UNITY

  SHELL TYPE  PRIMITIVE        EXPONENT          CONTRACTION COEFFICIENT(S)

 C         

      1   S       1           172.2560000    0.061766907377
      1   S       2            25.9109000    0.358794042852
      1   S       3             5.5333500    0.700713083689

      2   L       4             3.6649800   -0.395895162119    0.236459946619
      2   L       5             0.7705450    1.215834355681    0.860618805716

      3   L       6             0.1958570    1.000000000000    1.000000000000

 H         

      4   S       7             5.4471780    0.156284978695
      4   S       8             0.8245472    0.904690876670

      5   S       9             0.1831916    1.000000000000

 C         

      6   S      10           172.2560000    0.061766907377
      6   S      11            25.9109000    0.358794042852
      6   S      12             5.5333500    0.700713083689

      7   L      13             3.6649800   -0.395895162119    0.236459946619
      7   L      14             0.7705450    1.215834355681    0.860618805716

      8   L      15             0.1958570    1.000000000000    1.000000000000

 H         

      9   S      16             5.4471780    0.156284978695
      9   S      17             0.8245472    0.904690876670

     10   S      18             0.1831916    1.000000000000

 H         

     11   S      19             5.4471780    0.156284978695
     11   S      20             0.8245472    0.904690876670

     12   S      21             0.1831916    1.000000000000

 H         

     13   S      22             5.4471780    0.156284978695
     13   S      23             0.8245472    0.904690876670

     14   S      24             0.1831916    1.000000000000

 H         

     15   S      25             5.4471780    0.156284978695
     15   S      26             0.8245472    0.904690876670

     16   S      27             0.1831916    1.000000000000

 H         

     17   S      28             5.4471780    0.156284978695
     17   S      29             0.8245472    0.904690876670

     18   S      30             0.1831916    1.000000000000

 TOTAL NUMBER OF BASIS SET SHELLS             =   18
 NUMBER OF CARTESIAN GAUSSIAN BASIS FUNCTIONS =   30
 NUMBER OF ELECTRONS                          =   18
 CHARGE OF MOLECULE                           =    0
 SPIN MULTIPLICITY                            =    1
 NUMBER OF OCCUPIED ORBITALS (ALPHA)          =    9
 NUMBER OF OCCUPIED ORBITALS (BETA )          =    9
 TOTAL NUMBER OF ATOMS                        =    8
 THE NUCLEAR REPULSION ENERGY IS       41.9716179677

     $CONTRL OPTIONS
     ---------------
 SCFTYP=RHF          RUNTYP=ENERGY       EXETYP=RUN     
 MPLEVL=       0     CITYP =NONE         CCTYP =NONE         VBTYP =NONE    
 DFTTYP=NONE         TDDFT =NONE    
 MULT  =       1     ICHARG=       0     NZVAR =       0     COORD =UNIQUE  
 PP    =NONE         RELWFN=NONE         LOCAL =NONE         NUMGRD=       F
 ISPHER=      -1     NOSYM =       0     MAXIT =      60     UNITS =ANGS    
 PLTORB=       F     MOLPLT=       F     AIMPAC=       F     FRIEND=        
 NPRINT=       7     IREST =       0     GEOM  =INPUT   
 NORMF =       0     NORMP =       0     ITOL  =      20     ICUT  =       9
 INTTYP=BEST         GRDTYP=BEST         QMTTOL= 1.0E-06

     $SYSTEM OPTIONS
     ---------------
  REPLICATED MEMORY=    30000000 WORDS (ON EVERY NODE).
 DISTRIBUTED MEMDDI=        1000 MILLION WORDS IN AGGREGATE,
 MEMDDI DISTRIBUTED OVER   6 PROCESSORS IS   166666666 WORDS/PROCESSOR.
 TOTAL MEMORY REQUESTED ON EACH PROCESSOR=   196666666 WORDS.
 TIMLIM=      525600.00 MINUTES, OR     365.0 DAYS.
 PARALL= T  BALTYP=  DLB     KDIAG=    0  COREFL= F
 MXSEQ2=     300 MXSEQ3=     150  mem10=         0

          ----------------
          PROPERTIES INPUT
          ----------------

     MOMENTS            FIELD           POTENTIAL          DENSITY
 IEMOM =       1   IEFLD =       0   IEPOT =       0   IEDEN =       0
 WHERE =COMASS     WHERE =NUCLEI     WHERE =NUCLEI     WHERE =NUCLEI  
 OUTPUT=BOTH       OUTPUT=BOTH       OUTPUT=BOTH       OUTPUT=BOTH    
 IEMINT=       0   IEFINT=       0                     IEDINT=       0
                                                       MORB  =       0
          EXTRAPOLATION IN EFFECT
          SOSCF IN EFFECT
 ORBITAL PRINTING OPTION: NPREO=     1    30     2     1

     -------------------------------
     INTEGRAL TRANSFORMATION OPTIONS
     -------------------------------
     NWORD  =            0
     CUTOFF = 1.0E-09     MPTRAN =       0
     DIRTRF =       T     AOINTS =DUP     

          ----------------------
          INTEGRAL INPUT OPTIONS
          ----------------------
 NOPK  =       1 NORDER=       0 SCHWRZ=       T

     ------------------------------------------
     THE POINT GROUP IS C1 , NAXIS= 0, ORDER= 1
     ------------------------------------------

     DIMENSIONS OF THE SYMMETRY SUBSPACES ARE
 A   =   30

 ..... DONE SETTING UP THE RUN .....
 CPU     0: STEP CPU TIME=     0.02 TOTAL CPU TIME=          0.0 (      0.0 MIN)
 TOTAL WALL CLOCK TIME=          0.0 SECONDS, CPU UTILIZATION IS    66.67%

          ********************
          1 ELECTRON INTEGRALS
          ********************
 ...... END OF ONE-ELECTRON INTEGRALS ......
 CPU     0: STEP CPU TIME=     0.01 TOTAL CPU TIME=          0.0 (      0.0 MIN)
 TOTAL WALL CLOCK TIME=          0.0 SECONDS, CPU UTILIZATION IS    75.00%

          -------------
          GUESS OPTIONS
          -------------
          GUESS =HUCKEL            NORB  =       0          NORDER=       0
          MIX   =       F          PRTMO =       F          PUNMO =       F
          TOLZ  = 1.0E-08          TOLE  = 1.0E-05
          SYMDEN=       F          PURIFY=       F

 INITIAL GUESS ORBITALS GENERATED BY HUCKEL   ROUTINE.
 HUCKEL GUESS REQUIRES     13224 WORDS.

 SYMMETRIES FOR INITIAL GUESS ORBITALS FOLLOW.   BOTH SET(S).
     9 ORBITALS ARE OCCUPIED (    2 CORE ORBITALS).
     3=A        4=A        5=A        6=A        7=A        8=A        9=A   
    10=A       11=A       12=A       13=A       14=A       15=A       16=A   
    17=A       18=A       19=A   
 ...... END OF INITIAL ORBITAL SELECTION ......
 CPU     0: STEP CPU TIME=     0.01 TOTAL CPU TIME=          0.0 (      0.0 MIN)
 TOTAL WALL CLOCK TIME=          0.0 SECONDS, CPU UTILIZATION IS    80.00%

                    ----------------------
                    AO INTEGRAL TECHNOLOGY
                    ----------------------
     S,P,L SHELL ROTATED AXIS INTEGRALS, REPROGRAMMED BY
        KAZUYA ISHIMURA (IMS) AND JOSE SIERRA (SYNSTAR).
     S,P,D,L SHELL ROTATED AXIS INTEGRALS PROGRAMMED BY
        KAZUYA ISHIMURA (INSTITUTE FOR MOLECULAR SCIENCE).
     S,P,D,F,G SHELL TO TOTAL QUARTET ANGULAR MOMENTUM SUM 5,
        ERIC PROGRAM BY GRAHAM FLETCHER (ELORET AND NASA ADVANCED
        SUPERCOMPUTING DIVISION, AMES RESEARCH CENTER).
     S,P,D,F,G,L SHELL GENERAL RYS QUADRATURE PROGRAMMED BY
        MICHEL DUPUIS (PACIFIC NORTHWEST NATIONAL LABORATORY).

          --------------------
          2 ELECTRON INTEGRALS
          --------------------

 DIRECT SCF METHOD SKIPS INTEGRAL STORAGE ON DISK.
 DIRECT TRANSFORMATION SKIPS AO INTEGRAL STORAGE ON DISK.
  ...... END OF TWO-ELECTRON INTEGRALS .....
 CPU     0: STEP CPU TIME=     0.01 TOTAL CPU TIME=          0.0 (      0.0 MIN)
 TOTAL WALL CLOCK TIME=          0.1 SECONDS, CPU UTILIZATION IS    83.33%

          --------------------------
                 RHF SCF CALCULATION
          --------------------------

     NUCLEAR ENERGY =        41.9716179677
     MAXIT =   60     NPUNCH=    2
     EXTRAP=T  DAMP=F  SHIFT=F  RSTRCT=F  DIIS=F  DEM=F  SOSCF=T
     DENSITY MATRIX CONV=  2.00E-05
     SOSCF WILL OPTIMIZE     189 ORBITAL ROTATIONS, SOGTOL=   0.250
     MEMORY REQUIRED FOR RHF ITERS=     52174 WORDS.

 DIRECT SCF CALCULATION, SCHWRZ=T   FDIFF=T,  DIRTHR=  0.00E+00 NITDIR=10
 SCHWARZ INEQUALITY OVERHEAD:       465 INTEGRALS, T=        0.00

                                                                                   NONZERO     BLOCKS
 ITER EX DEM     TOTAL ENERGY        E CHANGE  DENSITY CHANGE     ORB. GRAD      INTEGRALS    SKIPPED
   1  0  0      -78.6518129520   -78.6518129520   0.437779623   0.000000000         106127        268
          ---------------START SECOND ORDER SCF---------------
   2  1  0      -78.7867576291    -0.1349446771   0.081900405   0.027499333         106127        268
   3  2  0      -78.7925906918    -0.0058330627   0.037704153   0.011564070         105980        351
   4  3  0      -78.7933740131    -0.0007833213   0.005976722   0.001781254         105618        573
   5  4  0      -78.7933896943    -0.0000156812   0.000323844   0.000302606         105394        716
   6  5  0      -78.7933901425    -0.0000004482   0.000152908   0.000073727         104535       1143
   7  6  0      -78.7933901707    -0.0000000282   0.000031157   0.000013484         103485       1545
   8  7  0      -78.7933901714    -0.0000000007   0.000004012   0.000001286         101270       2104
   9  8  0      -78.7933901714     0.0000000000   0.000000628   0.000000413          99375       2562

          -----------------
          DENSITY CONVERGED
          -----------------
     TIME TO FORM FOCK OPERATORS=       0.0 SECONDS (       0.0 SEC/ITER)
     FOCK TIME ON FIRST ITERATION=       0.0, LAST ITERATION=       0.0
     TIME TO SOLVE SCF EQUATIONS=       0.0 SECONDS (       0.0 SEC/ITER)

 FINAL RHF ENERGY IS      -78.7933901714 AFTER   9 ITERATIONS

          ------------
          EIGENVECTORS
          ------------

                      1          2          3          4          5
                  -11.1569   -11.1567    -1.0155    -0.8417    -0.5960
                     A          A          A          A          A   
    1  C  1  S   -0.698493   0.698023  -0.156052   0.138548   0.000006
    2  C  1  S   -0.073085   0.070159   0.151719  -0.124986  -0.000010
    3  C  1  X   -0.000040  -0.000021  -0.016080  -0.034917   0.232396
    4  C  1  Y   -0.000085  -0.000045  -0.034901  -0.075734  -0.126801
    5  C  1  Z   -0.000074  -0.000038  -0.029847  -0.064827   0.022973
    6  C  1  S    0.069070  -0.043377   0.410888  -0.487346  -0.000002
    7  C  1  X   -0.003604  -0.001720  -0.001618  -0.009922   0.183792
    8  C  1  Y   -0.007824  -0.003724  -0.003551  -0.021494  -0.100285
    9  C  1  Z   -0.006691  -0.003192  -0.003006  -0.018417   0.018164
   10  H  2  S   -0.000960  -0.000696   0.078285  -0.104751   0.046926
   11  H  2  S   -0.009420   0.010634   0.003069  -0.036963   0.039610
   12  C  3  S    0.698510   0.698006  -0.156052  -0.138548  -0.000009
   13  C  3  S    0.073086   0.070157   0.151719   0.124986   0.000014
   14  C  3  X   -0.000040   0.000020   0.016077  -0.034921   0.232434
   15  C  3  Y   -0.000085   0.000046   0.034903  -0.075731  -0.126806
   16  C  3  Z   -0.000074   0.000038   0.029845  -0.064832   0.022982
   17  C  3  S   -0.069071  -0.043375   0.410885   0.487348   0.000010
   18  C  3  X   -0.003603   0.001720   0.001615  -0.009928   0.183826
   19  C  3  Y   -0.007825   0.003724   0.003554  -0.021485  -0.100292
   20  C  3  Z   -0.006689   0.003193   0.003001  -0.018427   0.018171
   21  H  4  S    0.000961  -0.000696   0.078284   0.104751  -0.046934
   22  H  4  S    0.009421   0.010633   0.003069   0.036960  -0.039617
   23  H  5  S    0.000959  -0.000697   0.078283   0.104750   0.163931
   24  H  5  S    0.009419   0.010630   0.003085   0.036971   0.138374
   25  H  6  S    0.000960  -0.000697   0.078281   0.104740  -0.117009
   26  H  6  S    0.009419   0.010631   0.003078   0.036962  -0.098767
   27  H  7  S   -0.000959  -0.000697   0.078283  -0.104750  -0.163910
   28  H  7  S   -0.009419   0.010631   0.003085  -0.036968  -0.138361
   29  H  8  S   -0.000960  -0.000697   0.078281  -0.104739   0.116983
   30  H  8  S   -0.009419   0.010632   0.003078  -0.036962   0.098749

                      6          7          8          9         10
                   -0.5959    -0.5027    -0.4839    -0.4838     0.2770
                     A          A          A          A          A   
    1  C  1  S    0.000009  -0.018454   0.000023  -0.000005  -0.109308
    2  C  1  S   -0.000011   0.016896  -0.000024   0.000005   0.028896
    3  C  1  X   -0.094292  -0.114982   0.227905   0.099205   0.029134
    4  C  1  Y   -0.135037  -0.249952  -0.128759   0.130502   0.063178
    5  C  1  Z    0.208591  -0.213770   0.028184  -0.205962   0.054048
    6  C  1  S   -0.000023   0.054821  -0.000071   0.000016   1.534997
    7  C  1  X   -0.074581  -0.092751   0.212100   0.092325   0.164930
    8  C  1  Y   -0.106807  -0.201684  -0.119851   0.121447   0.357524
    9  C  1  Z    0.164978  -0.172476   0.026214  -0.191678   0.305997
   10  H  2  S    0.162195  -0.075332   0.059771  -0.188285   0.001250
   11  H  2  S    0.136934  -0.086118   0.062749  -0.197696  -0.750887
   12  C  3  S   -0.000012  -0.018456   0.000026  -0.000008  -0.109309
   13  C  3  S    0.000014   0.016898  -0.000028   0.000010   0.028896
   14  C  3  X   -0.094274   0.114977  -0.227871  -0.099217  -0.029138
   15  C  3  Y   -0.135001   0.249963   0.128746  -0.130528  -0.063167
   16  C  3  Z    0.208564   0.213759  -0.028183   0.205996  -0.054055
   17  C  3  S    0.000030   0.054827  -0.000077   0.000022   1.534997
   18  C  3  X   -0.074565   0.092746  -0.212069  -0.092336  -0.164958
   19  C  3  Y   -0.106776   0.201696   0.119840  -0.121471  -0.357479
   20  C  3  Z    0.164953   0.172466  -0.026213   0.191709  -0.306046
   21  H  4  S   -0.162166  -0.075320   0.059767  -0.188312   0.001251
   22  H  4  S   -0.136916  -0.086106   0.062743  -0.197731  -0.750925
   23  H  5  S    0.040448  -0.075557  -0.192844   0.042449   0.001252
   24  H  5  S    0.034152  -0.086335  -0.202415   0.044577  -0.750895
   25  H  6  S    0.121718  -0.075267   0.133275   0.145858   0.001245
   26  H  6  S    0.102768  -0.086052   0.139903   0.153161  -0.750972
   27  H  7  S   -0.040463  -0.075546  -0.192865   0.042439   0.001252
   28  H  7  S   -0.034163  -0.086325  -0.202440   0.044564  -0.750928
   29  H  8  S   -0.121746  -0.075266   0.133292   0.145841   0.001244
   30  H  8  S   -0.102788  -0.086052   0.139926   0.153138  -0.750973

                     11         12         13         14         15
                    0.3354     0.3354     0.3390     0.3684     0.3684
                     A          A          A          A          A   
    1  C  1  S    0.000229   0.000252  -0.143185  -0.000002   0.000014
    2  C  1  S   -0.000047  -0.000053   0.022371  -0.000000  -0.000000
    3  C  1  X    0.189845  -0.040131   0.009756   0.083113   0.169108
    4  C  1  Y   -0.078173  -0.120098   0.020291   0.094397  -0.102265
    5  C  1  Z   -0.010922   0.161919   0.017943  -0.155103   0.028395
    6  C  1  S   -0.003137  -0.003420   2.027444   0.000002  -0.000265
    7  C  1  X    0.778708  -0.164441  -0.032282   0.522290   1.063047
    8  C  1  Y   -0.320460  -0.492288  -0.073715   0.593143  -0.642740
    9  C  1  Z   -0.044614   0.664177  -0.060607  -0.974727   0.178526
   10  H  2  S   -0.006981  -0.066544   0.000807   0.024654  -0.009067
   11  H  2  S   -0.119480  -1.146881  -0.769102   1.183707  -0.436130
   12  C  3  S   -0.000232  -0.000257   0.143185   0.000013  -0.000006
   13  C  3  S    0.000050   0.000057  -0.022371  -0.000000  -0.000001
   14  C  3  X    0.189808  -0.040148   0.009746  -0.083105  -0.169149
   15  C  3  Y   -0.078151  -0.120124   0.020306  -0.094381   0.102296
   16  C  3  Z   -0.010933   0.161954   0.017935   0.155052  -0.028377
   17  C  3  S    0.003171   0.003485  -2.027439  -0.000222   0.000054
   18  C  3  X    0.778531  -0.164515  -0.032333  -0.522274  -1.063210
   19  C  3  Y   -0.320351  -0.492409  -0.073638  -0.593108   0.642943
   20  C  3  Z   -0.044666   0.664331  -0.060656   0.974443  -0.178397
   21  H  4  S    0.006973   0.066555  -0.000814   0.024647  -0.009057
   22  H  4  S    0.119364   1.147074   0.768973   1.183439  -0.436202
   23  H  5  S   -0.061090  -0.027233  -0.001042  -0.004476   0.025863
   24  H  5  S   -1.055791  -0.471105   0.764433  -0.213965   1.243452
   25  H  6  S    0.054112  -0.039347  -0.000905  -0.020213  -0.016770
   26  H  6  S    0.933003  -0.679894   0.767071  -0.969214  -0.807277
   27  H  7  S    0.061102   0.027227   0.001049  -0.004468   0.025854
   28  H  7  S    1.056013   0.471019  -0.764294  -0.214105   1.243250
   29  H  8  S   -0.054123   0.039333   0.000905  -0.020206  -0.016777
   30  H  8  S   -0.933147   0.679712  -0.767087  -0.969456  -0.806948

                     16         17         18         19         20
                    0.4232     0.9102     0.9102     0.9776     1.0696
                     A          A          A          A          A   
    1  C  1  S    0.058829  -0.000006   0.000006  -0.005709  -0.058360
    2  C  1  S   -0.004497   0.000004   0.000004  -0.030273   0.153866
    3  C  1  X    0.084445   0.007803  -0.428235  -0.230684  -0.244336
    4  C  1  Y    0.183260  -0.297159   0.108665  -0.500345  -0.529271
    5  C  1  Z    0.156788   0.342890   0.103861  -0.428099  -0.453455
    6  C  1  S   -0.862775  -0.000236   0.000114   0.519950  -0.325127
    7  C  1  X    0.552911  -0.011073   0.605844   0.295387   0.404016
    8  C  1  Y    1.199978   0.420402  -0.153856   0.640636   0.874933
    9  C  1  Z    1.026559  -0.484993  -0.146969   0.548181   0.749848
   10  H  2  S   -0.045035   0.494306   0.060638  -0.174375  -0.182734
   11  H  2  S   -0.341996  -0.115744  -0.014233  -0.053668  -0.142727
   12  C  3  S   -0.058829   0.000007  -0.000006  -0.005707   0.058361
   13  C  3  S    0.004498   0.000019  -0.000013  -0.030272  -0.153866
   14  C  3  X    0.084458   0.007730  -0.428180   0.230700  -0.244117
   15  C  3  Y    0.183237  -0.297242   0.108641   0.500273  -0.529748
   16  C  3  Z    0.156810   0.342877   0.103901   0.428139  -0.453050
   17  C  3  S    0.862760   0.000166  -0.000097   0.519947   0.325101
   18  C  3  X    0.552987  -0.011011   0.605806  -0.295429   0.403542
   19  C  3  Y    1.199843   0.420482  -0.153859  -0.640533   0.875954
   20  C  3  Z    1.026687  -0.484920  -0.147001  -0.548274   0.748968
   21  H  4  S    0.045029  -0.494301  -0.060685  -0.174440   0.182472
   22  H  4  S    0.342174   0.115819   0.014297  -0.053691   0.142466
   23  H  5  S    0.045029   0.299760  -0.397866  -0.174382   0.182514
   24  H  5  S    0.342284  -0.070209   0.092965  -0.053664   0.142613
   25  H  6  S    0.045035   0.194810   0.458385  -0.174431   0.182543
   26  H  6  S    0.342031  -0.045803  -0.107236  -0.053634   0.142537
   27  H  7  S   -0.045029  -0.299719   0.397899  -0.174453  -0.182249
   28  H  7  S   -0.342435   0.070190  -0.093040  -0.053669  -0.142360
   29  H  8  S   -0.045037  -0.194721  -0.458417  -0.174449  -0.182524
   30  H  8  S   -0.342028   0.045698   0.107275  -0.053626  -0.142513

                     21         22         23         24         25
                    1.0934     1.0936     1.2775     1.3572     1.3573
                     A          A          A          A          A   
    1  C  1  S   -0.000025  -0.000030   0.066795  -0.000042   0.000031
    2  C  1  S    0.000011  -0.000005  -0.007655   0.000047  -0.000080
    3  C  1  X   -0.266220   0.614125  -0.109122  -0.142427  -0.362378
    4  C  1  Y   -0.352313  -0.346985  -0.237406  -0.210262   0.194839
    5  C  1  Z    0.554878   0.074305  -0.202543   0.322776  -0.032727
    6  C  1  S   -0.000120   0.000052  -0.097243   0.000051   0.000043
    7  C  1  X    0.597589  -1.379003   0.023235   0.075387   0.192505
    8  C  1  Y    0.790900   0.779193   0.051716   0.111188  -0.103427
    9  C  1  Z   -1.245565  -0.166861   0.043207  -0.170704   0.017338
   10  H  2  S    0.281042   0.088362   0.510849  -0.710159   0.199048
   11  H  2  S    0.374041   0.118078  -0.225258   0.756516  -0.212179
   12  C  3  S    0.000013   0.000009   0.066793  -0.000035   0.000022
   13  C  3  S   -0.000120  -0.000134  -0.007653   0.000051  -0.000071
   14  C  3  X    0.266037  -0.614334   0.109099   0.143130   0.360496
   15  C  3  Y    0.351921   0.346644   0.237443   0.211667  -0.194061
   16  C  3  Z   -0.555158  -0.074621   0.202514  -0.324712   0.032719
   17  C  3  S    0.000154   0.000307  -0.097223  -0.000023   0.000104
   18  C  3  X   -0.597234   1.379441  -0.023177  -0.076281  -0.190152
   19  C  3  Y   -0.790146  -0.778602  -0.051770  -0.112979   0.102527
   20  C  3  Z    1.246019   0.167430  -0.043125   0.173042  -0.017274
   21  H  4  S    0.281090   0.088484   0.510846  -0.712108   0.198744
   22  H  4  S    0.374118   0.118234  -0.225185   0.760165  -0.211641
   23  H  5  S   -0.063898  -0.287712   0.511539   0.183442  -0.714089
   24  H  5  S   -0.084790  -0.383655  -0.226702  -0.196121   0.760697
   25  H  6  S   -0.217306   0.199013   0.511310   0.527833   0.515929
   26  H  6  S   -0.288912   0.265738  -0.226060  -0.563719  -0.549325
   27  H  7  S   -0.064023  -0.287759   0.511538   0.182737  -0.715572
   28  H  7  S   -0.084953  -0.383736  -0.226632  -0.194836   0.763497
   29  H  8  S   -0.217460   0.198853   0.511316   0.526466   0.517278
   30  H  8  S   -0.289100   0.265544  -0.226075  -0.561194  -0.551805

                     26         27         28         29         30
                    1.3622     1.3622     1.4360     1.9339     2.2921
                     A          A          A          A          A   
    1  C  1  S    0.000015  -0.000001   0.079191   0.007462  -0.076137
    2  C  1  S   -0.000053   0.000031  -0.356318  -1.390363  -1.532484
    3  C  1  X   -0.330914   0.544511  -0.127434   0.017089  -0.004054
    4  C  1  Y   -0.288001  -0.372786  -0.276606   0.037157  -0.008726
    5  C  1  Z    0.514708   0.142256  -0.236806   0.031719  -0.007490
    6  C  1  S   -0.000024  -0.000121   0.179508   2.187766   3.987680
    7  C  1  X    0.402468  -0.662690   0.273480   0.100366  -0.292358
    8  C  1  Y    0.350054   0.453540   0.593524   0.217171  -0.634660
    9  C  1  Z   -0.625622  -0.172960   0.507965   0.186290  -0.542817
   10  H  2  S   -0.505399  -0.238429   0.480306  -0.035486  -0.302003
   11  H  2  S    0.917445   0.433237  -0.549678  -0.569062  -0.405279
   12  C  3  S   -0.000014   0.000003  -0.079191   0.007462   0.076137
   13  C  3  S    0.000043  -0.000043   0.356321  -1.390369   1.532476
   14  C  3  X   -0.330718   0.545695  -0.127460  -0.017084  -0.004068
   15  C  3  Y   -0.287069  -0.373152  -0.276579  -0.037162  -0.008707
   16  C  3  Z    0.513516   0.142058  -0.236822  -0.031714  -0.007518
   17  C  3  S    0.000034   0.000131  -0.179507   2.187766  -3.987676
   18  C  3  X    0.402365  -0.663337   0.273466  -0.100395  -0.292264
   19  C  3  Y    0.349543   0.453747   0.593561  -0.217148  -0.634811
   20  C  3  Z   -0.624973  -0.172854   0.507927  -0.186328  -0.542661
   21  H  4  S    0.502705   0.238374  -0.480405  -0.035514   0.302053
   22  H  4  S   -0.914565  -0.433169   0.549729  -0.569041   0.405330
   23  H  5  S   -0.045071  -0.556742  -0.480165  -0.035309   0.301839
   24  H  5  S    0.082326   1.010841   0.549648  -0.568892   0.405163
   25  H  6  S   -0.457889   0.318413  -0.480164  -0.035432   0.301975
   26  H  6  S    0.832509  -0.577801   0.549442  -0.568930   0.405238
   27  H  7  S    0.046352   0.554877   0.480275  -0.035328  -0.301888
   28  H  7  S   -0.083694  -1.008840  -0.549716  -0.568879  -0.405216
   29  H  8  S    0.459334  -0.316422   0.480143  -0.035430  -0.301975
   30  H  8  S   -0.834048   0.575686  -0.549421  -0.568925  -0.405237
 ...... END OF RHF CALCULATION ......
 CPU     0: STEP CPU TIME=     0.05 TOTAL CPU TIME=          0.1 (      0.0 MIN)
 TOTAL WALL CLOCK TIME=          0.1 SECONDS, CPU UTILIZATION IS    76.92%

     ----------------------------------------------------------------
     PROPERTY VALUES FOR THE RHF   SELF-CONSISTENT FIELD WAVEFUNCTION
     ----------------------------------------------------------------

          -----------------
          ENERGY COMPONENTS
          -----------------

         WAVEFUNCTION NORMALIZATION =       1.0000000000

                ONE ELECTRON ENERGY =    -187.8637655611
                TWO ELECTRON ENERGY =      67.0987574220
           NUCLEAR REPULSION ENERGY =      41.9716179677
                                      ------------------
                       TOTAL ENERGY =     -78.7933901714

 ELECTRON-ELECTRON POTENTIAL ENERGY =      67.0987574220
  NUCLEUS-ELECTRON POTENTIAL ENERGY =    -266.4038230515
   NUCLEUS-NUCLEUS POTENTIAL ENERGY =      41.9716179677
                                      ------------------
             TOTAL POTENTIAL ENERGY =    -157.3334476619
               TOTAL KINETIC ENERGY =      78.5400574905
                 VIRIAL RATIO (V/T) =       2.0032255220

          ---------------------------------------
          MULLIKEN AND LOWDIN POPULATION ANALYSES
          ---------------------------------------

     ATOMIC MULLIKEN POPULATION IN EACH MOLECULAR ORBITAL

                      1          2          3          4          5

                  2.000000   2.000000   2.000000   2.000000   2.000000

    1             0.996336   0.995148   0.869079   0.702330   0.606805
    2             0.001213   0.001626   0.043638   0.099228   0.020245
    3             0.996384   0.995100   0.869071   0.702339   0.606963
    4             0.001213   0.001626   0.043637   0.099228   0.020252
    5             0.001213   0.001625   0.043647   0.099229   0.247051
    6             0.001213   0.001625   0.043640   0.099211   0.125873
    7             0.001213   0.001625   0.043648   0.099227   0.246992
    8             0.001213   0.001625   0.043640   0.099209   0.125819

                      6          7          8          9

                  2.000000   2.000000   2.000000   2.000000

    1             0.606994   0.828846   0.494457   0.494251
    2             0.241856   0.056983   0.030867   0.306262
    3             0.606801   0.828845   0.494304   0.494439
    4             0.241777   0.056967   0.030863   0.306361
    5             0.015041   0.057295   0.321238   0.015568
    6             0.136209   0.056892   0.153457   0.183803
    7             0.015052   0.057280   0.321314   0.015560
    8             0.136270   0.056892   0.153499   0.183756

               ----- POPULATIONS IN EACH AO -----
                             MULLIKEN      LOWDIN
              1  C  1  S      1.98809     1.97646
              2  C  1  S      0.35133     0.41117
              3  C  1  X      0.54048     0.50767
              4  C  1  Y      0.53264     0.50381
              5  C  1  Z      0.53531     0.50513
              6  C  1  S      1.12538     0.58572
              7  C  1  X      0.54173     0.60146
              8  C  1  Y      0.47898     0.58098
              9  C  1  Z      0.50031     0.58795
             10  H  2  S      0.46754     0.47020
             11  H  2  S      0.33437     0.44301
             12  C  3  S      1.98809     1.97646
             13  C  3  S      0.35133     0.41117
             14  C  3  X      0.54048     0.50768
             15  C  3  Y      0.53264     0.50381
             16  C  3  Z      0.53530     0.50512
             17  C  3  S      1.12538     0.58572
             18  C  3  X      0.54173     0.60146
             19  C  3  Y      0.47898     0.58099
             20  C  3  Z      0.50031     0.58795
             21  H  4  S      0.46754     0.47020
             22  H  4  S      0.33438     0.44302
             23  H  5  S      0.46755     0.47019
             24  H  5  S      0.33436     0.44301
             25  H  6  S      0.46753     0.47019
             26  H  6  S      0.33439     0.44302
             27  H  7  S      0.46754     0.47019
             28  H  7  S      0.33437     0.44301
             29  H  8  S      0.46753     0.47019
             30  H  8  S      0.33439     0.44302

          ----- MULLIKEN ATOMIC OVERLAP POPULATIONS -----
          (OFF-DIAGONAL ELEMENTS NEED TO BE MULTIPLIED BY 2)

             1           2           3           4           5

    1    5.3448937
    2    0.3773072   0.5207243
    3    0.2432732  -0.0419654   5.3448966
    4   -0.0419620   0.0027812   0.3773035   0.5207415
    5   -0.0419422  -0.0017183   0.3773265  -0.0267399   0.5206316
    6   -0.0419596  -0.0017205   0.3773126  -0.0267619  -0.0267129
    7    0.3773237  -0.0267390  -0.0419411  -0.0017183   0.0027781
    8    0.3773128  -0.0267517  -0.0419599  -0.0017206  -0.0017163

             6           7           8

    6    0.5207031
    7   -0.0017164   0.5206444
    8    0.0027803  -0.0267218   0.5207020

          TOTAL MULLIKEN AND LOWDIN ATOMIC POPULATIONS
       ATOM         MULL.POP.    CHARGE          LOW.POP.     CHARGE
    1 C             6.594247   -0.594247         6.260366   -0.260366
    2 H             0.801918    0.198082         0.913218    0.086782
    3 C             6.594246   -0.594246         6.260367   -0.260367
    4 H             0.801924    0.198076         0.913222    0.086778
    5 H             0.801907    0.198093         0.913199    0.086801
    6 H             0.801925    0.198075         0.913213    0.086787
    7 H             0.801910    0.198090         0.913202    0.086798
    8 H             0.801925    0.198075         0.913213    0.086787

          -------------------------------
          BOND ORDER AND VALENCE ANALYSIS     BOND ORDER THRESHOLD=0.050
          -------------------------------

                   BOND                       BOND                       BOND
  ATOM PAIR DIST  ORDER      ATOM PAIR DIST  ORDER      ATOM PAIR DIST  ORDER
    1   2  1.096  0.929        1   3  1.545  0.920        1   7  1.096  0.929
    1   8  1.096  0.929        3   4  1.096  0.929        3   5  1.096  0.929
    3   6  1.096  0.929

                       TOTAL       BONDED        FREE
      ATOM            VALENCE     VALENCE     VALENCE
    1 C                 3.680       3.680       0.000
    2 H                 0.916       0.916       0.000
    3 C                 3.680       3.680      -0.000
    4 H                 0.916       0.916      -0.000
    5 H                 0.916       0.916      -0.000
    6 H                 0.916       0.916      -0.000
    7 H                 0.916       0.916       0.000
    8 H                 0.916       0.916       0.000

          ---------------------
          ELECTROSTATIC MOMENTS
          ---------------------

 POINT   1           X           Y           Z (BOHR)    CHARGE
                -1.952479   -1.371916   -0.122594       -0.00 (A.U.)
         DX          DY          DZ         /D/  (DEBYE)
    -0.000019    0.000027   -0.000026    0.000042
 ...... END OF PROPERTY EVALUATION ......
 CPU     0: STEP CPU TIME=     0.02 TOTAL CPU TIME=          0.1 (      0.0 MIN)
 TOTAL WALL CLOCK TIME=          0.1 SECONDS, CPU UTILIZATION IS    85.71%
               580000  WORDS OF DYNAMIC MEMORY USED
 EXECUTION OF GAMESS TERMINATED NORMALLY Sun May 17 12:12:14 2020
 DDI: 263640 bytes (0.3 MB / 0 MWords) used by master data server.
Note: The following floating-point exceptions are signalling: IEEE_DENORMALNote: The following floating-point exceptions are signalling: IEEE_DENORMAL
Note: The following floating-point exceptions are signalling: IEEE_DENORMALNote: The following floating-point exceptions are signalling: IEEE_DENORMAL

 ----------------------------------------
 CPU timing information for all processes
 ========================================
 0: 0.63 + 0.67 = 0.130
 1: 0.39 + 0.08 = 0.47
 2: 0.37 + 0.07 = 0.45
 3: 0.39 + 0.11 = 0.50
 4: 0.38 + 0.09 = 0.48
 5: 0.36 + 0.06 = 0.43
 ----------------------------------------

Note: The following floating-point exceptions are signalling:
Note: The following floating-point exceptions are signalling: IEEE_DENORMAL IEEE_DENORMAL

 ddikick.x: exited gracefully.
unset echo
----- accounting info -----
Files used on the master node pietdev were:
-rwxr-xr-x 1 piet piet      586 mei 17 12:12 /home/piet/scr/ethane_fukui_neu.F05*
-rw-r--r-- 1 piet piet 49152000 mei 17 12:12 /home/piet/scr/ethane_fukui_neu.F10
ls: No match.
ls: No match.
ls: No match.
zo 17 mei 2020 12:12:17 CEST
0.107u 0.022s 0:03.29 3.6%	0+0k 0+8io 0pf+0w
