----- GAMESS execution script 'rungms' -----
This job is running on host pietdev
under operating system Linux at ma 25 mei 2020 19:15:49 CEST
Available scratch disk space (Kbyte units) at beginning of the job is
Filesystem     1K-blocks     Used Available Use% Mounted on
/dev/sda2      244568380 31071500 201003824  14% /
GAMESS temporary binary files will be written to /home/piet/scr
GAMESS supplementary output files will be written to /home/piet/gamess/scr
Copying input file methol_fukui_base.inp to your run's scratch directory...
cp methol_fukui_base.inp /home/piet/scr/methol_fukui_base.F05
unset echo
 
Assuming a single but multicore node.
 
/home/piet/gamess/ddikick.x /home/piet/gamess/gamess.03.x methol_fukui_base -ddi 1 6 pietdev:cpus=6 -scr /home/piet/scr

 Distributed Data Interface kickoff program.
 Initiating 6 compute processes on 1 nodes to run the following command:
 /home/piet/gamess/gamess.03.x methol_fukui_base 

          ******************************************************
          *         GAMESS VERSION = 30 SEP 2019 (R2)          *
          *             FROM IOWA STATE UNIVERSITY             *
          * M.W.SCHMIDT, K.K.BALDRIDGE, J.A.BOATZ, S.T.ELBERT, *
          *   M.S.GORDON, J.H.JENSEN, S.KOSEKI, N.MATSUNAGA,   *
          *          K.A.NGUYEN, S.J.SU, T.L.WINDUS,           *
          *       TOGETHER WITH M.DUPUIS, J.A.MONTGOMERY       *
          *         J.COMPUT.CHEM.  14, 1347-1363(1993)        *
          **************** 64 BIT LINUX VERSION ****************

  SINCE 1993, STUDENTS AND POSTDOCS WORKING AT IOWA STATE UNIVERSITY
  AND ALSO IN THEIR VARIOUS JOBS AFTER LEAVING ISU HAVE MADE IMPORTANT
  CONTRIBUTIONS TO THE CODE:
     IVANA ADAMOVIC, CHRISTINE AIKENS, YURI ALEXEEV, POOJA ARORA,
     ANDREY ASADCHEV, ROB BELL, PRADIPTA BANDYOPADHYAY, JONATHAN BENTZ,
     COLLEEN BERTONI, BRETT BODE, KURT BRORSEN, CALEB CARLIN, GALINA CHABAN,
     WEI CHEN, CHEOL HO CHOI, PAUL DAY, ALBERT DEFUSCO, NUWAN DESILVA,
     TIM DUDLEY, DMITRI FEDOROV, ALEX FINDLATER, GRAHAM FLETCHER, 
     MARK FREITAG, KURT GLAESEMANN, EMILIE B GUIDEZ, ANASTASIA GUNINA, 
     DAN KEMP, SAROM SOK LEANG, GRANT MERRILL,
     NORIYUKI MINEZAWA, JONATHAN MULLIN,
     TAKESHI NAGATA, SEAN NEDD, HEATHER NETZLOFF, BOSILJKA NJEGIC, RYAN OLSON,
     MIKE PAK, BUU PHAM, DAVID POOLE,
     SPENCER PRUITT, LUKE ROSKOP, TOSAPORN SATTASATHUCHANA,
     JIM SHOEMAKER, LYUDMILA SLIPCHENKO,
     TONY SMITH, JIE SONG, TETSUYA TAKETSUGU, SIMON WEBB,
     JORGE LUIS GALVEZ VALLEJO, PENG XU, SOOHAENG YOO,
     FEDERICO ZAHARIEV

  ADDITIONAL CODE HAS BEEN PROVIDED BY COLLABORATORS IN OTHER GROUPS:
     IOWA STATE UNIVERSITY:
          JOE IVANIC, AARON WEST, LAIMUTIS BYTAUTAS, KLAUS RUEDENBERG
     UNIVERSITY OF TOKYO: KIMIHIKO HIRAO, TAKAHITO NAKAJIMA,
          TAKAO TSUNEDA, MUNEAKI KAMIYA, SUSUMU YANAGISAWA,
          KIYOSHI YAGI, MAHITO CHIBA, SEIKEN TOKURA, NAOAKI KAWAKAMI
     UNIVERSITY OF AARHUS: FRANK JENSEN
     UNIVERSITY OF IOWA: VISVALDAS KAIRYS, HUI LI
     NATIONAL INST. OF STANDARDS AND TECHNOLOGY: WALT STEVENS, DAVID GARMER
     UNIVERSITY OF PISA: BENEDETTA MENNUCCI, JACOPO TOMASI
     UNIVERSITY OF MEMPHIS: HENRY KURTZ, PRAKASHAN KORAMBATH
     UNIVERSITY OF ALBERTA: TOBY ZENG, MARIUSZ KLOBUKOWSKI
     UNIVERSITY OF NEW ENGLAND: MARK SPACKMAN
     MIE UNIVERSITY: HIROAKI UMEDA
     NAT. INST. OF ADVANCED INDUSTRIAL SCIENCE AND TECHNOLOGY: KAZUO KITAURA
     MICHIGAN STATE UNIVERSITY:
          KAROL KOWALSKI, MARTA WLOCH, JEFFREY GOUR, JESSE LUTZ,
          WEI LI, JUN SHEN, J. EMILIANO DEUSTUA, PIOTR PIECUCH
     UNIVERSITY OF MINNESOTA:
          ANDREW SAND, PRACHI SHARMA, YINAN SHU
     UNIVERSITY OF SILESIA: MONIKA MUSIAL, STANISLAW KUCHARSKI
     FACULTES UNIVERSITAIRES NOTRE-DAME DE LA PAIX:
          OLIVIER QUINET, BENOIT CHAMPAGNE
     UNIVERSITY OF CALIFORNIA - SANTA BARBARA: BERNARD KIRTMAN
     INSTITUTE FOR MOLECULAR SCIENCE:
          KAZUYA ISHIMURA, MICHIO KATOUDA, AND SHIGERU NAGASE
     UNIVERSITY OF NOTRE DAME: ANNA POMOGAEVA, DAN CHIPMAN
     KYUSHU UNIVERSITY:
          HARUYUKI NAKANO,
          FENG LONG GU, JACEK KORCHOWIEC, MARCIN MAKOWSKI, AND YURIKO AOKI,
          HIROTOSHI MORI AND EISAKU MIYOSHI
     PENNSYLVANIA STATE UNIVERSITY:
          TZVETELIN IORDANOV, CHET SWALINA, JONATHAN SKONE,
          SHARON HAMMES-SCHIFFER
     WASEDA UNIVERSITY:
          MASATO KOBAYASHI, TOMOKO AKAMA, TSUGUKI TOUMA,
          TAKESHI YOSHIKAWA, YASUHIRO IKABATA, JUNJI SEINO,
          YUYA NAKAJIMA, HIROMI NAKAI
     NANJING UNIVERSITY: SHUHUA LI
     UNIVERSITY OF NEBRASKA:
          PEIFENG SU, DEJUN SI, NANDUN THELLAMUREGE, YALI WANG, HUI LI
     UNIVERSITY OF ZURICH: ROBERTO PEVERATI, KIM BALDRIDGE
     N. COPERNICUS UNIVERSITY AND JACKSON STATE UNIVERSITY:
          MARIA BARYSZ
     UNIVERSITY OF COPENHAGEN: Jimmy Kromann, CASPER STEINMANN
     TOKYO INSTITUTE OF TECHNOLOGY: HIROYA NAKATA
     NAGOYA UNIVERSITY: YOSHIO NISHIMOTO, STEPHAN IRLE
     MOSCOW STATE UNIVERSITY: VLADIMIR MIRONOV
     A.N.NESMEYANOV INSTITUTE OF ORGANOELEMENT COMPOUNDS OF RUSSIAN ACADEMY OF SCIENCES:
          IGOR S. GERASIMOV
     JOHANNES KEPLER UNIVERSITY LINZ:
          CHRISTIAN FRIEDL


 PARALLEL VERSION RUNNING ON        6 PROCESSORS IN        1 NODES.

 EXECUTION OF GAMESS BEGUN Mon May 25 19:15:49 2020

            ECHO OF THE FIRST FEW INPUT CARDS -
 INPUT CARD> $BASIS GBASIS=N21 NGAUSS=3 $END                                                
 INPUT CARD> $CONTRL SCFTYP=UHF MAXIT=60 MULT=2 ICHARG=1 $END                               
 INPUT CARD> $SYSTEM MEMDDI=1000 MWORDS=30 $END                                             
 INPUT CARD> $SCF DIRSCF=.TRUE. $END                                                        
 INPUT CARD> $STATPT OPTTOL=0.0001 NSTEP=999 $END                                           
 INPUT CARD> $DATA                                                                          
 INPUT CARD>                                                                                
 INPUT CARD>C1                                                                              
 INPUT CARD>C 6.0000000 -2.26374 0.11023 0.14447                                            
 INPUT CARD>C 6.0000000 -1.49833 -0.94862 -0.66496                                          
 INPUT CARD>C 6.0000000 -0.02680 -1.09639 -0.24556                                          
 INPUT CARD>C 6.0000000 0.73370 0.24654 -0.28492                                            
 INPUT CARD>C 6.0000000 -0.04250 1.31749 0.51291                                            
 INPUT CARD>C 6.0000000 -1.50818 1.44649 0.06762                                            
 INPUT CARD>C 6.0000000 2.21545 0.11630 0.16509                                             
 INPUT CARD>C 6.0000000 2.95668 -1.02560 -0.55286                                           
 INPUT CARD>C 6.0000000 2.99301 1.43114 -0.03318                                            
 INPUT CARD>O 8.0000000 0.08621 -1.61694 1.09283                                            
 INPUT CARD>C 6.0000000 -3.71784 0.23915 -0.32516                                           
 INPUT CARD>H 1.0000000 -2.26868 -0.20899 1.19666                                           
 INPUT CARD>H 1.0000000 -1.99450 -1.92779 -0.58297                                          
 INPUT CARD>H 1.0000000 -1.52763 -0.68233 -1.73266                                          
 INPUT CARD>H 1.0000000 0.45502 -1.79883 -0.94070                                           
 INPUT CARD>H 1.0000000 0.73756 0.55087 -1.34558                                            
 INPUT CARD>H 1.0000000 -0.00540 1.05744 1.57915                                            
 INPUT CARD>H 1.0000000 0.44572 2.29131 0.40705                                             
 INPUT CARD>H 1.0000000 -1.54662 1.81730 -0.96936                                           
 INPUT CARD>H 1.0000000 -2.01783 2.19969 0.68328                                            
 INPUT CARD>H 1.0000000 2.20771 -0.11894 1.23761                                            
 INPUT CARD>H 1.0000000 2.93688 -0.89104 -1.64299                                           
 INPUT CARD>H 1.0000000 4.00838 -1.04860 -0.24464                                           
 INPUT CARD>H 1.0000000 2.52952 -2.00501 -0.31933                                           
 INPUT CARD>H 1.0000000 2.98729 1.73526 -1.08870                                            
 INPUT CARD>H 1.0000000 2.58308 2.25658 0.55592                                             
 INPUT CARD>H 1.0000000 4.03938 1.30508 0.26735                                             
 INPUT CARD>H 1.0000000 -0.40140 -2.44938 1.14262                                           
 INPUT CARD>H 1.0000000 -4.25447 -0.71313 -0.23343                                          
 INPUT CARD>H 1.0000000 -4.26071 0.98601 0.26622                                            
 INPUT CARD>H 1.0000000 -3.76740 0.54871 -1.37739                                           
 INPUT CARD> $END                                                                           
   30000000 WORDS OF MEMORY AVAILABLE

     BASIS OPTIONS
     -------------
     GBASIS=N21          IGAUSS=       3      POLAR=NONE    
     NDFUNC=       0     NFFUNC=       0     DIFFSP=       F
     NPFUNC=       0      DIFFS=       F     BASNAM=        


     RUN TITLE
     ---------
                                                                                 

 THE POINT GROUP OF THE MOLECULE IS C1      
 THE ORDER OF THE PRINCIPAL AXIS IS     0

 ATOM      ATOMIC                      COORDINATES (BOHR)
           CHARGE         X                   Y                   Z
 C           6.0    -4.2778483074        0.2083044956        0.2730087134
 C           6.0    -2.8314331392       -1.7926318665       -1.2565921928
 C           6.0    -0.0506446565       -2.0718766757       -0.4640411135
 C           6.0     1.3864919572        0.4658930450       -0.5384207284
 C           6.0    -0.0803133545        2.4896950916        0.9692593564
 C           6.0    -2.8500469402        2.7334697440        0.1277832713
 C           6.0     4.1865934395        0.2197751324        0.3119748633
 C           6.0     5.5873150334       -1.9381029730       -1.0447539096
 C           6.0     5.6559687785        2.7044624501       -0.0627011083
 O           8.0     0.1629132774       -3.0555735386        2.0651492512
 C           6.0    -7.0256988662        0.4519279700       -0.6144633022
 H           1.0    -4.2871835538       -0.3949338342        2.2613595005
 H           1.0    -3.7690584825       -3.6429948619       -1.1016535591
 H           1.0    -2.8868021106       -1.2894167332       -3.2742526299
 H           1.0     0.8598631189       -3.3992957985       -1.7776652366
 H           1.0     1.3937862995        1.0409933549       -2.5427774946
 H           1.0    -0.0102045203        1.9982718485        2.9841607935
 H           1.0     0.8422886672        4.3299480529        0.7692129633
 H           1.0    -2.9226880071        3.4341990375       -1.8318247835
 H           1.0    -3.8131457898        4.1568113579        1.2912119729
 H           1.0     4.1719669604       -0.2247640090        2.3387437797
 H           1.0     5.5498984588       -1.6838214441       -3.1048009006
 H           1.0     7.5747398547       -1.9815666707       -0.4623025656
 H           1.0     4.7800996805       -3.7889195026       -0.6034461997
 H           1.0     5.6451595459        3.2791659175       -2.0573446828
 H           1.0     4.8813134044        4.2643178694        1.0505364711
 H           1.0     7.6333213603        2.4662435921        0.5052182428
 H           1.0    -0.7585360115       -4.6286570398        2.1592387081
 H           1.0    -8.0397825230       -1.3476202936       -0.4411187373
 H           1.0    -8.0515744131        1.8632887212        0.5030828525
 H           1.0    -7.1193536861        1.0369115467       -2.6028896782

          INTERNUCLEAR DISTANCES (ANGS.)
          ------------------------------

                1 C          2 C          3 C          4 C          5 C     

   1 C       0.0000000    1.5369427 *  2.5713724 *  3.0311059    2.5548252 *
   2 C       1.5369427 *  0.0000000    1.5372485 *  2.5602335 *  2.9397403 *
   3 C       2.5713724 *  1.5372485 *  0.0000000    1.5438168 *  2.5302845 *
   4 C       3.0311059    2.5602335 *  1.5438168 *  0.0000000    1.5446531 *
   5 C       2.5548252 *  2.9397403 *  2.5302845 *  1.5446531 *  0.0000000  
   6 C       1.5369996 *  2.5046601 *  2.9595282 *  2.5671366 *  1.5372515 *
   7 C       4.4792416    3.9516072    2.5820410 *  1.5540446 *  2.5811188 *
   8 C       5.3878719    4.4570850    3.0000996    2.5752227 *  3.9523432  
   9 C       5.4230788    5.1219663    3.9436995    2.5634219 *  3.0863330  
  10 O       3.0667194    2.4591145 *  1.4404969 *  2.4062411 *  2.9939527 *
  11 C       1.5334861 *  2.5401745 *  3.9260387    4.4517280    3.9208803  
  12 H       1.0995588 *  2.1461875 *  2.8095379 *  3.3788863    2.7845166 *
  13 H       2.1806386 *  1.1007638 *  2.1626176 *  3.5013740    3.9424737  
  14 H       2.1664779 *  1.1007961 *  2.1529986 *  2.8411906 *  3.3537257  
  15 H       3.4948190    2.1481308 *  1.0994508 *  2.1659290 *  3.4744724  
  16 H       3.3796767    2.7768540 *  2.1231476 *  1.1034633 *  2.1564287 *
  17 H       2.8382412 *  3.3599325    2.8229432 *  2.1630036 *  1.0981212 *
  18 H       3.4881559    3.9275542    3.4821956    2.1778061 *  1.0944818 *
  19 H       2.1607791 *  2.7830388 *  3.3650154    2.8522981 *  2.1700948 *
  20 H       2.1717806 *  3.4640276    3.9611977    3.5104307    2.1700764 *
  21 H       4.6088327    4.2476904    2.8545116 *  2.1504369 *  2.7662188 *
  22 H       5.5896336    4.5421301    3.2830441    2.8270912 *  4.2897803  
  23 H       6.3901317    5.5236329    4.0354631    3.5217239    4.7520409  
  24 H       5.2597236    4.1783963    2.7140015 *  2.8802137 *  4.2833301  
  25 H       5.6333602    5.2443831    4.2206475    2.8179811 *  3.4524359  
  26 H       5.3167446    5.3312065    4.3239162    2.8578802 *  2.7888009 *
  27 H       6.4165480    6.0509997    4.7501531    3.5146877    4.0892784  
  28 H       3.3190687    2.5928520 *  1.9743229 *  3.2548897    3.8359684  
  29 H       2.1871754 *  2.7996395 *  4.2450240    5.0799073    4.7350958  
  30 H       2.1839649 *  3.4986616    4.7459775    5.0788485    4.2383995  
  31 H       2.1838764 *  2.8103794 *  4.2402219    4.6416267    4.2472505  

                6 C          7 C          8 C          9 C         10 O     

   1 C       1.5369996 *  4.4792416    5.3878719    5.4230788    3.0667194  
   2 C       2.5046601 *  3.9516072    4.4570850    5.1219663    2.4591145 *
   3 C       2.9595282 *  2.5820410 *  3.0000996    3.9436995    1.4404969 *
   4 C       2.5671366 *  1.5540446 *  2.5752227 *  2.5634219 *  2.4062411 *
   5 C       1.5372515 *  2.5811188 *  3.9523432    3.0863330    2.9939527 *
   6 C       0.0000000    3.9552909    5.1411282    4.5023447    3.6024628  
   7 C       3.9552909    0.0000000    1.5390938 *  1.5403619 *  2.8980140 *
   8 C       5.1411282    1.5390938 *  0.0000000    2.5113659 *  3.3611868  
   9 C       4.5023447    1.5403619 *  2.5113659 *  0.0000000    4.3598367  
  10 O       3.6024628    2.8980140 *  3.3611868    4.3598367    0.0000000  
  11 C       2.5484394 *  5.9547769    6.7971065    6.8221404    4.4639178  
  12 H       2.1432932 *  4.6127402    5.5706426    5.6469385    2.7456531 *
  13 H       3.4706685    4.7393646    5.0327961    6.0382063    2.6896631 *
  14 H       2.7880568 *  4.2719917    4.6496020    5.2717335    3.3854644  
  15 H       3.9246612    2.8265895 *  2.6469997 *  4.2068625    2.0746925 *
  16 H       2.8004674 *  2.1575759 *  2.8351642 *  2.7539651 *  3.3270859  
  17 H       2.1666635 *  2.7959766 *  4.2021947    3.4248682    2.7197809 *
  18 H       2.1556110 *  2.8144551 *  4.2694542    2.7244047 *  3.9842138  
  19 H       1.1019552 *  4.2817693    5.3418408    4.6512142    4.3258254  
  20 H       1.0982216 *  4.7465455    6.0560951    5.1198146    4.3773714  
  21 H       4.1984862    1.0980423 *  2.1421417 *  2.1527544 *  2.6011012 *
  22 H       5.3055435    2.1918824 *  1.0985817 *  2.8261562 *  4.0172082  
  23 H       6.0626244    2.1770321 *  1.0961758 *  2.6878992 *  4.1827328  
  24 H       5.3259369    2.1984674 *  1.0937303 *  3.4790561    2.8486063 *
  25 H       4.6507757    2.1883231 *  2.8125450 *  1.0984736 *  4.9409091  
  26 H       4.1991774    2.2065127 *  3.4844907    1.0938156 *  4.6396971  
  27 H       5.5529551    2.1795356 *  2.6976013 *  1.0959469 *  4.9846937  
  28 H       4.1902733    3.7929122    4.0222510    5.2880015    0.9660222 *
  29 H       3.5066649    6.5350315    7.2249815    7.5606852    4.6278873  
  30 H       2.7978394 *  6.5350800    7.5371205    7.2735297    5.1336484  
  31 H       2.8280979 *  6.1936029    6.9549661    6.9490090    5.0638263  

               11 C         12 H         13 H         14 H         15 H     

   1 C       1.5334861 *  1.0995588 *  2.1806386 *  2.1664779 *  3.4948190  
   2 C       2.5401745 *  2.1461875 *  1.1007638 *  1.1007961 *  2.1481308 *
   3 C       3.9260387    2.8095379 *  2.1626176 *  2.1529986 *  1.0994508 *
   4 C       4.4517280    3.3788863    3.5013740    2.8411906 *  2.1659290 *
   5 C       3.9208803    2.7845166 *  3.9424737    3.3537257    3.4744724  
   6 C       2.5484394 *  2.1432932 *  3.4706685    2.7880568 *  3.9246612  
   7 C       5.9547769    4.6127402    4.7393646    4.2719917    2.8265895 *
   8 C       6.7971065    5.5706426    5.0327961    4.6496020    2.6469997 *
   9 C       6.8221404    5.6469385    6.0382063    5.2717335    4.2068625  
  10 O       4.4639178    2.7456531 *  2.6896631 *  3.3854644    2.0746925 *
  11 C       0.0000000    2.1486811 *  2.7806466 *  2.7617389 *  4.6845504  
  12 H       2.1486811 *  0.0000000    2.4892832 *  3.0584508    3.8097822  
  13 H       2.7806466 *  2.4892832 *  0.0000000    1.7581028 *  2.4788606 *
  14 H       2.7617389 *  3.0584508    1.7581028 *  0.0000000    2.4092891 *
  15 H       4.6845504    3.8097822    2.4788606 *  2.4092891 *  0.0000000  
  16 H       4.5813770    4.0097195    3.7668928    2.6080067 *  2.4010095 *
  17 H       4.2518473    2.6215606 *  4.1884221    4.0388203    3.8366533  
  18 H       4.6992259    3.7739835    4.9734915    4.1611301    4.3064790  
  19 H       2.7603890 *  3.0526815    3.7915159    2.6136445 *  4.1332530  
  20 H       2.7840083 *  2.4755250 *  4.3174095    3.7925060    4.9739783  
  21 H       6.1386172    4.4774829    4.9239231    4.8054841    3.2617460  
  22 H       6.8774489    5.9688072    5.1494662    4.4702852    2.7343963 *
  23 H       7.8332151    6.4949036    6.0763485    5.7441939    3.6977982  
  24 H       6.6382072    5.3429053    4.5323532    4.4952698    2.1753531 *
  25 H       6.9123156    6.0521235    6.2041865    5.1617757    4.3501825  
  26 H       6.6744227    5.4798867    6.3055738    5.5473171    4.8181803  
  27 H       7.8524988    6.5534454    6.8979852    6.2403076    4.8929826  
  28 H       4.5145704    2.9170194 *  2.4057607 *  3.5578216    2.3445453 *
  29 H       1.0969154 *  2.4985349 *  2.5894095 *  3.1119601    4.8844930  
  30 H       1.0964661 *  2.5023843 *  3.7877516    3.7747326    5.6080388  
  31 H       1.0979397 *  3.0734353    3.1475911    2.5803577 *  4.8508219  

               16 H         17 H         18 H         19 H         20 H     

   1 C       3.3796767    2.8382412 *  3.4881559    2.1607791 *  2.1717806 *
   2 C       2.7768540 *  3.3599325    3.9275542    2.7830388 *  3.4640276  
   3 C       2.1231476 *  2.8229432 *  3.4821956    3.3650154    3.9611977  
   4 C       1.1034633 *  2.1630036 *  2.1778061 *  2.8522981 *  3.5104307  
   5 C       2.1564287 *  1.0981212 *  1.0944818 *  2.1700948 *  2.1700764 *
   6 C       2.8004674 *  2.1666635 *  2.1556110 *  1.1019552 *  1.0982216 *
   7 C       2.1575759 *  2.7959766 *  2.8144551 *  4.2817693    4.7465455  
   8 C       2.8351642 *  4.2021947    4.2694542    5.3418408    6.0560951  
   9 C       2.7539651 *  3.4248682    2.7244047 *  4.6512142    5.1198146  
  10 O       3.3270859    2.7197809 *  3.9842138    4.3258254    4.3773714  
  11 C       4.5813770    4.2518473    4.6992259    2.7603890 *  2.7840083 *
  12 H       4.0097195    2.6215606 *  3.7739835    3.0526815    2.4755250 *
  13 H       3.7668928    4.1884221    4.9734915    3.7915159    4.3174095  
  14 H       2.6080067 *  4.0388203    4.1611301    2.6136445 *  3.7925060  
  15 H       2.4010095 *  3.8366533    4.3064790    4.1332530    4.9739783  
  16 H       0.0000000    3.0598445    2.4871699 *  2.6387241 *  3.7982962  
  17 H       3.0598445    0.0000000    1.7606143 *  3.0737029    2.4813691 *
  18 H       2.4871699 *  1.7606143 *  0.0000000    2.4675106 *  2.4806805 *
  19 H       2.6387241 *  3.0737029    2.4675106 *  0.0000000    1.7605340 *
  20 H       3.7982962    2.4813691 *  2.4806805 *  1.7605340 *  0.0000000  
  21 H       3.0467781    2.5295010 *  3.0989908    4.7659979    4.8516508  
  22 H       2.6466140 *  4.7786789    4.5316546    5.2811604    6.2859602  
  23 H       3.8037661    4.8859026    4.9266870    6.2925851    6.9085187  
  24 H       3.2858534    4.4055245    4.8299292    5.6256120    6.2740036  
  25 H       2.5553967 *  4.0660862    3.0010061    4.5362223    5.3298062  
  26 H       3.1513637    3.0307037    2.1428197 *  4.4242364    4.6030240  
  27 H       3.7513186    4.2593885    3.7291498    5.7441463    6.1370284  
  28 H       4.0607720    3.5560035    4.8716339    4.8965852    4.9434493  
  29 H       5.2682955    4.9472174    5.6150388    3.7785077    3.7851600  
  30 H       5.2697200    4.4538243    4.8861155    3.0958013    2.5840799 *
  31 H       4.5050728    4.8117127    4.8960454    2.5899175 *  3.1675055  

               21 H         22 H         23 H         24 H         25 H     

   1 C       4.6088327    5.5896336    6.3901317    5.2597236    5.6333602  
   2 C       4.2476904    4.5421301    5.5236329    4.1783963    5.2443831  
   3 C       2.8545116 *  3.2830441    4.0354631    2.7140015 *  4.2206475  
   4 C       2.1504369 *  2.8270912 *  3.5217239    2.8802137 *  2.8179811 *
   5 C       2.7662188 *  4.2897803    4.7520409    4.2833301    3.4524359  
   6 C       4.1984862    5.3055435    6.0626244    5.3259369    4.6507757  
   7 C       1.0980423 *  2.1918824 *  2.1770321 *  2.1984674 *  2.1883231 *
   8 C       2.1421417 *  1.0985817 *  1.0961758 *  1.0937303 *  2.8125450 *
   9 C       2.1527544 *  2.8261562 *  2.6878992 *  3.4790561    1.0984736 *
  10 O       2.6011012 *  4.0172082    4.1827328    2.8486063 *  4.9409091  
  11 C       6.1386172    6.8774489    7.8332151    6.6382072    6.9123156  
  12 H       4.4774829    5.9688072    6.4949036    5.3429053    6.0521235  
  13 H       4.9239231    5.1494662    6.0763485    4.5323532    6.2041865  
  14 H       4.8054841    4.4702852    5.7441939    4.4952698    5.1617757  
  15 H       3.2617460    2.7343963 *  3.6977982    2.1753531 *  4.3501825  
  16 H       3.0467781    2.6466140 *  3.8037661    3.2858534    2.5553967 *
  17 H       2.5295010 *  4.7786789    4.8859026    4.4055245    4.0660862  
  18 H       3.0989908    4.5316546    4.9266870    4.8299292    3.0010061  
  19 H       4.7659979    5.2811604    6.2925851    5.6256120    4.5362223  
  20 H       4.8516508    6.2859602    6.9085187    6.2740036    5.3298062  
  21 H       0.0000000    3.0701276    2.5107260 *  2.4667557 *  3.0753082  
  22 H       3.0701276    0.0000000    1.7687058 *  1.7773427 *  2.6846285 *
  23 H       2.5107260 *  1.7687058 *  0.0000000    1.7627608 *  3.0830080  
  24 H       2.4667557 *  1.7773427 *  1.7627608 *  0.0000000    3.8459203  
  25 H       3.0753082    2.6846285 *  3.0830080    3.8459203    0.0000000  
  26 H       2.4997398 *  3.8558905    3.6873556    4.3508712    1.7719862 *
  27 H       2.5148066 *  3.1125308    2.4089218 *  3.6851820    1.7694123 *
  28 H       3.4996327    4.6186751    4.8304073    3.3053070    5.8286551  
  29 H       6.6540808    7.3303497    8.2696648    6.9064356    7.6921511  
  30 H       6.6336242    7.6794337    8.5310296    7.4428686    7.4115240  
  31 H       6.5563649    6.8622732    8.0185582    6.8769309    6.8641882  

               26 H         27 H         28 H         29 H         30 H     

   1 C       5.3167446    6.4165480    3.3190687    2.1871754 *  2.1839649 *
   2 C       5.3312065    6.0509997    2.5928520 *  2.7996395 *  3.4986616  
   3 C       4.3239162    4.7501531    1.9743229 *  4.2450240    4.7459775  
   4 C       2.8578802 *  3.5146877    3.2548897    5.0799073    5.0788485  
   5 C       2.7888009 *  4.0892784    3.8359684    4.7350958    4.2383995  
   6 C       4.1991774    5.5529551    4.1902733    3.5066649    2.7978394 *
   7 C       2.2065127 *  2.1795356 *  3.7929122    6.5350315    6.5350800  
   8 C       3.4844907    2.6976013 *  4.0222510    7.2249815    7.5371205  
   9 C       1.0938156 *  1.0959469 *  5.2880015    7.5606852    7.2735297  
  10 O       4.6396971    4.9846937    0.9660222 *  4.6278873    5.1336484  
  11 C       6.6744227    7.8524988    4.5145704    1.0969154 *  1.0964661 *
  12 H       5.4798867    6.5534454    2.9170194 *  2.4985349 *  2.5023843 *
  13 H       6.3055738    6.8979852    2.4057607 *  2.5894095 *  3.7877516  
  14 H       5.5473171    6.2403076    3.5578216    3.1119601    3.7747326  
  15 H       4.8181803    4.8929826    2.3445453 *  4.8844930    5.6080388  
  16 H       3.1513637    3.7513186    4.0607720    5.2682955    5.2697200  
  17 H       3.0307037    4.2593885    3.5560035    4.9472174    4.4538243  
  18 H       2.1428197 *  3.7291498    4.8716339    5.6150388    4.8861155  
  19 H       4.4242364    5.7441463    4.8965852    3.7785077    3.0958013  
  20 H       4.6030240    6.1370284    4.9434493    3.7851600    2.5840799 *
  21 H       2.4997398 *  2.5148066 *  3.4996327    6.6540808    6.6336242  
  22 H       3.8558905    3.1125308    4.6186751    7.3303497    7.6794337  
  23 H       3.6873556    2.4089218 *  4.8304073    8.2696648    8.5310296  
  24 H       4.3508712    3.6851820    3.3053070    6.9064356    7.4428686  
  25 H       1.7719862 *  1.7694123 *  5.8286551    7.6921511    7.4115240  
  26 H       0.0000000    1.7633589 *  5.6033380    7.4962885    6.9667593  
  27 H       1.7633589 *  0.0000000    5.8806968    8.5505497    8.3062206  
  28 H       5.6033380    5.8806968    0.0000000    4.4445727    5.2406350  
  29 H       7.4962885    8.5505497    4.4445727    0.0000000    1.7710917 *
  30 H       6.9667593    8.3062206    5.2406350    1.7710917 *  0.0000000  
  31 H       6.8544222    8.0139303    5.1641989    1.7714745 *  1.7708867 *

               31 H     

   1 C       2.1838764 *
   2 C       2.8103794 *
   3 C       4.2402219  
   4 C       4.6416267  
   5 C       4.2472505  
   6 C       2.8280979 *
   7 C       6.1936029  
   8 C       6.9549661  
   9 C       6.9490090  
  10 O       5.0638263  
  11 C       1.0979397 *
  12 H       3.0734353  
  13 H       3.1475911  
  14 H       2.5803577 *
  15 H       4.8508219  
  16 H       4.5050728  
  17 H       4.8117127  
  18 H       4.8960454  
  19 H       2.5899175 *
  20 H       3.1675055  
  21 H       6.5563649  
  22 H       6.8622732  
  23 H       8.0185582  
  24 H       6.8769309  
  25 H       6.8641882  
  26 H       6.8544222  
  27 H       8.0139303  
  28 H       5.1641989  
  29 H       1.7714745 *
  30 H       1.7708867 *
  31 H       0.0000000  

  * ... LESS THAN  3.000


     ATOMIC BASIS SET
     ----------------
 THE CONTRACTED PRIMITIVE FUNCTIONS HAVE BEEN UNNORMALIZED
 THE CONTRACTED BASIS FUNCTIONS ARE NOW NORMALIZED TO UNITY

  SHELL TYPE  PRIMITIVE        EXPONENT          CONTRACTION COEFFICIENT(S)

 C         

      1   S       1           172.2560000    0.061766907377
      1   S       2            25.9109000    0.358794042852
      1   S       3             5.5333500    0.700713083689

      2   L       4             3.6649800   -0.395895162119    0.236459946619
      2   L       5             0.7705450    1.215834355681    0.860618805716

      3   L       6             0.1958570    1.000000000000    1.000000000000

 C         

      4   S       7           172.2560000    0.061766907377
      4   S       8            25.9109000    0.358794042852
      4   S       9             5.5333500    0.700713083689

      5   L      10             3.6649800   -0.395895162119    0.236459946619
      5   L      11             0.7705450    1.215834355681    0.860618805716

      6   L      12             0.1958570    1.000000000000    1.000000000000

 C         

      7   S      13           172.2560000    0.061766907377
      7   S      14            25.9109000    0.358794042852
      7   S      15             5.5333500    0.700713083689

      8   L      16             3.6649800   -0.395895162119    0.236459946619
      8   L      17             0.7705450    1.215834355681    0.860618805716

      9   L      18             0.1958570    1.000000000000    1.000000000000

 C         

     10   S      19           172.2560000    0.061766907377
     10   S      20            25.9109000    0.358794042852
     10   S      21             5.5333500    0.700713083689

     11   L      22             3.6649800   -0.395895162119    0.236459946619
     11   L      23             0.7705450    1.215834355681    0.860618805716

     12   L      24             0.1958570    1.000000000000    1.000000000000

 C         

     13   S      25           172.2560000    0.061766907377
     13   S      26            25.9109000    0.358794042852
     13   S      27             5.5333500    0.700713083689

     14   L      28             3.6649800   -0.395895162119    0.236459946619
     14   L      29             0.7705450    1.215834355681    0.860618805716

     15   L      30             0.1958570    1.000000000000    1.000000000000

 C         

     16   S      31           172.2560000    0.061766907377
     16   S      32            25.9109000    0.358794042852
     16   S      33             5.5333500    0.700713083689

     17   L      34             3.6649800   -0.395895162119    0.236459946619
     17   L      35             0.7705450    1.215834355681    0.860618805716

     18   L      36             0.1958570    1.000000000000    1.000000000000

 C         

     19   S      37           172.2560000    0.061766907377
     19   S      38            25.9109000    0.358794042852
     19   S      39             5.5333500    0.700713083689

     20   L      40             3.6649800   -0.395895162119    0.236459946619
     20   L      41             0.7705450    1.215834355681    0.860618805716

     21   L      42             0.1958570    1.000000000000    1.000000000000

 C         

     22   S      43           172.2560000    0.061766907377
     22   S      44            25.9109000    0.358794042852
     22   S      45             5.5333500    0.700713083689

     23   L      46             3.6649800   -0.395895162119    0.236459946619
     23   L      47             0.7705450    1.215834355681    0.860618805716

     24   L      48             0.1958570    1.000000000000    1.000000000000

 C         

     25   S      49           172.2560000    0.061766907377
     25   S      50            25.9109000    0.358794042852
     25   S      51             5.5333500    0.700713083689

     26   L      52             3.6649800   -0.395895162119    0.236459946619
     26   L      53             0.7705450    1.215834355681    0.860618805716

     27   L      54             0.1958570    1.000000000000    1.000000000000

 O         

     28   S      55           322.0370000    0.059239393389
     28   S      56            48.4308000    0.351499960776
     28   S      57            10.4206000    0.707657921031

     29   L      58             7.4029400   -0.404453583190    0.244586106967
     29   L      59             1.5762000    1.221561761397    0.853955373466

     30   L      60             0.3736840    1.000000000000    1.000000000000

 C         

     31   S      61           172.2560000    0.061766907377
     31   S      62            25.9109000    0.358794042852
     31   S      63             5.5333500    0.700713083689

     32   L      64             3.6649800   -0.395895162119    0.236459946619
     32   L      65             0.7705450    1.215834355681    0.860618805716

     33   L      66             0.1958570    1.000000000000    1.000000000000

 H         

     34   S      67             5.4471780    0.156284978695
     34   S      68             0.8245472    0.904690876670

     35   S      69             0.1831916    1.000000000000

 H         

     36   S      70             5.4471780    0.156284978695
     36   S      71             0.8245472    0.904690876670

     37   S      72             0.1831916    1.000000000000

 H         

     38   S      73             5.4471780    0.156284978695
     38   S      74             0.8245472    0.904690876670

     39   S      75             0.1831916    1.000000000000

 H         

     40   S      76             5.4471780    0.156284978695
     40   S      77             0.8245472    0.904690876670

     41   S      78             0.1831916    1.000000000000

 H         

     42   S      79             5.4471780    0.156284978695
     42   S      80             0.8245472    0.904690876670

     43   S      81             0.1831916    1.000000000000

 H         

     44   S      82             5.4471780    0.156284978695
     44   S      83             0.8245472    0.904690876670

     45   S      84             0.1831916    1.000000000000

 H         

     46   S      85             5.4471780    0.156284978695
     46   S      86             0.8245472    0.904690876670

     47   S      87             0.1831916    1.000000000000

 H         

     48   S      88             5.4471780    0.156284978695
     48   S      89             0.8245472    0.904690876670

     49   S      90             0.1831916    1.000000000000

 H         

     50   S      91             5.4471780    0.156284978695
     50   S      92             0.8245472    0.904690876670

     51   S      93             0.1831916    1.000000000000

 H         

     52   S      94             5.4471780    0.156284978695
     52   S      95             0.8245472    0.904690876670

     53   S      96             0.1831916    1.000000000000

 H         

     54   S      97             5.4471780    0.156284978695
     54   S      98             0.8245472    0.904690876670

     55   S      99             0.1831916    1.000000000000

 H         

     56   S     100             5.4471780    0.156284978695
     56   S     101             0.8245472    0.904690876670

     57   S     102             0.1831916    1.000000000000

 H         

     58   S     103             5.4471780    0.156284978695
     58   S     104             0.8245472    0.904690876670

     59   S     105             0.1831916    1.000000000000

 H         

     60   S     106             5.4471780    0.156284978695
     60   S     107             0.8245472    0.904690876670

     61   S     108             0.1831916    1.000000000000

 H         

     62   S     109             5.4471780    0.156284978695
     62   S     110             0.8245472    0.904690876670

     63   S     111             0.1831916    1.000000000000

 H         

     64   S     112             5.4471780    0.156284978695
     64   S     113             0.8245472    0.904690876670

     65   S     114             0.1831916    1.000000000000

 H         

     66   S     115             5.4471780    0.156284978695
     66   S     116             0.8245472    0.904690876670

     67   S     117             0.1831916    1.000000000000

 H         

     68   S     118             5.4471780    0.156284978695
     68   S     119             0.8245472    0.904690876670

     69   S     120             0.1831916    1.000000000000

 H         

     70   S     121             5.4471780    0.156284978695
     70   S     122             0.8245472    0.904690876670

     71   S     123             0.1831916    1.000000000000

 H         

     72   S     124             5.4471780    0.156284978695
     72   S     125             0.8245472    0.904690876670

     73   S     126             0.1831916    1.000000000000

 TOTAL NUMBER OF BASIS SET SHELLS             =   73
 NUMBER OF CARTESIAN GAUSSIAN BASIS FUNCTIONS =  139
 NUMBER OF ELECTRONS                          =   87
 CHARGE OF MOLECULE                           =    1
 SPIN MULTIPLICITY                            =    2
 NUMBER OF OCCUPIED ORBITALS (ALPHA)          =   44
 NUMBER OF OCCUPIED ORBITALS (BETA )          =   43
 TOTAL NUMBER OF ATOMS                        =   31
 THE NUCLEAR REPULSION ENERGY IS      689.9800104740

     $CONTRL OPTIONS
     ---------------
 SCFTYP=UHF          RUNTYP=ENERGY       EXETYP=RUN     
 MPLEVL=       0     CITYP =NONE         CCTYP =NONE         VBTYP =NONE    
 DFTTYP=NONE         TDDFT =NONE    
 MULT  =       2     ICHARG=       1     NZVAR =       0     COORD =UNIQUE  
 PP    =NONE         RELWFN=NONE         LOCAL =NONE         NUMGRD=       F
 ISPHER=      -1     NOSYM =       0     MAXIT =      60     UNITS =ANGS    
 PLTORB=       F     MOLPLT=       F     AIMPAC=       F     FRIEND=        
 NPRINT=       7     IREST =       0     GEOM  =INPUT   
 NORMF =       0     NORMP =       0     ITOL  =      20     ICUT  =       9
 INTTYP=BEST         GRDTYP=BEST         QMTTOL= 1.0E-06

     $SYSTEM OPTIONS
     ---------------
  REPLICATED MEMORY=    30000000 WORDS (ON EVERY NODE).
 DISTRIBUTED MEMDDI=        1000 MILLION WORDS IN AGGREGATE,
 MEMDDI DISTRIBUTED OVER   6 PROCESSORS IS   166666666 WORDS/PROCESSOR.
 TOTAL MEMORY REQUESTED ON EACH PROCESSOR=   196666666 WORDS.
 TIMLIM=      525600.00 MINUTES, OR     365.0 DAYS.
 PARALL= T  BALTYP=  DLB     KDIAG=    0  COREFL= F
 MXSEQ2=     300 MXSEQ3=     150  mem10=         0

          ----------------
          PROPERTIES INPUT
          ----------------

     MOMENTS            FIELD           POTENTIAL          DENSITY
 IEMOM =       1   IEFLD =       0   IEPOT =       0   IEDEN =       0
 WHERE =COMASS     WHERE =NUCLEI     WHERE =NUCLEI     WHERE =NUCLEI  
 OUTPUT=BOTH       OUTPUT=BOTH       OUTPUT=BOTH       OUTPUT=BOTH    
 IEMINT=       0   IEFINT=       0                     IEDINT=       0
                                                       MORB  =       0
          EXTRAPOLATION IN EFFECT
          SOSCF IN EFFECT
          DIIS or SOSCF will be reset if energy rises
 ORBITAL PRINTING OPTION: NPREO=     1   139     2     1

     -------------------------------
     INTEGRAL TRANSFORMATION OPTIONS
     -------------------------------
     NWORD  =            0
     CUTOFF = 1.0E-09     MPTRAN =       0
     DIRTRF =       T     AOINTS =DUP     

          ----------------------
          INTEGRAL INPUT OPTIONS
          ----------------------
 NOPK  =       1 NORDER=       0 SCHWRZ=       T

     ------------------------------------------
     THE POINT GROUP IS C1 , NAXIS= 0, ORDER= 1
     ------------------------------------------

     DIMENSIONS OF THE SYMMETRY SUBSPACES ARE
 A   =  139

 ..... DONE SETTING UP THE RUN .....
 CPU     0: STEP CPU TIME=     0.03 TOTAL CPU TIME=          0.0 (      0.0 MIN)
 TOTAL WALL CLOCK TIME=          0.1 SECONDS, CPU UTILIZATION IS    50.00%

          ********************
          1 ELECTRON INTEGRALS
          ********************
 ...... END OF ONE-ELECTRON INTEGRALS ......
 CPU     0: STEP CPU TIME=     0.01 TOTAL CPU TIME=          0.0 (      0.0 MIN)
 TOTAL WALL CLOCK TIME=          0.1 SECONDS, CPU UTILIZATION IS    44.44%

          -------------
          GUESS OPTIONS
          -------------
          GUESS =HUCKEL            NORB  =       0          NORDER=       0
          MIX   =       F          PRTMO =       F          PUNMO =       F
          TOLZ  = 1.0E-08          TOLE  = 1.0E-05
          SYMDEN=       F          PURIFY=       F

 INITIAL GUESS ORBITALS GENERATED BY HUCKEL   ROUTINE.
 HUCKEL GUESS REQUIRES    185016 WORDS.

 SYMMETRIES FOR INITIAL GUESS ORBITALS FOLLOW.  ALPHA SET(S).
    44 ORBITALS ARE OCCUPIED (   11 CORE ORBITALS).
    12=A       13=A       14=A       15=A       16=A       17=A       18=A   
    19=A       20=A       21=A       22=A       23=A       24=A       25=A   
    26=A       27=A       28=A       29=A       30=A       31=A       32=A   
    33=A       34=A       35=A       36=A       37=A       38=A       39=A   
    40=A       41=A       42=A       43=A       44=A       45=A       46=A   
    47=A       48=A       49=A       50=A       51=A       52=A       53=A   
    54=A   

 SYMMETRIES FOR INITIAL GUESS ORBITALS FOLLOW.   BETA SET(S).
    43 ORBITALS ARE OCCUPIED (   11 CORE ORBITALS).
    12=A       13=A       14=A       15=A       16=A       17=A       18=A   
    19=A       20=A       21=A       22=A       23=A       24=A       25=A   
    26=A       27=A       28=A       29=A       30=A       31=A       32=A   
    33=A       34=A       35=A       36=A       37=A       38=A       39=A   
    40=A       41=A       42=A       43=A       44=A       45=A       46=A   
    47=A       48=A       49=A       50=A       51=A       52=A       53=A   
 ...... END OF INITIAL ORBITAL SELECTION ......
 CPU     0: STEP CPU TIME=     0.07 TOTAL CPU TIME=          0.1 (      0.0 MIN)
 TOTAL WALL CLOCK TIME=          0.2 SECONDS, CPU UTILIZATION IS    64.71%

                    ----------------------
                    AO INTEGRAL TECHNOLOGY
                    ----------------------
     S,P,L SHELL ROTATED AXIS INTEGRALS, REPROGRAMMED BY
        KAZUYA ISHIMURA (IMS) AND JOSE SIERRA (SYNSTAR).
     S,P,D,L SHELL ROTATED AXIS INTEGRALS PROGRAMMED BY
        KAZUYA ISHIMURA (INSTITUTE FOR MOLECULAR SCIENCE).
     S,P,D,F,G SHELL TO TOTAL QUARTET ANGULAR MOMENTUM SUM 5,
        ERIC PROGRAM BY GRAHAM FLETCHER (ELORET AND NASA ADVANCED
        SUPERCOMPUTING DIVISION, AMES RESEARCH CENTER).
     S,P,D,F,G,L SHELL GENERAL RYS QUADRATURE PROGRAMMED BY
        MICHEL DUPUIS (PACIFIC NORTHWEST NATIONAL LABORATORY).

          --------------------
          2 ELECTRON INTEGRALS
          --------------------

 DIRECT SCF METHOD SKIPS INTEGRAL STORAGE ON DISK.
 DIRECT TRANSFORMATION SKIPS AO INTEGRAL STORAGE ON DISK.
  ...... END OF TWO-ELECTRON INTEGRALS .....
 CPU     0: STEP CPU TIME=     0.02 TOTAL CPU TIME=          0.1 (      0.0 MIN)
 TOTAL WALL CLOCK TIME=          0.2 SECONDS, CPU UTILIZATION IS    65.00%

          ---------------------------
                  UHF SCF CALCULATION
          ---------------------------

     NUCLEAR ENERGY =       689.9800104740
     MAXIT = 60     NPUNCH=  2     MULT=  2
     EXTRAP=T  DAMP=F  SHIFT=F  RSTRCT=F  DIIS=F  SOSCF=T
     DENSITY MATRIX CONV=  2.00E-05
     SOSCF WILL OPTIMIZE    4180 ALPHA AND    4128 BETA ROTATION ANGLES.
     SOGTOL= 2.500E-01
     MEMORY REQUIRED FOR UHF/ROHF ITERS=    303348 WORDS.

 DIRECT SCF CALCULATION, SCHWRZ=T   FDIFF=T
 SCHWARZ INEQUALITY OVERHEAD:      9150 INTEGRALS, T=        0.00

                                                                                NONZERO     BLOCKS
 ITER EX      TOTAL ENERGY        E CHANGE  DENSITY CHANGE    ORB. GRAD       INTEGRALS    SKIPPED
   1  0     -461.1785799915  -461.1785799915   0.817847077   0.000000000       28172409    1931024
          ---------------START SECOND ORDER SCF---------------
   2  1     -462.1909002817    -1.0123202901   0.133753896   0.053138299       27952235    1983067
   3  2     -462.2491842542    -0.0582839725   0.101102220   0.010550665       27450327    2076876
   4  3     -462.2629603702    -0.0137761160   0.030240846   0.008998261       26802932    2171734
   5  4     -462.2648710202    -0.0019106500   0.034574958   0.007241840       26323380    2226017
   6  5     -462.2675599514    -0.0026889312   0.527843141   0.008522928       26793256    2182984
   7  6     -462.1166991856     0.1508607658   0.509090177   0.075735294       27973018    1998114
   8  7     -462.2543364468    -0.1376372611   0.066379927   0.035216941       27953183    2001123
   9  8     -462.2734565755    -0.0191201287   0.044209452   0.009176772       27448306    2094083
  10  9     -462.2803768828    -0.0069203073   0.061387356   0.017273188       27034605    2151207
  11 10     -462.2895460120    -0.0091691292   0.051756523   0.019527499       27261779    2122388
  12 11     -462.3003984241    -0.0108524121   0.066859173   0.011598008       26907466    2160500
  13 12     -462.3077128139    -0.0073143898   0.016791530   0.006157654       26877301    2163206
  14 13     -462.3088614630    -0.0011486491   0.017449667   0.004125693       26112083    2245286
  15 14     -462.3093403378    -0.0004788747   0.006818769   0.004044020       26185151    2246816
  16 15     -462.3096840395    -0.0003437018   0.008079414   0.002557157       25244903    2333849
  17 16     -462.3098376927    -0.0001536532   0.006244430   0.001157572       24693746    2367161
  18 17     -462.3098920994    -0.0000544066   0.002105128   0.000459086       23923948    2423477
  19 18     -462.3099043075    -0.0000122081   0.001117661   0.000160177       23241109    2480799
  20 19     -462.3099071314    -0.0000028239   0.000676185   0.000065670       22514960    2529810
  21 20     -462.3099076758    -0.0000005444   0.000310438   0.000030041       21334569    2610110
  22 21     -462.3099077847    -0.0000001089   0.000120659   0.000012660       20349752    2677372
  23 22     -462.3099078069    -0.0000000222   0.000056623   0.000006549       19110834    2753591
  24 23     -462.3099078102    -0.0000000033   0.000022510   0.000003286       17969273    2826676
  25 24     -462.3099078102    -0.0000000000   0.000009907   0.000001001       16739535    2903075
  26 25     -462.3099078102     0.0000000000   0.000004158   0.000000450       15456618    2976697

          -----------------
          DENSITY CONVERGED
          -----------------
     TIME TO FORM FOCK OPERATORS=      15.4 SECONDS (       0.6 SEC/ITER)
     FOCK TIME ON FIRST ITERATION=       0.6, LAST ITERATION=       0.3
     TIME TO SOLVE SCF EQUATIONS=       0.5 SECONDS (       0.0 SEC/ITER)

 FINAL UHF ENERGY IS     -462.3099078102 AFTER  26 ITERATIONS

          --------------------
          SPIN SZ   =    0.500
          S-SQUARED =    0.759
          --------------------

  ----- ALPHA SET ----- 

          ------------
          EIGENVECTORS
          ------------

                      1          2          3          4          5
                  -20.9172   -11.4597   -11.3641   -11.3424   -11.3276
                     A          A          A          A          A   
    1  C  1  S    0.000047  -0.001314  -0.002649   0.002731   0.988493
    2  C  1  S    0.000505  -0.001100  -0.002207   0.000856   0.108287
    3  C  1  X    0.000554  -0.001401   0.000145   0.000506   0.000463
    4  C  1  Y    0.000089   0.000792  -0.000442  -0.000097  -0.000111
    5  C  1  Z   -0.000079  -0.000047  -0.000320   0.000393  -0.000668
    6  C  1  S    0.000247  -0.000671   0.018121  -0.000956  -0.107037
    7  C  1  X   -0.002580   0.005895   0.007937  -0.004388  -0.002792
    8  C  1  Y   -0.002729   0.000765  -0.010681   0.000206  -0.002361
    9  C  1  Z   -0.000335   0.001800  -0.005067  -0.001711   0.008115
   10  C  2  S    0.000158  -0.002161   0.987994   0.008010   0.001860
   11  C  2  S    0.000457  -0.003498   0.105415  -0.000430  -0.002178
   12  C  2  X   -0.000780   0.000580   0.000883  -0.001021  -0.000837
   13  C  2  Y    0.000150  -0.000342   0.000284  -0.000361   0.000501
   14  C  2  Z   -0.000174  -0.000153   0.000298   0.000059   0.000312
   15  C  2  S   -0.003962   0.026157  -0.094255   0.002077   0.022501
   16  C  2  X    0.000119   0.014983  -0.005063   0.002213  -0.008026
   17  C  2  Y    0.000687   0.000490  -0.004935   0.000730   0.011889
   18  C  2  Z   -0.004094   0.004945  -0.005474  -0.000452   0.005925
   19  C  3  S   -0.000927   0.988344   0.001128   0.000344   0.001118
   20  C  3  S   -0.004145   0.106008  -0.002628  -0.002655  -0.001210
   21  C  3  X    0.000247  -0.000649  -0.000305   0.000716   0.001217
   22  C  3  Y   -0.001219   0.000326  -0.000132   0.000672  -0.000321
   23  C  3  Z    0.000986   0.000816  -0.000331  -0.000298  -0.000182
   24  C  3  S    0.020798  -0.096651   0.023025   0.024099   0.002696
   25  C  3  X   -0.000372   0.006014  -0.014308   0.007891  -0.003270
   26  C  3  Y   -0.001325  -0.011328   0.001380   0.013106   0.000479
   27  C  3  Z    0.013597   0.002415  -0.001576   0.003286   0.000967
   28  C  4  S    0.000228  -0.001283  -0.008244   0.988514  -0.002592
   29  C  4  S    0.001010  -0.002657  -0.002134   0.108429   0.000312
   30  C  4  X    0.000260   0.000000   0.001134  -0.000571  -0.000492
   31  C  4  Y    0.000895  -0.000530   0.000541  -0.000711   0.000147
   32  C  4  Z    0.000236  -0.000054   0.000429   0.000572  -0.000318
   33  C  4  S   -0.006882   0.021324   0.002382  -0.107412  -0.000753
   34  C  4  X    0.000592  -0.010146  -0.004760   0.002443   0.004560
   35  C  4  Y    0.000867  -0.014014   0.000632   0.003512  -0.000896
   36  C  4  Z   -0.005068  -0.001394  -0.001597  -0.008108   0.001020
   37  C  5  S    0.000068  -0.001965   0.001301  -0.002739  -0.008008
   38  C  5  S    0.000690  -0.002464   0.001256  -0.002812  -0.002003
   39  C  5  X    0.000010  -0.000109  -0.000014   0.000801   0.001023
   40  C  5  Y   -0.000465   0.001626  -0.000138  -0.000404   0.000331
   41  C  5  Z   -0.000180   0.000220   0.000241  -0.000465  -0.000037
   42  C  5  S    0.000164   0.005469  -0.005437   0.023102   0.002932
   43  C  5  X    0.002428  -0.001283   0.002164   0.007576  -0.001720
   44  C  5  Y    0.000032  -0.004534   0.003086  -0.012413  -0.000909
   45  C  5  Z    0.000129  -0.000585   0.001485  -0.005314   0.000045
   46  C  6  S   -0.000115   0.000843  -0.003949  -0.004097  -0.003765
   47  C  6  S   -0.000593   0.001517  -0.002563  -0.001637  -0.002981
   48  C  6  X    0.000074   0.000071   0.000066  -0.001024  -0.000780
   49  C  6  Y   -0.000274  -0.000140   0.001208   0.000264  -0.000638
   50  C  6  Z   -0.000003  -0.000346   0.000620   0.000204   0.000077
   51  C  6  S    0.004600  -0.006088   0.005862   0.002844   0.024168
   52  C  6  X    0.000201  -0.002638   0.001286   0.001996  -0.007516
   53  C  6  Y   -0.000842   0.004419  -0.003757  -0.000469  -0.013154
   54  C  6  Z    0.000550   0.000812  -0.002189  -0.000372  -0.001708
   55  C  7  S    0.000002  -0.000895  -0.001680  -0.002983   0.001277
   56  C  7  S    0.000239  -0.000759  -0.000996  -0.002727   0.000433
   57  C  7  X   -0.000083   0.000752   0.000229  -0.000777   0.000160
   58  C  7  Y   -0.000114   0.000596   0.000321   0.000149   0.000002
   59  C  7  Z   -0.000277   0.000073   0.000036  -0.000252  -0.000010
   60  C  7  S    0.001326   0.000151   0.003347   0.022421  -0.003050
   61  C  7  X   -0.001580  -0.002788  -0.003084  -0.014615   0.000978
   62  C  7  Y    0.001051  -0.001652  -0.001684  -0.000402  -0.000063
   63  C  7  Z    0.001265  -0.000011  -0.000340  -0.001472   0.000647
   64  C  8  S    0.000002  -0.000094  -0.000355  -0.002608  -0.000054
   65  C  8  S    0.000136   0.000000  -0.000167  -0.001113  -0.000069
   66  C  8  X   -0.000316   0.000035   0.000370   0.000618  -0.000084
   67  C  8  Y    0.000050   0.000066  -0.000123  -0.000369   0.000050
   68  C  8  Z    0.000074  -0.000273  -0.000020   0.000048  -0.000007
   69  C  8  S    0.001029   0.000285  -0.000884   0.001463   0.000729
   70  C  8  X    0.000832   0.001217  -0.000616   0.000191   0.000072
   71  C  8  Y    0.000395  -0.000092   0.000484   0.000441   0.000074
   72  C  8  Z    0.000101   0.000955  -0.000404  -0.000796   0.000133
   73  C  9  S    0.000025  -0.000768  -0.000233  -0.002359   0.000000
   74  C  9  S    0.000173  -0.001277  -0.000227  -0.001332  -0.000045
   75  C  9  X   -0.000098   0.000452   0.000020   0.000675  -0.000096
   76  C  9  Y   -0.000032   0.000047   0.000009   0.000230  -0.000059
   77  C  9  Z    0.000055   0.000060  -0.000022   0.000197  -0.000031
   78  C  9  S   -0.000334   0.004091   0.001318   0.002762   0.000675
   79  C  9  X    0.000790  -0.002931  -0.000192  -0.000518   0.000116
   80  C  9  Y    0.000068  -0.001153  -0.000708  -0.000287   0.000021
   81  C  9  Z   -0.000604  -0.000157   0.000360  -0.000824   0.000137
   82  O 10  S    0.983243  -0.000250   0.000032   0.000086   0.000051
   83  O 10  S    0.099262  -0.000999  -0.000083   0.000346   0.000460
   84  O 10  X   -0.001608   0.000006   0.000269  -0.000201  -0.000199
   85  O 10  Y   -0.001148  -0.000158  -0.000044  -0.000605   0.000090
   86  O 10  Z   -0.003015  -0.000554   0.000228   0.000233  -0.000091
   87  O 10  S   -0.046642   0.010569  -0.001395  -0.003268  -0.001295
   88  O 10  X    0.003453  -0.000806   0.000211   0.000557   0.000985
   89  O 10  Y    0.000290   0.003426  -0.000514   0.000903  -0.000531
   90  O 10  Z    0.009641  -0.003322   0.000561   0.000629   0.000648
   91  C 11  S    0.000048  -0.000794  -0.002114   0.000160  -0.001830
   92  C 11  S    0.000293  -0.001342  -0.001416   0.000219  -0.002522
   93  C 11  X   -0.000044  -0.000181  -0.000567  -0.000152   0.000995
   94  C 11  Y   -0.000042   0.000285   0.000400   0.000009  -0.000081
   95  C 11  Z    0.000036   0.000173   0.000235  -0.000012   0.000223
   96  C 11  S   -0.001811   0.005784   0.003181  -0.002661   0.023672
   97  C 11  X   -0.000668   0.003657   0.001208  -0.001137   0.012308
   98  C 11  Y    0.000990  -0.002078  -0.000086   0.000144  -0.000512
   99  C 11  Z   -0.000645  -0.000153  -0.000497  -0.000443   0.002437
  100  H 12  S   -0.000239  -0.000465  -0.001514   0.000632   0.001690
  101  H 12  S    0.000247  -0.000452   0.000678   0.000360   0.014226
  102  H 13  S    0.000901  -0.001139   0.001036  -0.000195  -0.000954
  103  H 13  S   -0.000608   0.000683   0.013181   0.001803   0.000890
  104  H 14  S   -0.000582  -0.001500   0.001274  -0.000148  -0.001625
  105  H 14  S   -0.000003   0.000898   0.014543  -0.001292   0.000312
  106  H 15  S   -0.001189   0.000905  -0.000849  -0.001193  -0.000251
  107  H 15  S    0.000577   0.013874   0.000556   0.001565   0.002250
  108  H 16  S   -0.000529  -0.001483  -0.000456   0.001714   0.000568
  109  H 16  S   -0.000023   0.000746  -0.001425   0.014102   0.000134
  110  H 17  S   -0.000110  -0.000807   0.000591  -0.001742  -0.000081
  111  H 17  S    0.000318  -0.000688  -0.000192  -0.000124  -0.001377
  112  H 18  S   -0.000070  -0.000041  -0.000088  -0.001051  -0.000328
  113  H 18  S   -0.000637   0.002597  -0.000742   0.001502   0.001968
  114  H 19  S   -0.000149   0.000728  -0.000641  -0.000086  -0.001693
  115  H 19  S   -0.000248  -0.000284  -0.001432  -0.001266   0.000021
  116  H 20  S   -0.000265  -0.000109  -0.000105  -0.000305  -0.001006
  117  H 20  S   -0.000272  -0.001375   0.002501   0.001746   0.000667
  118  H 21  S   -0.000539  -0.000148  -0.000353  -0.001743   0.000052
  119  H 21  S    0.000284  -0.000332  -0.000108  -0.000091   0.000073
  120  H 22  S   -0.000073   0.000461  -0.000041  -0.000125   0.000020
  121  H 22  S    0.000077  -0.000360  -0.000162  -0.001124  -0.000122
  122  H 23  S   -0.000129  -0.000207   0.000084  -0.000261  -0.000047
  123  H 23  S   -0.000490  -0.000585   0.000678   0.001011  -0.000213
  124  H 24  S    0.000216   0.000004  -0.000192   0.000392   0.000055
  125  H 24  S   -0.000415  -0.000531   0.000992  -0.001492  -0.000291
  126  H 25  S    0.000061  -0.000452  -0.000084  -0.000109  -0.000012
  127  H 25  S   -0.000445  -0.000127   0.000291  -0.001518  -0.000008
  128  H 26  S    0.000190  -0.000352  -0.000007   0.000187   0.000089
  129  H 26  S    0.000107  -0.000758  -0.000146  -0.001409  -0.000504
  130  H 27  S   -0.000026  -0.000076  -0.000107  -0.000285  -0.000043
  131  H 27  S   -0.000189   0.001130   0.000013   0.001188  -0.000233
  132  H 28  S    0.002958  -0.000185  -0.000489   0.000750   0.000475
  133  H 28  S    0.005358   0.002337   0.000096   0.001140  -0.000860
  134  H 29  S    0.000159  -0.000624   0.000007   0.000143  -0.001095
  135  H 29  S    0.000493  -0.000158  -0.001056  -0.000043  -0.000043
  136  H 30  S    0.000041  -0.000061  -0.000296   0.000146  -0.001117
  137  H 30  S   -0.000057   0.001054   0.001201  -0.000056  -0.000158
  138  H 31  S    0.000083  -0.000490  -0.000143  -0.000018  -0.001520
  139  H 31  S   -0.000418  -0.000070  -0.001332   0.000261  -0.000230

                      6          7          8          9         10
                  -11.3147   -11.3073   -11.3006   -11.2893   -11.2861
                     A          A          A          A          A   
    1  C  1  S   -0.001310   0.007746   0.003095   0.000095   0.001221
    2  C  1  S    0.000243  -0.000225  -0.001578   0.000028  -0.001197
    3  C  1  X   -0.000002  -0.001024   0.000108  -0.000010   0.000061
    4  C  1  Y    0.000047  -0.000554   0.000546   0.000007   0.000004
    5  C  1  Z   -0.000128  -0.000429  -0.000015   0.000069  -0.000026
    6  C  1  S   -0.002230   0.000009   0.017566  -0.000223   0.015745
    7  C  1  X   -0.001570   0.004433   0.008087  -0.000191  -0.011872
    8  C  1  Y   -0.001013  -0.001400   0.011947   0.000289   0.000584
    9  C  1  Z    0.001607   0.001265   0.001862  -0.000326  -0.002140
   10  C  2  S    0.001440  -0.000911   0.003427   0.000323   0.001965
   11  C  2  S   -0.000766   0.001057  -0.001866  -0.000281  -0.000868
   12  C  2  X   -0.000425  -0.000108   0.000099  -0.000067   0.001016
   13  C  2  Y   -0.000156   0.000250  -0.001371  -0.000039  -0.000364
   14  C  2  Z    0.000190  -0.000186  -0.000180  -0.000050   0.000207
   15  C  2  S    0.003507  -0.005078   0.005764   0.001355   0.000087
   16  C  2  X    0.002527  -0.001915   0.001280   0.000895  -0.004731
   17  C  2  Y    0.002062  -0.003489   0.004450   0.000099   0.001311
   18  C  2  Z   -0.000955  -0.001994   0.000675   0.000566  -0.001997
   19  C  3  S    0.000831   0.001402  -0.000320   0.000139   0.000405
   20  C  3  S   -0.000574  -0.002465   0.001375   0.000033  -0.001273
   21  C  3  X   -0.000592  -0.000004  -0.000067  -0.000450   0.000362
   22  C  3  Y   -0.000239  -0.001423   0.000027  -0.000104  -0.000086
   23  C  3  Z   -0.000380  -0.000672   0.000348   0.000231  -0.000069
   24  C  3  S   -0.000448   0.007483  -0.006532  -0.000977   0.006297
   25  C  3  X    0.000705  -0.000690   0.002294   0.001190  -0.003516
   26  C  3  Y   -0.000392   0.004899  -0.003567   0.000352   0.001292
   27  C  3  Z    0.002497   0.003551  -0.001467   0.000029   0.000624
   28  C  4  S    0.001933   0.001898   0.003892   0.002510  -0.000000
   29  C  4  S   -0.002228  -0.001550  -0.000823  -0.000506   0.000318
   30  C  4  X    0.000298  -0.000124   0.001084  -0.000793   0.000081
   31  C  4  Y    0.000104   0.000364  -0.000649   0.000680   0.000023
   32  C  4  Z    0.000227   0.000238   0.000085   0.000429   0.000046
   33  C  4  S    0.023502   0.016920   0.001804  -0.000778  -0.002473
   34  C  4  X    0.016483  -0.007459  -0.005168   0.002918   0.001285
   35  C  4  Y   -0.001754   0.012056  -0.000199  -0.002009   0.000237
   36  C  4  Z    0.001402   0.005103  -0.001216  -0.002820  -0.000996
   37  C  5  S   -0.017956   0.987731   0.017638   0.005086   0.003988
   38  C  5  S   -0.002671   0.105675  -0.000626  -0.000519  -0.000698
   39  C  5  X   -0.000617  -0.000331  -0.000383  -0.000262   0.000299
   40  C  5  Y    0.000251  -0.000725   0.000174   0.000091   0.000035
   41  C  5  Z   -0.000255  -0.000349  -0.000024   0.000003  -0.000038
   42  C  5  S    0.002593  -0.095910   0.020536   0.003848   0.005411
   43  C  5  X    0.001573   0.004649  -0.013566   0.002839  -0.003099
   44  C  5  Y   -0.000698   0.005035   0.000465  -0.002033  -0.001042
   45  C  5  Z    0.001763   0.006025  -0.003212  -0.000710  -0.000569
   46  C  6  S   -0.006362  -0.018731   0.987782   0.001702   0.011013
   47  C  6  S   -0.001682  -0.004622   0.105211   0.000011   0.000057
   48  C  6  X   -0.000411   0.000442   0.000352  -0.000144   0.001022
   49  C  6  Y    0.000094   0.000207  -0.000729   0.000003   0.000172
   50  C  6  Z    0.000158   0.000191  -0.000143  -0.000049   0.000389
   51  C  6  S    0.004451   0.024880  -0.093530   0.000697  -0.000175
   52  C  6  X    0.002058   0.013859  -0.004145   0.000899  -0.004366
   53  C  6  Y   -0.001800  -0.002229   0.007563   0.000211  -0.000033
   54  C  6  Z   -0.001348   0.002655  -0.001522   0.000618  -0.002193
   55  C  7  S    0.988353   0.017752   0.006389   0.001878   0.000597
   56  C  7  S    0.108139   0.001109  -0.000284  -0.001002  -0.000124
   57  C  7  X   -0.000138   0.000590   0.000262   0.000023   0.000146
   58  C  7  Y    0.000027  -0.000472  -0.000342  -0.000101   0.000010
   59  C  7  Z   -0.000628  -0.000224  -0.000103  -0.000099  -0.000115
   60  C  7  S   -0.106406  -0.000469   0.003191   0.014183   0.000113
   61  C  7  X    0.000687  -0.001985  -0.003419   0.005246  -0.001057
   62  C  7  Y   -0.001384   0.001516   0.002181  -0.010056  -0.000100
   63  C  7  Z    0.007826   0.000795   0.000298  -0.003857   0.000955
   64  C  8  S   -0.002473  -0.005406  -0.001918   0.987399   0.002716
   65  C  8  S   -0.002638  -0.001593  -0.000436   0.101899   0.000183
   66  C  8  X   -0.000505   0.000316   0.000017  -0.000245   0.000035
   67  C  8  Y    0.000860  -0.000149   0.000006   0.000185   0.000003
   68  C  8  Z    0.000450   0.000022  -0.000039   0.000012   0.000007
   69  C  8  S    0.024479   0.003984   0.001774  -0.080126   0.000345
   70  C  8  X   -0.006689  -0.002266  -0.000197   0.002038  -0.000126
   71  C  8  Y    0.010230   0.001384   0.000569  -0.003504   0.000427
   72  C  8  Z    0.004956   0.000323   0.000816  -0.001915  -0.000023
   73  C  9  S   -0.001735  -0.000291  -0.000742  -0.014759  -0.000349
   74  C  9  S   -0.002559   0.000016  -0.000123  -0.003387  -0.000080
   75  C  9  X   -0.000550  -0.000098   0.000326  -0.000230   0.000005
   76  C  9  Y   -0.000922  -0.000105   0.000142   0.001027  -0.000000
   77  C  9  Z    0.000059  -0.000311   0.000008   0.000484  -0.000006
   78  C  9  S    0.024154   0.000838  -0.001080   0.005508   0.000405
   79  C  9  X   -0.006831   0.001395  -0.000262   0.000592   0.000062
   80  C  9  Y   -0.011219   0.000649  -0.000354  -0.003209  -0.000355
   81  C  9  Z    0.000390   0.001348  -0.000445  -0.001954  -0.000160
   82  O 10  S    0.000048   0.000086  -0.000037   0.000007   0.000029
   83  O 10  S    0.000380   0.000709  -0.000243   0.000141   0.000205
   84  O 10  X   -0.000030   0.000020  -0.000005   0.000235  -0.000020
   85  O 10  Y    0.000090   0.000216  -0.000011   0.000038   0.000017
   86  O 10  Z    0.000033  -0.000043   0.000027  -0.000068  -0.000008
   87  O 10  S   -0.001589  -0.002816   0.001299  -0.000054  -0.001045
   88  O 10  X   -0.000112   0.000065  -0.000231  -0.000824   0.000341
   89  O 10  Y   -0.000651  -0.001662   0.000564  -0.000136  -0.000300
   90  O 10  Z    0.000367   0.000958  -0.000529   0.000150   0.000444
   91  C 11  S   -0.000499  -0.004111  -0.011304  -0.002789   0.987463
   92  C 11  S   -0.000219  -0.001424  -0.002432  -0.000369   0.101936
   93  C 11  X   -0.000053  -0.000192  -0.000582  -0.000044   0.000435
   94  C 11  Y   -0.000010  -0.000277  -0.000483  -0.000003  -0.000043
   95  C 11  Z    0.000073  -0.000037  -0.000023   0.000004  -0.000089
   96  C 11  S    0.000371   0.004624   0.004250   0.000262  -0.080513
   97  C 11  X    0.000538   0.002979   0.001469   0.000088  -0.004894
   98  C 11  Y    0.000278   0.001609   0.000360  -0.000011   0.000362
   99  C 11  Z   -0.000785   0.000768  -0.000332  -0.000017  -0.000942
  100  H 12  S   -0.000071  -0.000310  -0.001432   0.000094  -0.001146
  101  H 12  S   -0.000511  -0.001162   0.000610   0.000119   0.000842
  102  H 13  S    0.000092  -0.000098  -0.000141  -0.000096  -0.000139
  103  H 13  S    0.001022  -0.000964   0.002631   0.000228  -0.000995
  104  H 14  S   -0.000580   0.000560  -0.000607  -0.000054  -0.000450
  105  H 14  S   -0.000621  -0.000416  -0.001274   0.000125  -0.001400
  106  H 15  S    0.000489   0.000002  -0.000093  -0.000174  -0.000157
  107  H 15  S   -0.001103   0.002540  -0.000837  -0.000088   0.000711
  108  H 16  S   -0.001717  -0.001500  -0.000350  -0.000215  -0.000018
  109  H 16  S    0.000130   0.000843  -0.001147  -0.001509  -0.000020
  110  H 17  S   -0.000224   0.001277  -0.001410  -0.000390  -0.000430
  111  H 17  S   -0.002026   0.014450   0.000860  -0.000097  -0.000128
  112  H 18  S    0.000173   0.000848  -0.000895  -0.000272  -0.000171
  113  H 18  S   -0.001457   0.014522   0.000535  -0.000259   0.000639
  114  H 19  S   -0.000492  -0.001557   0.001248  -0.000037  -0.000463
  115  H 19  S   -0.000494   0.000235   0.014475   0.000304  -0.001186
  116  H 20  S    0.000027  -0.000962   0.000980  -0.000123  -0.000150
  117  H 20  S    0.000917   0.000506   0.013236   0.000171  -0.000896
  118  H 21  S    0.001738  -0.000042  -0.000373  -0.001138  -0.000184
  119  H 21  S    0.014375  -0.000759   0.000105   0.000833  -0.000362
  120  H 22  S   -0.001567  -0.000432  -0.000080   0.000354  -0.000023
  121  H 22  S   -0.000017  -0.000116   0.000319   0.014216  -0.000110
  122  H 23  S   -0.001129  -0.000122  -0.000134   0.000365  -0.000029
  123  H 23  S   -0.000178   0.000822  -0.000039   0.013959   0.000091
  124  H 24  S   -0.001314  -0.000222  -0.000020   0.000181  -0.000039
  125  H 24  S    0.000313  -0.000604  -0.000250   0.013947   0.000258
  126  H 25  S   -0.001548   0.000323  -0.000021  -0.000566  -0.000005
  127  H 25  S   -0.000019   0.000109  -0.000012  -0.001527  -0.000115
  128  H 26  S   -0.001280   0.000336  -0.000134  -0.000051  -0.000013
  129  H 26  S    0.000417  -0.002315   0.000936   0.001926   0.000211
  130  H 27  S   -0.001140  -0.000244   0.000058  -0.000396  -0.000033
  131  H 27  S   -0.000191  -0.000756   0.000522  -0.001673  -0.000045
  132  H 28  S   -0.000014  -0.000115   0.000071  -0.000002   0.000002
  133  H 28  S   -0.000252  -0.000198  -0.000115  -0.000315   0.000051
  134  H 29  S    0.000014  -0.000028  -0.000316  -0.000017   0.000330
  135  H 29  S    0.000208   0.000902   0.001101  -0.000004   0.013779
  136  H 30  S    0.000006  -0.000529  -0.000026  -0.000007   0.000325
  137  H 30  S    0.000206  -0.000060  -0.001153  -0.000022   0.013668
  138  H 31  S   -0.000146  -0.000403  -0.000173  -0.000025   0.000420
  139  H 31  S   -0.000389  -0.000054  -0.001469  -0.000047   0.014304

                     11         12         13         14         15
                  -11.2746    -1.7940    -1.3146    -1.2370    -1.1994
                     A          A          A          A          A   
    1  C  1  S   -0.000000  -0.001558  -0.072170   0.106207   0.070721
    2  C  1  S    0.000009   0.001000   0.068441  -0.096947  -0.062995
    3  C  1  X    0.000038  -0.000052   0.026365  -0.005000   0.008012
    4  C  1  Y   -0.000053  -0.001467  -0.008241   0.007703  -0.043656
    5  C  1  Z    0.000018   0.000369  -0.014017   0.016755  -0.004700
    6  C  1  S    0.000139  -0.002369   0.169019  -0.276353  -0.198060
    7  C  1  X   -0.000342   0.008284  -0.003536   0.001783  -0.010528
    8  C  1  Y   -0.000023   0.011864   0.004698  -0.002744   0.004605
    9  C  1  Z   -0.000206  -0.001373  -0.007913   0.015385   0.012705
   10  C  2  S    0.000219  -0.007938  -0.099398   0.084498  -0.051247
   11  C  2  S   -0.000127   0.006750   0.101270  -0.078623   0.047194
   12  C  2  X   -0.000185   0.009632   0.032808   0.024710   0.061792
   13  C  2  Y    0.000025  -0.002307   0.015956  -0.021055  -0.038799
   14  C  2  Z   -0.000001   0.005453   0.020333  -0.017483  -0.002948
   15  C  2  S    0.000642   0.013440   0.216588  -0.230930   0.140694
   16  C  2  X    0.000816  -0.008193  -0.001529  -0.022805  -0.008421
   17  C  2  Y   -0.000499  -0.006091  -0.001429   0.007804   0.003895
   18  C  2  Z    0.000018   0.020327   0.006341  -0.012700  -0.000639
   19  C  3  S    0.000419  -0.050652  -0.120417  -0.018989  -0.116766
   20  C  3  S   -0.001240   0.059676   0.119455   0.018534   0.104362
   21  C  3  X   -0.000249   0.001730  -0.016714   0.073959  -0.019496
   22  C  3  Y   -0.000150  -0.022481   0.038171   0.023401  -0.029794
   23  C  3  Z   -0.000103   0.053927  -0.010119   0.012063  -0.004911
   24  C  3  S    0.005488   0.035968   0.300795   0.059138   0.370704
   25  C  3  X    0.002899  -0.000303  -0.013460   0.002896  -0.016723
   26  C  3  Y    0.002672   0.010239   0.003419  -0.003570  -0.008788
   27  C  3  Z    0.001019  -0.048001  -0.014508  -0.009049  -0.013614
   28  C  4  S    0.002236  -0.007251  -0.098120  -0.088975   0.021702
   29  C  4  S   -0.000818   0.004556   0.094944   0.081885  -0.019020
   30  C  4  X   -0.000945  -0.004122  -0.025361   0.036993  -0.025427
   31  C  4  Y   -0.000857  -0.009455  -0.023644  -0.010953  -0.061844
   32  C  4  Z    0.000036   0.001786   0.008076   0.009602  -0.016620
   33  C  4  S    0.000318   0.019419   0.230106   0.232521  -0.055400
   34  C  4  X    0.003744   0.004142   0.003676  -0.012701   0.015757
   35  C  4  Y    0.004728   0.005485  -0.003572  -0.008374   0.006617
   36  C  4  Z   -0.000651   0.025473   0.007840   0.014261  -0.008015
   37  C  5  S    0.000418  -0.001432  -0.060931  -0.019480   0.082852
   38  C  5  S    0.000185   0.000936   0.062788   0.019630  -0.079455
   39  C  5  X   -0.000106   0.000347  -0.003410   0.037599   0.022216
   40  C  5  Y   -0.000110  -0.000335  -0.027152  -0.015927  -0.003413
   41  C  5  Z    0.000145   0.000274  -0.017269  -0.006345   0.008836
   42  C  5  S   -0.000884  -0.005511   0.124230   0.042604  -0.203994
   43  C  5  X   -0.001144  -0.011204  -0.004657  -0.010852  -0.003815
   44  C  5  Y    0.000381   0.000219   0.003328   0.012419   0.003508
   45  C  5  Z    0.000282  -0.001371  -0.002757  -0.000288   0.006472
   46  C  6  S    0.000741  -0.000088  -0.053113   0.048959   0.097661
   47  C  6  S   -0.000087   0.002391   0.055480  -0.047857  -0.094606
   48  C  6  X   -0.000102   0.000180   0.010040   0.025326  -0.009537
   49  C  6  Y    0.000057  -0.000109  -0.026266   0.029253   0.017703
   50  C  6  Z    0.000014   0.000324   0.000513   0.002350  -0.007345
   51  C  6  S   -0.000073  -0.015559   0.101706  -0.115237  -0.238486
   52  C  6  X    0.000245  -0.000588   0.003676  -0.016277   0.000413
   53  C  6  Y   -0.000430   0.004229  -0.001963  -0.003535  -0.000008
   54  C  6  Z   -0.000291  -0.002954   0.003444  -0.006956  -0.006441
   55  C  7  S    0.001109  -0.001456  -0.045640  -0.107616   0.059396
   56  C  7  S   -0.001011   0.001361   0.046013   0.097749  -0.053711
   57  C  7  X    0.000128  -0.000816  -0.023820  -0.012769  -0.007464
   58  C  7  Y    0.000107   0.000298  -0.002164  -0.001460  -0.012297
   59  C  7  Z   -0.000118   0.000906  -0.007334  -0.014086   0.003660
   60  C  7  S    0.013621  -0.007260   0.094772   0.277771  -0.161554
   61  C  7  X    0.005774   0.004054   0.019072  -0.001490   0.001341
   62  C  7  Y    0.009874  -0.010072   0.003507  -0.001307   0.002982
   63  C  7  Z    0.000746  -0.006257  -0.003526  -0.012768   0.012314
   64  C  8  S    0.014318  -0.000285  -0.019237  -0.060759   0.033082
   65  C  8  S   -0.000421   0.001259   0.021486   0.063205  -0.035634
   66  C  8  X   -0.000296   0.000281  -0.010412  -0.019403   0.005690
   67  C  8  Y   -0.001124  -0.000370   0.008971   0.024679  -0.016097
   68  C  8  Z    0.000061   0.000084   0.004819   0.013303  -0.007279
   69  C  8  S    0.003381  -0.009469   0.032337   0.127483  -0.066874
   70  C  8  X    0.000751  -0.000627  -0.002866  -0.001487  -0.008176
   71  C  8  Y    0.003752   0.000456  -0.006536  -0.006375   0.004914
   72  C  8  Z   -0.000766  -0.001962  -0.001996   0.001158  -0.001571
   73  C  9  S    0.987414  -0.000180  -0.015512  -0.053094   0.042500
   74  C  9  S    0.101846  -0.000321   0.019364   0.056087  -0.041864
   75  C  9  X   -0.000180  -0.000147  -0.008966  -0.017846   0.011070
   76  C  9  Y   -0.000311  -0.000269  -0.009488  -0.027459   0.017052
   77  C  9  Z   -0.000128  -0.000117   0.000328   0.001239  -0.001914
   78  C  9  S   -0.079850   0.004687   0.016206   0.107552  -0.102200
   79  C  9  X    0.001973  -0.002498   0.003990   0.001492   0.005884
   80  C  9  Y    0.003568  -0.001432   0.007019   0.004968   0.000557
   81  C  9  Z   -0.000259   0.002704  -0.000017   0.002959  -0.001521
   82  O 10  S    0.000028  -0.238608   0.038878   0.000225   0.028511
   83  O 10  S    0.000181   0.238825  -0.038343   0.000078  -0.027605
   84  O 10  X   -0.000041  -0.041409   0.010476   0.048659   0.015140
   85  O 10  Y   -0.000044  -0.038702   0.087893   0.033315   0.096150
   86  O 10  Z   -0.000009  -0.055474  -0.079961  -0.024702  -0.135350
   87  O 10  S   -0.001053   0.763157  -0.158661  -0.001834  -0.128736
   88  O 10  X    0.000012  -0.052225   0.012065   0.045139   0.016264
   89  O 10  Y   -0.000154  -0.037902   0.070093   0.028341   0.078694
   90  O 10  Z    0.000441  -0.092586  -0.055131  -0.020929  -0.110188
   91  C 11  S    0.000290  -0.000168  -0.024001   0.056797   0.047715
   92  C 11  S    0.000012  -0.000182   0.029004  -0.058801  -0.047438
   93  C 11  X   -0.000029   0.000451   0.019530  -0.032580  -0.022494
   94  C 11  Y    0.000018  -0.000047  -0.002540   0.003946  -0.004330
   95  C 11  Z    0.000008  -0.000053   0.002833  -0.007095  -0.007666
   96  C 11  S   -0.000191   0.004651   0.031388  -0.117329  -0.114462
   97  C 11  X   -0.000052   0.000819  -0.012295   0.003495  -0.001872
   98  C 11  Y   -0.000086  -0.002828   0.000369   0.001776   0.002703
   99  C 11  Z   -0.000112   0.002404   0.001247   0.000219  -0.001877
  100  H 12  S    0.000029   0.001134   0.031665  -0.048953  -0.032872
  101  H 12  S    0.000056   0.004835  -0.005440   0.001735  -0.003487
  102  H 13  S   -0.000099  -0.000446   0.039993  -0.040712   0.028708
  103  H 13  S    0.000175   0.000263  -0.011026  -0.001795   0.003780
  104  H 14  S   -0.000078   0.003939   0.044866  -0.039405   0.023615
  105  H 14  S    0.000154   0.001789  -0.003630  -0.000630  -0.006355
  106  H 15  S   -0.000291   0.014415   0.056360   0.015036   0.071906
  107  H 15  S   -0.000168  -0.009261  -0.014377   0.003877  -0.000368
  108  H 16  S   -0.000397   0.003698   0.043432   0.040958  -0.011737
  109  H 16  S   -0.001263   0.001534  -0.007607  -0.002263  -0.007239
  110  H 17  S    0.000271   0.000600   0.027368   0.010293  -0.039360
  111  H 17  S   -0.000386   0.003750  -0.003138   0.001187  -0.003062
  112  H 18  S    0.000163   0.000871   0.022489   0.011078  -0.041179
  113  H 18  S   -0.000738   0.002490  -0.010394   0.002560  -0.001342
  114  H 19  S   -0.000072   0.000276   0.023127  -0.022802  -0.046383
  115  H 19  S    0.000019   0.000206   0.000329   0.000241   0.002409
  116  H 20  S    0.000035   0.000882   0.018951  -0.020812  -0.045488
  117  H 20  S    0.000289   0.000371  -0.007762   0.001039   0.003305
  118  H 21  S   -0.001194   0.001197   0.021172   0.049009  -0.027846
  119  H 21  S    0.000831   0.005090  -0.004806  -0.004219  -0.003429
  120  H 22  S   -0.000566   0.000366   0.008560   0.028482  -0.016687
  121  H 22  S   -0.001275  -0.000141   0.000955   0.000852  -0.000361
  122  H 23  S   -0.000418   0.000679   0.007368   0.026106  -0.016548
  123  H 23  S   -0.001235   0.001304  -0.001684  -0.002237   0.002397
  124  H 24  S   -0.000002  -0.000423   0.009473   0.028320  -0.012889
  125  H 24  S    0.002284   0.007346   0.000269   0.000273   0.003148
  126  H 25  S    0.000373  -0.000014   0.007439   0.024703  -0.019585
  127  H 25  S    0.014212   0.001169   0.000880   0.001109  -0.000121
  128  H 26  S    0.000096  -0.000485   0.006986   0.022885  -0.019698
  129  H 26  S    0.014358  -0.000561   0.002175  -0.002658   0.000593
  130  H 27  S    0.000342  -0.000013   0.006312   0.022798  -0.018981
  131  H 27  S    0.013954  -0.000185  -0.003302  -0.002664  -0.001246
  132  H 28  S    0.000099   0.092301  -0.057470  -0.026905  -0.065401
  133  H 28  S    0.000128  -0.009141  -0.019727  -0.010459  -0.030140
  134  H 29  S   -0.000003  -0.000190   0.010391  -0.025003  -0.019531
  135  H 29  S   -0.000034  -0.001949  -0.002356   0.001792   0.004763
  136  H 30  S    0.000014  -0.000029   0.009470  -0.023927  -0.023137
  137  H 30  S    0.000083  -0.000397  -0.004726   0.002460  -0.002805
  138  H 31  S   -0.000002   0.000018   0.011728  -0.026131  -0.022431
  139  H 31  S   -0.000033   0.001306   0.001402  -0.000535  -0.000406

                     16         17         18         19         20
                   -1.1608    -1.0966    -1.0612    -1.0525    -1.0335
                     A          A          A          A          A   
    1  C  1  S    0.049382   0.044632   0.001383  -0.006496  -0.008361
    2  C  1  S   -0.042731  -0.036719  -0.000395   0.005379   0.005655
    3  C  1  X    0.028221   0.077979   0.060224   0.044039   0.007377
    4  C  1  Y    0.040678  -0.037848   0.039256   0.020122  -0.040471
    5  C  1  Z    0.018767  -0.009048   0.013628   0.015114   0.001994
    6  C  1  S   -0.143515  -0.152378  -0.007308   0.023401   0.036875
    7  C  1  X    0.001567   0.000318   0.007013   0.014006   0.021636
    8  C  1  Y   -0.001189  -0.000959   0.008252   0.006094  -0.007983
    9  C  1  Z    0.008499  -0.000522   0.004665   0.003701  -0.005968
   10  C  2  S    0.067942  -0.098074   0.003433   0.003564  -0.018379
   11  C  2  S   -0.061564   0.082420  -0.002788  -0.003221   0.012529
   12  C  2  X    0.024494   0.026578   0.015738   0.005772  -0.020781
   13  C  2  Y    0.002830  -0.026164  -0.001189  -0.000415   0.017357
   14  C  2  Z   -0.002489  -0.016058   0.005131   0.023986   0.022497
   15  C  2  S   -0.208201   0.345953  -0.013475  -0.021920   0.072277
   16  C  2  X   -0.006150   0.019399   0.003958  -0.004112  -0.000714
   17  C  2  Y    0.010814   0.000135   0.001284  -0.005323  -0.012457
   18  C  2  Z   -0.009182   0.011105  -0.001534   0.015927   0.031784
   19  C  3  S   -0.013701   0.022176  -0.012757  -0.003688   0.042971
   20  C  3  S    0.011482  -0.016922   0.005901  -0.000101  -0.036355
   21  C  3  X    0.040706  -0.109975  -0.006294  -0.039333  -0.057053
   22  C  3  Y    0.034384   0.012224  -0.053565  -0.044066   0.101166
   23  C  3  Z    0.024505  -0.080282   0.007328   0.090905   0.075173
   24  C  3  S    0.054864  -0.101997   0.074938   0.029146  -0.167137
   25  C  3  X   -0.005202  -0.055631   0.004086  -0.029460  -0.030264
   26  C  3  Y    0.019626  -0.013833  -0.018541   0.004706   0.103543
   27  C  3  Z    0.003821  -0.023537   0.007907   0.036262   0.047646
   28  C  4  S   -0.052610  -0.004181   0.073444   0.086556  -0.020918
   29  C  4  S    0.044631   0.002738  -0.059985  -0.069122   0.018884
   30  C  4  X   -0.068038  -0.009283  -0.010213  -0.000661  -0.007271
   31  C  4  Y    0.024850   0.049998  -0.021364   0.005878   0.006862
   32  C  4  Z    0.016692  -0.009230   0.001329   0.031549   0.021327
   33  C  4  S    0.160433   0.020518  -0.253576  -0.309178   0.054082
   34  C  4  X    0.007473   0.001051   0.004432   0.010230   0.008810
   35  C  4  Y   -0.002613  -0.001269   0.001684   0.008350   0.004085
   36  C  4  Z    0.005799  -0.006463  -0.006532   0.010208   0.017635
   37  C  5  S   -0.111151  -0.042218  -0.005453   0.001934  -0.001540
   38  C  5  S    0.101225   0.035978   0.004898  -0.005058  -0.001105
[...]
             73  C  9  S      1.98830     1.97642
             74  C  9  S      0.35128     0.41460
             75  C  9  X      0.54007     0.51371
             76  C  9  Y      0.52554     0.50479
             77  C  9  Z      0.54547     0.51307
             78  C  9  S      1.11985     0.58092
             79  C  9  X      0.52295     0.58936
             80  C  9  Y      0.39976     0.54426
             81  C  9  Z      0.56466     0.61030
             82  O 10  S      1.98704     1.98181
             83  O 10  S      0.44996     0.60420
             84  O 10  X      0.60672     0.60154
             85  O 10  Y      0.66048     0.64404
             86  O 10  Z      0.76301     0.76065
             87  O 10  S      1.52193     1.03002
             88  O 10  X      0.63489     0.63598
             89  O 10  Y      0.71541     0.71040
             90  O 10  Z      0.86833     0.86676
             91  C 11  S      1.98832     1.97639
             92  C 11  S      0.35171     0.41410
             93  C 11  X      0.51801     0.49983
             94  C 11  Y      0.54952     0.51846
             95  C 11  Z      0.54575     0.51457
             96  C 11  S      1.12150     0.58058
             97  C 11  X      0.34650     0.52520
             98  C 11  Y      0.57767     0.61062
             99  C 11  Z      0.55670     0.60744
            100  H 12  S      0.46730     0.48749
            101  H 12  S      0.32280     0.43667
            102  H 13  S      0.46201     0.47317
            103  H 13  S      0.29957     0.42885
            104  H 14  S      0.45034     0.45689
            105  H 14  S      0.25546     0.40324
            106  H 15  S      0.44790     0.46058
            107  H 15  S      0.19310     0.38144
            108  H 16  S      0.45639     0.47314
            109  H 16  S      0.28332     0.41611
            110  H 17  S      0.46442     0.47576
            111  H 17  S      0.31864     0.43592
            112  H 18  S      0.46292     0.47081
            113  H 18  S      0.26862     0.41253
            114  H 19  S      0.46184     0.47283
            115  H 19  S      0.31451     0.43383
            116  H 20  S      0.46165     0.47050
            117  H 20  S      0.28584     0.41993
            118  H 21  S      0.46654     0.48542
            119  H 21  S      0.30347     0.42797
            120  H 22  S      0.46227     0.46458
            121  H 22  S      0.32096     0.43824
            122  H 23  S      0.46017     0.46195
            123  H 23  S      0.28911     0.42149
            124  H 24  S      0.47536     0.47910
            125  H 24  S      0.36367     0.45692
            126  H 25  S      0.46316     0.46535
            127  H 25  S      0.32398     0.43863
            128  H 26  S      0.46765     0.46922
            129  H 26  S      0.31110     0.43314
            130  H 27  S      0.46288     0.46466
            131  H 27  S      0.30277     0.42761
            132  H 28  S      0.39898     0.41020
            133  H 28  S      0.08819     0.24491
            134  H 29  S      0.46462     0.46673
            135  H 29  S      0.31871     0.43592
            136  H 30  S      0.46108     0.46184
            137  H 30  S      0.29747     0.42521
            138  H 31  S      0.46268     0.46448
            139  H 31  S      0.31772     0.43544

          ----- MULLIKEN ATOMIC OVERLAP POPULATIONS -----
          (OFF-DIAGONAL ELEMENTS NEED TO BE MULTIPLIED BY 2)

             1           2           3           4           5

    1    5.6826404
    2    0.2058377   5.6336225
    3   -0.0825679   0.1605832   5.7793206
    4    0.0020536  -0.0681821   0.1673178   5.7565861
    5   -0.0824891   0.0066908  -0.0981174   0.2331081   5.4986863
    6    0.2310542  -0.1003726   0.0094057  -0.0798726   0.2403813
    7   -0.0001280   0.0024734  -0.0746495   0.2247898  -0.0619947
    8   -0.0000037   0.0000880  -0.0035543  -0.0784596   0.0028751
    9   -0.0000022  -0.0000353   0.0032087  -0.0712502  -0.0023901
   10   -0.0001823  -0.0315110   0.0399006  -0.0456173   0.0026047
   11    0.2562689  -0.0727115   0.0034309  -0.0001482   0.0032394
   12    0.3935956  -0.0546940  -0.0012251   0.0001375  -0.0002450
   13   -0.0406705   0.3852142  -0.0523276   0.0032047  -0.0003126
   14   -0.0388056   0.3745772  -0.0361606   0.0002120   0.0002088
   15    0.0024581  -0.0326679   0.3623407  -0.0364835   0.0024375
   16    0.0001920   0.0000866  -0.0490244   0.3855481  -0.0376838
   17   -0.0014715   0.0005453  -0.0027241  -0.0540518   0.3849677
   18    0.0031101  -0.0002108   0.0030938  -0.0362755   0.3942148
   19   -0.0506330  -0.0020716   0.0005073  -0.0016080  -0.0446747
   20   -0.0396512   0.0036212  -0.0002037   0.0031681  -0.0367871
   21    0.0000057  -0.0000409  -0.0029450  -0.0536933  -0.0003019
   22    0.0000002  -0.0000327  -0.0002340  -0.0012163  -0.0000131
   23    0.0000000  -0.0000001   0.0000233   0.0033494  -0.0000404
   24   -0.0000021   0.0001411  -0.0015335  -0.0023522  -0.0000464
   25    0.0000002  -0.0000008  -0.0000362  -0.0023586   0.0001326
   26   -0.0000005   0.0000000  -0.0000341  -0.0015440   0.0000088
   27    0.0000000   0.0000002  -0.0000529   0.0033583   0.0000475
   28    0.0001999   0.0009998  -0.0317467   0.0041351  -0.0002921
   29   -0.0444620  -0.0015636  -0.0000265   0.0000021  -0.0000681
   30   -0.0405113   0.0033477  -0.0000704   0.0000035  -0.0000021
   31   -0.0481858  -0.0020224  -0.0000464   0.0000044  -0.0000294

             6           7           8           9          10

    6    5.4940840
    7    0.0029272   5.6136822
    8   -0.0000530   0.2460659   5.3951335
    9    0.0000541   0.2565533  -0.0843340   5.3559317
   10   -0.0003040   0.0030714  -0.0005625   0.0000172   8.0127871
   11   -0.0701243   0.0000011   0.0000000   0.0000000   0.0000112
   12   -0.0485516  -0.0000147   0.0000004   0.0000002   0.0017406
   13    0.0035324  -0.0000568   0.0000010   0.0000003  -0.0000013
   14   -0.0008170  -0.0000033   0.0000021  -0.0000007   0.0011597
   15   -0.0003206  -0.0014587   0.0016395   0.0000192  -0.0216299
   16   -0.0007965  -0.0374492  -0.0002804  -0.0006291   0.0012901
   17   -0.0453328   0.0000787  -0.0000274   0.0001039   0.0020266
   18   -0.0364651  -0.0019927   0.0000163   0.0000522   0.0000038
   19    0.3847771  -0.0000378   0.0000005   0.0000023   0.0000021
   20    0.3947332  -0.0000400   0.0000002   0.0000002  -0.0000033
   21   -0.0000439   0.3940082  -0.0447037  -0.0379812   0.0026193
   22    0.0000000  -0.0466997   0.3747289  -0.0000947   0.0000141
   23    0.0000002  -0.0384395   0.3839409  -0.0019560  -0.0000020
   24   -0.0000001  -0.0452735   0.3729307   0.0035145   0.0008017
   25   -0.0000168  -0.0484338  -0.0005333   0.3762653  -0.0000001
   26    0.0000322  -0.0397768   0.0030654   0.3789621   0.0000002
   27    0.0000000  -0.0414291  -0.0021563   0.3818424  -0.0000000
   28    0.0000328  -0.0002590   0.0000390   0.0000007   0.2395420
   29    0.0032404  -0.0000000   0.0000000   0.0000000  -0.0000003
   30   -0.0011757  -0.0000000  -0.0000000   0.0000000  -0.0000001
   31   -0.0010668  -0.0000000   0.0000000   0.0000000  -0.0000000

            11          12          13          14          15

   11    5.3346093
   12   -0.0374975   0.5318617
   13   -0.0001404  -0.0014691   0.4782691
   14    0.0003442   0.0030345  -0.0167925   0.4146454
   15   -0.0000316  -0.0000273  -0.0016026  -0.0018101   0.3684099
   16   -0.0000184   0.0000339  -0.0000071   0.0011433  -0.0005120
   17   -0.0000395   0.0025309  -0.0000168   0.0000323  -0.0000224
   18   -0.0000428  -0.0000389   0.0000034  -0.0000146  -0.0000266
   19   -0.0001865   0.0034349  -0.0000488   0.0025298  -0.0000200
   20   -0.0005899  -0.0022347  -0.0000422  -0.0000474   0.0000031
   21   -0.0000000  -0.0000023   0.0000016  -0.0000010   0.0002248
   22   -0.0000000  -0.0000000   0.0000005   0.0000002   0.0005154
   23   -0.0000000  -0.0000000  -0.0000000  -0.0000000  -0.0000468
   24    0.0000000  -0.0000000  -0.0000010  -0.0000018   0.0008376
   25   -0.0000000  -0.0000000   0.0000000  -0.0000002  -0.0000006
   26    0.0000000   0.0000000  -0.0000000   0.0000000  -0.0000015
   27   -0.0000000  -0.0000000  -0.0000000   0.0000000  -0.0000007
   28   -0.0000212   0.0003646   0.0030811   0.0000131  -0.0012215
   29    0.3792803  -0.0017616   0.0018000  -0.0000331  -0.0000004
   30    0.3823119  -0.0018366  -0.0000258  -0.0000306   0.0000003
   31    0.3777336   0.0029682  -0.0000067   0.0024235   0.0000005

            16          17          18          19          20

   16    0.4665022
   17    0.0030894   0.5097793
   18   -0.0016759  -0.0199998   0.4294916
   19    0.0021062   0.0030094  -0.0018118   0.5001549
   20   -0.0000278  -0.0019447  -0.0014280  -0.0211125   0.4485074
   21    0.0031548   0.0024515   0.0000333   0.0000001   0.0000007
   22    0.0022009   0.0000008   0.0000002  -0.0000002   0.0000000
   23   -0.0000447   0.0000002  -0.0000003  -0.0000000  -0.0000000
   24    0.0000284   0.0000009  -0.0000011   0.0000000  -0.0000000
   25    0.0025742   0.0000115   0.0000973  -0.0000004   0.0000001
   26    0.0000067   0.0001022   0.0013738   0.0000013  -0.0000000
   27   -0.0000317  -0.0000142   0.0000258  -0.0000001  -0.0000000
   28   -0.0000668  -0.0000291   0.0000015   0.0000014  -0.0000008
   29    0.0000003   0.0000007   0.0000003  -0.0000291  -0.0000161
   30    0.0000002   0.0000007  -0.0000008  -0.0000189   0.0015964
   31   -0.0000009   0.0000003   0.0000005   0.0020702  -0.0000184

            21          22          23          24          25

   21    0.5078004
   22    0.0030442   0.4984422
   23   -0.0014159  -0.0213385   0.4471772
   24   -0.0018788  -0.0278210  -0.0239997   0.5637808
   25    0.0029140   0.0017729  -0.0000087  -0.0000451   0.5024276
   26   -0.0017040  -0.0000455   0.0000101  -0.0000535  -0.0243927
   27   -0.0015254   0.0000043   0.0020744   0.0000105  -0.0232220
   28   -0.0000098   0.0000007  -0.0000005  -0.0000101   0.0000000
   29    0.0000000   0.0000000  -0.0000000  -0.0000000   0.0000000
   30    0.0000000   0.0000000   0.0000000   0.0000000   0.0000000
   31   -0.0000000   0.0000000  -0.0000000  -0.0000000   0.0000000

            26          27          28          29          30

   26    0.4854176
   27   -0.0226758   0.4693957
   28   -0.0000000  -0.0000000   0.2724201
   29    0.0000000   0.0000000   0.0000000   0.4933164
   30   -0.0000000  -0.0000000   0.0000001  -0.0219328   0.4590494
   31    0.0000000  -0.0000000   0.0000005  -0.0244176  -0.0221595

            31

   31    0.4931541

          TOTAL MULLIKEN AND LOWDIN ATOMIC POPULATIONS
       ATOM         MULL.POP.    CHARGE          LOW.POP.     CHARGE
    1 C             6.307650   -0.307650         6.093512   -0.093512
    2 C             6.411712   -0.411712         6.169866   -0.169866
    3 C             6.091853   -0.091853         5.952414    0.047586
    4 C             6.253865   -0.253865         6.098317   -0.098317
    5 C             6.404115   -0.404115         6.161389   -0.161389
    6 C             6.378941   -0.378941         6.156330   -0.156330
    7 C             6.305514   -0.305514         6.092485   -0.092485
    8 C             6.565859   -0.565859         6.256955   -0.256955
    9 C             6.557855   -0.557855         6.247433   -0.247433
   10 O             8.207778   -0.207778         7.835391    0.164609
   11 C             6.555679   -0.555679         6.247188   -0.247188
   12 H             0.790105    0.209895         0.924159    0.075841
   13 H             0.761586    0.238414         0.902019    0.097981
   14 H             0.705808    0.294192         0.860128    0.139872
   15 H             0.641002    0.358998         0.842028    0.157972
   16 H             0.739709    0.260291         0.889250    0.110750
   17 H             0.783058    0.216942         0.911678    0.088322
   18 H             0.731534    0.268466         0.883335    0.116665
   19 H             0.776344    0.223656         0.906664    0.093336
   20 H             0.747483    0.252517         0.890433    0.109567
   21 H             0.770011    0.229989         0.913387    0.086613
   22 H             0.783230    0.216770         0.902826    0.097174
   23 H             0.749283    0.250717         0.883444    0.116556
   24 H             0.839026    0.160974         0.936023    0.063977
   25 H             0.787147    0.212853         0.903982    0.096018
   26 H             0.778752    0.221248         0.902361    0.097639
   27 H             0.765651    0.234349         0.892273    0.107727
   28 H             0.487175    0.512825         0.655108    0.344892
   29 H             0.783329    0.216671         0.902655    0.097345
   30 H             0.758545    0.241455         0.887048    0.112952
   31 H             0.780402    0.219598         0.899920    0.100080

          -------------------------------
          BOND ORDER AND VALENCE ANALYSIS     BOND ORDER THRESHOLD=0.050
          -------------------------------

                   BOND                       BOND                       BOND
  ATOM PAIR DIST  ORDER      ATOM PAIR DIST  ORDER      ATOM PAIR DIST  ORDER
    1   2  1.537  0.869        1   6  1.537  0.885        1  11  1.533  0.920
    1  12  1.100  0.915        2   3  1.537  0.840        2  13  1.101  0.908
    2  14  1.101  0.879        3   4  1.544  0.852        3  10  1.440  0.569
    3  15  1.099  0.818        4   5  1.545  0.891        4   7  1.554  0.877
    4  16  1.103  0.890        5   6  1.537  0.907        5  17  1.098  0.913
    5  18  1.094  0.906        6  19  1.102  0.913        6  20  1.098  0.915
    7   8  1.539  0.908        7   9  1.540  0.916        7  21  1.098  0.906
    8  22  1.099  0.919        8  23  1.096  0.915        8  24  1.094  0.935
    9  25  1.098  0.921        9  26  1.094  0.920        9  27  1.096  0.918
   10  28  0.966  0.701       11  29  1.097  0.923       11  30  1.096  0.916
   11  31  1.098  0.919

                       TOTAL       BONDED        FREE
      ATOM            VALENCE     VALENCE     VALENCE
    1 C                 3.506       3.506       0.000
    2 C                 3.453       3.449       0.004
    3 C                 3.035       3.029       0.006
    4 C                 3.409       3.409       0.000
    5 C                 3.544       3.544       0.000
    6 C                 3.539       3.539       0.000
    7 C                 3.526       3.526       0.000
    8 C                 3.634       3.634       0.000
    9 C                 3.629       3.629       0.000
   10 O                 2.207       1.355       0.852
   11 C                 3.630       3.630       0.000
   12 H                 0.906       0.906       0.000
   13 H                 0.903       0.903       0.000
   14 H                 0.881       0.881       0.000
   15 H                 0.835       0.829       0.006
   16 H                 0.891       0.891       0.000
   17 H                 0.909       0.909       0.000
   18 H                 0.894       0.894       0.000
   19 H                 0.907       0.907       0.000
   20 H                 0.900       0.900       0.000
   21 H                 0.898       0.898       0.000
   22 H                 0.912       0.912       0.000
   23 H                 0.903       0.903       0.000
   24 H                 0.928       0.928       0.000
   25 H                 0.914       0.914       0.000
   26 H                 0.913       0.913       0.000
   27 H                 0.908       0.908       0.000
   28 H                 0.716       0.713       0.003
   29 H                 0.913       0.913       0.000
   30 H                 0.906       0.906       0.000
   31 H                 0.912       0.912       0.000

          -----------------------------------------
          ATOMIC SPIN DENSITY AT THE NUCLEUS (A.U.)
          -----------------------------------------
                            SPIN DENS    ALPHA DENS     BETA DENS
    1  C            6.0    -0.0021859      47.08297      47.08516
    2  C            6.0     0.0250917      47.07636      47.05126
    3  C            6.0    -0.0382521      47.10147      47.13973
    4  C            6.0     0.0006744      47.10203      47.10136
    5  C            6.0    -0.0001919      47.04558      47.04577
    6  C            6.0     0.0001417      47.04534      47.04520
    7  C            6.0    -0.0007939      47.07628      47.07707
    8  C            6.0    -0.0003027      46.99886      46.99916
    9  C            6.0     0.0000723      46.99322      46.99315
   10  O            8.0     0.2631870     117.10299     116.83980
   11  C            6.0     0.0006150      46.99255      46.99193
   12  H            1.0     0.0001818       0.18482       0.18464
   13  H            1.0    -0.0019054       0.18056       0.18247
   14  H            1.0    -0.0001898       0.17617       0.17636
   15  H            1.0     0.0321436       0.19145       0.15931
   16  H            1.0    -0.0011222       0.17916       0.18028
   17  H            1.0     0.0006284       0.18311       0.18248
   18  H            1.0    -0.0001048       0.18175       0.18185
   19  H            1.0     0.0002717       0.18160       0.18133
   20  H            1.0    -0.0000029       0.18115       0.18115
   21  H            1.0     0.0003150       0.18450       0.18418
   22  H            1.0     0.0000388       0.18102       0.18098
   23  H            1.0    -0.0000091       0.18008       0.18009
   24  H            1.0     0.0000087       0.18659       0.18658
   25  H            1.0     0.0000705       0.18137       0.18130
   26  H            1.0    -0.0000080       0.18319       0.18319
   27  H            1.0    -0.0000106       0.18117       0.18119
   28  H            1.0    -0.0238085       0.14993       0.17374
   29  H            1.0    -0.0000298       0.18187       0.18190
   30  H            1.0     0.0005102       0.18054       0.18003
   31  H            1.0     0.0002204       0.18121       0.18099

          ---------------------
          ELECTROSTATIC MOMENTS
          ---------------------

 POINT   1           X           Y           Z (BOHR)    CHARGE
                 0.004467   -0.010833   -0.003453        1.00 (A.U.)
         DX          DY          DZ         /D/  (DEBYE)
    -1.408753   -5.509768    0.614316    5.720097
 ...... END OF PROPERTY EVALUATION ......
 CPU     0: STEP CPU TIME=     0.09 TOTAL CPU TIME=         16.2 (      0.3 MIN)
 TOTAL WALL CLOCK TIME=         27.7 SECONDS, CPU UTILIZATION IS    58.57%
               580000  WORDS OF DYNAMIC MEMORY USED
 EXECUTION OF GAMESS TERMINATED NORMALLY Mon May 25 19:16:16 2020
 DDI: 263640 bytes (0.3 MB / 0 MWords) used by master data server.
Note: The following floating-point exceptions are signalling: IEEE_DENORMALNote: The following floating-point exceptions are signalling:Note: The following floating-point exceptions are signalling: IEEE_DENORMAL
 ----------------------------------------
 CPU timing information for all processes
 ========================================
 0: 15.982 + 0.251 = 16.234
 1: 15.728 + 0.100 = 15.829
 2: 16.26 + 0.60 = 16.86
 3: 16.372 + 0.87 = 16.460
 4: 15.347 + 0.84 = 15.431
 5: 15.737 + 0.56 = 15.793
 ----------------------------------------

 IEEE_DENORMAL

Note: The following floating-point exceptions are signalling: IEEE_DENORMALNote: The following floating-point exceptions are signalling: IEEE_DENORMALNote: The following floating-point exceptions are signalling:

 IEEE_DENORMAL
 ddikick.x: exited gracefully.
unset echo
----- accounting info -----
Files used on the master node pietdev were:
-rwxr-xr-x 1 piet piet     1362 mei 25 19:15 /home/piet/scr/methol_fukui_base.F05*
-rw-r--r-- 1 piet piet 68812800 mei 25 19:16 /home/piet/scr/methol_fukui_base.F10
ls: No match.
ls: No match.
ls: No match.
ma 25 mei 2020 19:16:20 CEST
0.134u 0.027s 0:30.91 0.4%	0+0k 0+8io 0pf+0w
