----- GAMESS execution script 'rungms' -----
This job is running on host pietdev
under operating system Linux at ma 25 mei 2020 19:14:03 CEST
Available scratch disk space (Kbyte units) at beginning of the job is
Filesystem     1K-blocks     Used Available Use% Mounted on
/dev/sda2      244568380 31071496 201003828  14% /
GAMESS temporary binary files will be written to /home/piet/scr
GAMESS supplementary output files will be written to /home/piet/gamess/scr
Copying input file methol_charge_geodisk.inp to your run's scratch directory...
cp methol_charge_geodisk.inp /home/piet/scr/methol_charge_geodisk.F05
unset echo
 
Assuming a single but multicore node.
 
/home/piet/gamess/ddikick.x /home/piet/gamess/gamess.03.x methol_charge_geodisk -ddi 1 6 pietdev:cpus=6 -scr /home/piet/scr

 Distributed Data Interface kickoff program.
 Initiating 6 compute processes on 1 nodes to run the following command:
 /home/piet/gamess/gamess.03.x methol_charge_geodisk 

          ******************************************************
          *         GAMESS VERSION = 30 SEP 2019 (R2)          *
          *             FROM IOWA STATE UNIVERSITY             *
          * M.W.SCHMIDT, K.K.BALDRIDGE, J.A.BOATZ, S.T.ELBERT, *
          *   M.S.GORDON, J.H.JENSEN, S.KOSEKI, N.MATSUNAGA,   *
          *          K.A.NGUYEN, S.J.SU, T.L.WINDUS,           *
          *       TOGETHER WITH M.DUPUIS, J.A.MONTGOMERY       *
          *         J.COMPUT.CHEM.  14, 1347-1363(1993)        *
          **************** 64 BIT LINUX VERSION ****************

  SINCE 1993, STUDENTS AND POSTDOCS WORKING AT IOWA STATE UNIVERSITY
  AND ALSO IN THEIR VARIOUS JOBS AFTER LEAVING ISU HAVE MADE IMPORTANT
  CONTRIBUTIONS TO THE CODE:
     IVANA ADAMOVIC, CHRISTINE AIKENS, YURI ALEXEEV, POOJA ARORA,
     ANDREY ASADCHEV, ROB BELL, PRADIPTA BANDYOPADHYAY, JONATHAN BENTZ,
     COLLEEN BERTONI, BRETT BODE, KURT BRORSEN, CALEB CARLIN, GALINA CHABAN,
     WEI CHEN, CHEOL HO CHOI, PAUL DAY, ALBERT DEFUSCO, NUWAN DESILVA,
     TIM DUDLEY, DMITRI FEDOROV, ALEX FINDLATER, GRAHAM FLETCHER, 
     MARK FREITAG, KURT GLAESEMANN, EMILIE B GUIDEZ, ANASTASIA GUNINA, 
     DAN KEMP, SAROM SOK LEANG, GRANT MERRILL,
     NORIYUKI MINEZAWA, JONATHAN MULLIN,
     TAKESHI NAGATA, SEAN NEDD, HEATHER NETZLOFF, BOSILJKA NJEGIC, RYAN OLSON,
     MIKE PAK, BUU PHAM, DAVID POOLE,
     SPENCER PRUITT, LUKE ROSKOP, TOSAPORN SATTASATHUCHANA,
     JIM SHOEMAKER, LYUDMILA SLIPCHENKO,
     TONY SMITH, JIE SONG, TETSUYA TAKETSUGU, SIMON WEBB,
     JORGE LUIS GALVEZ VALLEJO, PENG XU, SOOHAENG YOO,
     FEDERICO ZAHARIEV

  ADDITIONAL CODE HAS BEEN PROVIDED BY COLLABORATORS IN OTHER GROUPS:
     IOWA STATE UNIVERSITY:
          JOE IVANIC, AARON WEST, LAIMUTIS BYTAUTAS, KLAUS RUEDENBERG
     UNIVERSITY OF TOKYO: KIMIHIKO HIRAO, TAKAHITO NAKAJIMA,
          TAKAO TSUNEDA, MUNEAKI KAMIYA, SUSUMU YANAGISAWA,
          KIYOSHI YAGI, MAHITO CHIBA, SEIKEN TOKURA, NAOAKI KAWAKAMI
     UNIVERSITY OF AARHUS: FRANK JENSEN
     UNIVERSITY OF IOWA: VISVALDAS KAIRYS, HUI LI
     NATIONAL INST. OF STANDARDS AND TECHNOLOGY: WALT STEVENS, DAVID GARMER
     UNIVERSITY OF PISA: BENEDETTA MENNUCCI, JACOPO TOMASI
     UNIVERSITY OF MEMPHIS: HENRY KURTZ, PRAKASHAN KORAMBATH
     UNIVERSITY OF ALBERTA: TOBY ZENG, MARIUSZ KLOBUKOWSKI
     UNIVERSITY OF NEW ENGLAND: MARK SPACKMAN
     MIE UNIVERSITY: HIROAKI UMEDA
     NAT. INST. OF ADVANCED INDUSTRIAL SCIENCE AND TECHNOLOGY: KAZUO KITAURA
     MICHIGAN STATE UNIVERSITY:
          KAROL KOWALSKI, MARTA WLOCH, JEFFREY GOUR, JESSE LUTZ,
          WEI LI, JUN SHEN, J. EMILIANO DEUSTUA, PIOTR PIECUCH
     UNIVERSITY OF MINNESOTA:
          ANDREW SAND, PRACHI SHARMA, YINAN SHU
     UNIVERSITY OF SILESIA: MONIKA MUSIAL, STANISLAW KUCHARSKI
     FACULTES UNIVERSITAIRES NOTRE-DAME DE LA PAIX:
          OLIVIER QUINET, BENOIT CHAMPAGNE
     UNIVERSITY OF CALIFORNIA - SANTA BARBARA: BERNARD KIRTMAN
     INSTITUTE FOR MOLECULAR SCIENCE:
          KAZUYA ISHIMURA, MICHIO KATOUDA, AND SHIGERU NAGASE
     UNIVERSITY OF NOTRE DAME: ANNA POMOGAEVA, DAN CHIPMAN
     KYUSHU UNIVERSITY:
          HARUYUKI NAKANO,
          FENG LONG GU, JACEK KORCHOWIEC, MARCIN MAKOWSKI, AND YURIKO AOKI,
          HIROTOSHI MORI AND EISAKU MIYOSHI
     PENNSYLVANIA STATE UNIVERSITY:
          TZVETELIN IORDANOV, CHET SWALINA, JONATHAN SKONE,
          SHARON HAMMES-SCHIFFER
     WASEDA UNIVERSITY:
          MASATO KOBAYASHI, TOMOKO AKAMA, TSUGUKI TOUMA,
          TAKESHI YOSHIKAWA, YASUHIRO IKABATA, JUNJI SEINO,
          YUYA NAKAJIMA, HIROMI NAKAI
     NANJING UNIVERSITY: SHUHUA LI
     UNIVERSITY OF NEBRASKA:
          PEIFENG SU, DEJUN SI, NANDUN THELLAMUREGE, YALI WANG, HUI LI
     UNIVERSITY OF ZURICH: ROBERTO PEVERATI, KIM BALDRIDGE
     N. COPERNICUS UNIVERSITY AND JACKSON STATE UNIVERSITY:
          MARIA BARYSZ
     UNIVERSITY OF COPENHAGEN: Jimmy Kromann, CASPER STEINMANN
     TOKYO INSTITUTE OF TECHNOLOGY: HIROYA NAKATA
     NAGOYA UNIVERSITY: YOSHIO NISHIMOTO, STEPHAN IRLE
     MOSCOW STATE UNIVERSITY: VLADIMIR MIRONOV
     A.N.NESMEYANOV INSTITUTE OF ORGANOELEMENT COMPOUNDS OF RUSSIAN ACADEMY OF SCIENCES:
          IGOR S. GERASIMOV
     JOHANNES KEPLER UNIVERSITY LINZ:
          CHRISTIAN FRIEDL


 PARALLEL VERSION RUNNING ON        6 PROCESSORS IN        1 NODES.

 EXECUTION OF GAMESS BEGUN Mon May 25 19:14:04 2020

            ECHO OF THE FIRST FEW INPUT CARDS -
 INPUT CARD> $BASIS GBASIS=N21 NGAUSS=3 $END                                                
 INPUT CARD> $CONTRL SCFTYP=RHF DFTTYP=B3LYP MAXIT=60 MULT=1 ICHARG=0 $END                  
 INPUT CARD> $SYSTEM MEMDDI=1000 MWORDS=30 $END                                             
 INPUT CARD> $SCF DIRSCF=.TRUE. $END                                                        
 INPUT CARD> $ELPOT  IEPOT=1 WHERE=PDC $END                                                 
 INPUT CARD> $PDC PTSEL=GEODESIC CONSTR=CHARGE $END                                         
 INPUT CARD> $DATA                                                                          
 INPUT CARD>                                                                                
 INPUT CARD>C1                                                                              
 INPUT CARD>C 6.0000000 -2.26374 0.11023 0.14447                                            
 INPUT CARD>C 6.0000000 -1.49833 -0.94862 -0.66496                                          
 INPUT CARD>C 6.0000000 -0.02680 -1.09639 -0.24556                                          
 INPUT CARD>C 6.0000000 0.73370 0.24654 -0.28492                                            
 INPUT CARD>C 6.0000000 -0.04250 1.31749 0.51291                                            
 INPUT CARD>C 6.0000000 -1.50818 1.44649 0.06762                                            
 INPUT CARD>C 6.0000000 2.21545 0.11630 0.16509                                             
 INPUT CARD>C 6.0000000 2.95668 -1.02560 -0.55286                                           
 INPUT CARD>C 6.0000000 2.99301 1.43114 -0.03318                                            
 INPUT CARD>O 8.0000000 0.08621 -1.61694 1.09283                                            
 INPUT CARD>C 6.0000000 -3.71784 0.23915 -0.32516                                           
 INPUT CARD>H 1.0000000 -2.26868 -0.20899 1.19666                                           
 INPUT CARD>H 1.0000000 -1.99450 -1.92779 -0.58297                                          
 INPUT CARD>H 1.0000000 -1.52763 -0.68233 -1.73266                                          
 INPUT CARD>H 1.0000000 0.45502 -1.79883 -0.94070                                           
 INPUT CARD>H 1.0000000 0.73756 0.55087 -1.34558                                            
 INPUT CARD>H 1.0000000 -0.00540 1.05744 1.57915                                            
 INPUT CARD>H 1.0000000 0.44572 2.29131 0.40705                                             
 INPUT CARD>H 1.0000000 -1.54662 1.81730 -0.96936                                           
 INPUT CARD>H 1.0000000 -2.01783 2.19969 0.68328                                            
 INPUT CARD>H 1.0000000 2.20771 -0.11894 1.23761                                            
 INPUT CARD>H 1.0000000 2.93688 -0.89104 -1.64299                                           
 INPUT CARD>H 1.0000000 4.00838 -1.04860 -0.24464                                           
 INPUT CARD>H 1.0000000 2.52952 -2.00501 -0.31933                                           
 INPUT CARD>H 1.0000000 2.98729 1.73526 -1.08870                                            
 INPUT CARD>H 1.0000000 2.58308 2.25658 0.55592                                             
 INPUT CARD>H 1.0000000 4.03938 1.30508 0.26735                                             
 INPUT CARD>H 1.0000000 -0.40140 -2.44938 1.14262                                           
 INPUT CARD>H 1.0000000 -4.25447 -0.71313 -0.23343                                          
 INPUT CARD>H 1.0000000 -4.26071 0.98601 0.26622                                            
 INPUT CARD>H 1.0000000 -3.76740 0.54871 -1.37739                                           
 INPUT CARD> $END                                                                           
   30000000 WORDS OF MEMORY AVAILABLE

     BASIS OPTIONS
     -------------
     GBASIS=N21          IGAUSS=       3      POLAR=NONE    
     NDFUNC=       0     NFFUNC=       0     DIFFSP=       F
     NPFUNC=       0      DIFFS=       F     BASNAM=        


     RUN TITLE
     ---------
                                                                                 

 THE POINT GROUP OF THE MOLECULE IS C1      
 THE ORDER OF THE PRINCIPAL AXIS IS     0

 ATOM      ATOMIC                      COORDINATES (BOHR)
           CHARGE         X                   Y                   Z
 C           6.0    -4.2778483074        0.2083044956        0.2730087134
 C           6.0    -2.8314331392       -1.7926318665       -1.2565921928
 C           6.0    -0.0506446565       -2.0718766757       -0.4640411135
 C           6.0     1.3864919572        0.4658930450       -0.5384207284
 C           6.0    -0.0803133545        2.4896950916        0.9692593564
 C           6.0    -2.8500469402        2.7334697440        0.1277832713
 C           6.0     4.1865934395        0.2197751324        0.3119748633
 C           6.0     5.5873150334       -1.9381029730       -1.0447539096
 C           6.0     5.6559687785        2.7044624501       -0.0627011083
 O           8.0     0.1629132774       -3.0555735386        2.0651492512
 C           6.0    -7.0256988662        0.4519279700       -0.6144633022
 H           1.0    -4.2871835538       -0.3949338342        2.2613595005
 H           1.0    -3.7690584825       -3.6429948619       -1.1016535591
 H           1.0    -2.8868021106       -1.2894167332       -3.2742526299
 H           1.0     0.8598631189       -3.3992957985       -1.7776652366
 H           1.0     1.3937862995        1.0409933549       -2.5427774946
 H           1.0    -0.0102045203        1.9982718485        2.9841607935
 H           1.0     0.8422886672        4.3299480529        0.7692129633
 H           1.0    -2.9226880071        3.4341990375       -1.8318247835
 H           1.0    -3.8131457898        4.1568113579        1.2912119729
 H           1.0     4.1719669604       -0.2247640090        2.3387437797
 H           1.0     5.5498984588       -1.6838214441       -3.1048009006
 H           1.0     7.5747398547       -1.9815666707       -0.4623025656
 H           1.0     4.7800996805       -3.7889195026       -0.6034461997
 H           1.0     5.6451595459        3.2791659175       -2.0573446828
 H           1.0     4.8813134044        4.2643178694        1.0505364711
 H           1.0     7.6333213603        2.4662435921        0.5052182428
 H           1.0    -0.7585360115       -4.6286570398        2.1592387081
 H           1.0    -8.0397825230       -1.3476202936       -0.4411187373
 H           1.0    -8.0515744131        1.8632887212        0.5030828525
 H           1.0    -7.1193536861        1.0369115467       -2.6028896782

          INTERNUCLEAR DISTANCES (ANGS.)
          ------------------------------

                1 C          2 C          3 C          4 C          5 C     

   1 C       0.0000000    1.5369427 *  2.5713724 *  3.0311059    2.5548252 *
   2 C       1.5369427 *  0.0000000    1.5372485 *  2.5602335 *  2.9397403 *
   3 C       2.5713724 *  1.5372485 *  0.0000000    1.5438168 *  2.5302845 *
   4 C       3.0311059    2.5602335 *  1.5438168 *  0.0000000    1.5446531 *
   5 C       2.5548252 *  2.9397403 *  2.5302845 *  1.5446531 *  0.0000000  
   6 C       1.5369996 *  2.5046601 *  2.9595282 *  2.5671366 *  1.5372515 *
   7 C       4.4792416    3.9516072    2.5820410 *  1.5540446 *  2.5811188 *
   8 C       5.3878719    4.4570850    3.0000996    2.5752227 *  3.9523432  
   9 C       5.4230788    5.1219663    3.9436995    2.5634219 *  3.0863330  
  10 O       3.0667194    2.4591145 *  1.4404969 *  2.4062411 *  2.9939527 *
  11 C       1.5334861 *  2.5401745 *  3.9260387    4.4517280    3.9208803  
  12 H       1.0995588 *  2.1461875 *  2.8095379 *  3.3788863    2.7845166 *
  13 H       2.1806386 *  1.1007638 *  2.1626176 *  3.5013740    3.9424737  
  14 H       2.1664779 *  1.1007961 *  2.1529986 *  2.8411906 *  3.3537257  
  15 H       3.4948190    2.1481308 *  1.0994508 *  2.1659290 *  3.4744724  
  16 H       3.3796767    2.7768540 *  2.1231476 *  1.1034633 *  2.1564287 *
  17 H       2.8382412 *  3.3599325    2.8229432 *  2.1630036 *  1.0981212 *
  18 H       3.4881559    3.9275542    3.4821956    2.1778061 *  1.0944818 *
  19 H       2.1607791 *  2.7830388 *  3.3650154    2.8522981 *  2.1700948 *
  20 H       2.1717806 *  3.4640276    3.9611977    3.5104307    2.1700764 *
  21 H       4.6088327    4.2476904    2.8545116 *  2.1504369 *  2.7662188 *
  22 H       5.5896336    4.5421301    3.2830441    2.8270912 *  4.2897803  
  23 H       6.3901317    5.5236329    4.0354631    3.5217239    4.7520409  
  24 H       5.2597236    4.1783963    2.7140015 *  2.8802137 *  4.2833301  
  25 H       5.6333602    5.2443831    4.2206475    2.8179811 *  3.4524359  
  26 H       5.3167446    5.3312065    4.3239162    2.8578802 *  2.7888009 *
  27 H       6.4165480    6.0509997    4.7501531    3.5146877    4.0892784  
  28 H       3.3190687    2.5928520 *  1.9743229 *  3.2548897    3.8359684  
  29 H       2.1871754 *  2.7996395 *  4.2450240    5.0799073    4.7350958  
  30 H       2.1839649 *  3.4986616    4.7459775    5.0788485    4.2383995  
  31 H       2.1838764 *  2.8103794 *  4.2402219    4.6416267    4.2472505  

                6 C          7 C          8 C          9 C         10 O     

   1 C       1.5369996 *  4.4792416    5.3878719    5.4230788    3.0667194  
   2 C       2.5046601 *  3.9516072    4.4570850    5.1219663    2.4591145 *
   3 C       2.9595282 *  2.5820410 *  3.0000996    3.9436995    1.4404969 *
   4 C       2.5671366 *  1.5540446 *  2.5752227 *  2.5634219 *  2.4062411 *
   5 C       1.5372515 *  2.5811188 *  3.9523432    3.0863330    2.9939527 *
   6 C       0.0000000    3.9552909    5.1411282    4.5023447    3.6024628  
   7 C       3.9552909    0.0000000    1.5390938 *  1.5403619 *  2.8980140 *
   8 C       5.1411282    1.5390938 *  0.0000000    2.5113659 *  3.3611868  
   9 C       4.5023447    1.5403619 *  2.5113659 *  0.0000000    4.3598367  
  10 O       3.6024628    2.8980140 *  3.3611868    4.3598367    0.0000000  
  11 C       2.5484394 *  5.9547769    6.7971065    6.8221404    4.4639178  
  12 H       2.1432932 *  4.6127402    5.5706426    5.6469385    2.7456531 *
  13 H       3.4706685    4.7393646    5.0327961    6.0382063    2.6896631 *
  14 H       2.7880568 *  4.2719917    4.6496020    5.2717335    3.3854644  
  15 H       3.9246612    2.8265895 *  2.6469997 *  4.2068625    2.0746925 *
  16 H       2.8004674 *  2.1575759 *  2.8351642 *  2.7539651 *  3.3270859  
  17 H       2.1666635 *  2.7959766 *  4.2021947    3.4248682    2.7197809 *
  18 H       2.1556110 *  2.8144551 *  4.2694542    2.7244047 *  3.9842138  
  19 H       1.1019552 *  4.2817693    5.3418408    4.6512142    4.3258254  
  20 H       1.0982216 *  4.7465455    6.0560951    5.1198146    4.3773714  
  21 H       4.1984862    1.0980423 *  2.1421417 *  2.1527544 *  2.6011012 *
  22 H       5.3055435    2.1918824 *  1.0985817 *  2.8261562 *  4.0172082  
  23 H       6.0626244    2.1770321 *  1.0961758 *  2.6878992 *  4.1827328  
  24 H       5.3259369    2.1984674 *  1.0937303 *  3.4790561    2.8486063 *
  25 H       4.6507757    2.1883231 *  2.8125450 *  1.0984736 *  4.9409091  
  26 H       4.1991774    2.2065127 *  3.4844907    1.0938156 *  4.6396971  
  27 H       5.5529551    2.1795356 *  2.6976013 *  1.0959469 *  4.9846937  
  28 H       4.1902733    3.7929122    4.0222510    5.2880015    0.9660222 *
  29 H       3.5066649    6.5350315    7.2249815    7.5606852    4.6278873  
  30 H       2.7978394 *  6.5350800    7.5371205    7.2735297    5.1336484  
  31 H       2.8280979 *  6.1936029    6.9549661    6.9490090    5.0638263  

               11 C         12 H         13 H         14 H         15 H     

   1 C       1.5334861 *  1.0995588 *  2.1806386 *  2.1664779 *  3.4948190  
   2 C       2.5401745 *  2.1461875 *  1.1007638 *  1.1007961 *  2.1481308 *
   3 C       3.9260387    2.8095379 *  2.1626176 *  2.1529986 *  1.0994508 *
   4 C       4.4517280    3.3788863    3.5013740    2.8411906 *  2.1659290 *
   5 C       3.9208803    2.7845166 *  3.9424737    3.3537257    3.4744724  
   6 C       2.5484394 *  2.1432932 *  3.4706685    2.7880568 *  3.9246612  
   7 C       5.9547769    4.6127402    4.7393646    4.2719917    2.8265895 *
   8 C       6.7971065    5.5706426    5.0327961    4.6496020    2.6469997 *
   9 C       6.8221404    5.6469385    6.0382063    5.2717335    4.2068625  
  10 O       4.4639178    2.7456531 *  2.6896631 *  3.3854644    2.0746925 *
  11 C       0.0000000    2.1486811 *  2.7806466 *  2.7617389 *  4.6845504  
  12 H       2.1486811 *  0.0000000    2.4892832 *  3.0584508    3.8097822  
  13 H       2.7806466 *  2.4892832 *  0.0000000    1.7581028 *  2.4788606 *
  14 H       2.7617389 *  3.0584508    1.7581028 *  0.0000000    2.4092891 *
  15 H       4.6845504    3.8097822    2.4788606 *  2.4092891 *  0.0000000  
  16 H       4.5813770    4.0097195    3.7668928    2.6080067 *  2.4010095 *
  17 H       4.2518473    2.6215606 *  4.1884221    4.0388203    3.8366533  
  18 H       4.6992259    3.7739835    4.9734915    4.1611301    4.3064790  
  19 H       2.7603890 *  3.0526815    3.7915159    2.6136445 *  4.1332530  
  20 H       2.7840083 *  2.4755250 *  4.3174095    3.7925060    4.9739783  
  21 H       6.1386172    4.4774829    4.9239231    4.8054841    3.2617460  
  22 H       6.8774489    5.9688072    5.1494662    4.4702852    2.7343963 *
  23 H       7.8332151    6.4949036    6.0763485    5.7441939    3.6977982  
  24 H       6.6382072    5.3429053    4.5323532    4.4952698    2.1753531 *
  25 H       6.9123156    6.0521235    6.2041865    5.1617757    4.3501825  
  26 H       6.6744227    5.4798867    6.3055738    5.5473171    4.8181803  
  27 H       7.8524988    6.5534454    6.8979852    6.2403076    4.8929826  
  28 H       4.5145704    2.9170194 *  2.4057607 *  3.5578216    2.3445453 *
  29 H       1.0969154 *  2.4985349 *  2.5894095 *  3.1119601    4.8844930  
  30 H       1.0964661 *  2.5023843 *  3.7877516    3.7747326    5.6080388  
  31 H       1.0979397 *  3.0734353    3.1475911    2.5803577 *  4.8508219  

               16 H         17 H         18 H         19 H         20 H     

   1 C       3.3796767    2.8382412 *  3.4881559    2.1607791 *  2.1717806 *
   2 C       2.7768540 *  3.3599325    3.9275542    2.7830388 *  3.4640276  
   3 C       2.1231476 *  2.8229432 *  3.4821956    3.3650154    3.9611977  
   4 C       1.1034633 *  2.1630036 *  2.1778061 *  2.8522981 *  3.5104307  
   5 C       2.1564287 *  1.0981212 *  1.0944818 *  2.1700948 *  2.1700764 *
   6 C       2.8004674 *  2.1666635 *  2.1556110 *  1.1019552 *  1.0982216 *
   7 C       2.1575759 *  2.7959766 *  2.8144551 *  4.2817693    4.7465455  
   8 C       2.8351642 *  4.2021947    4.2694542    5.3418408    6.0560951  
   9 C       2.7539651 *  3.4248682    2.7244047 *  4.6512142    5.1198146  
  10 O       3.3270859    2.7197809 *  3.9842138    4.3258254    4.3773714  
  11 C       4.5813770    4.2518473    4.6992259    2.7603890 *  2.7840083 *
  12 H       4.0097195    2.6215606 *  3.7739835    3.0526815    2.4755250 *
  13 H       3.7668928    4.1884221    4.9734915    3.7915159    4.3174095  
  14 H       2.6080067 *  4.0388203    4.1611301    2.6136445 *  3.7925060  
  15 H       2.4010095 *  3.8366533    4.3064790    4.1332530    4.9739783  
  16 H       0.0000000    3.0598445    2.4871699 *  2.6387241 *  3.7982962  
  17 H       3.0598445    0.0000000    1.7606143 *  3.0737029    2.4813691 *
  18 H       2.4871699 *  1.7606143 *  0.0000000    2.4675106 *  2.4806805 *
  19 H       2.6387241 *  3.0737029    2.4675106 *  0.0000000    1.7605340 *
  20 H       3.7982962    2.4813691 *  2.4806805 *  1.7605340 *  0.0000000  
  21 H       3.0467781    2.5295010 *  3.0989908    4.7659979    4.8516508  
  22 H       2.6466140 *  4.7786789    4.5316546    5.2811604    6.2859602  
  23 H       3.8037661    4.8859026    4.9266870    6.2925851    6.9085187  
  24 H       3.2858534    4.4055245    4.8299292    5.6256120    6.2740036  
  25 H       2.5553967 *  4.0660862    3.0010061    4.5362223    5.3298062  
  26 H       3.1513637    3.0307037    2.1428197 *  4.4242364    4.6030240  
  27 H       3.7513186    4.2593885    3.7291498    5.7441463    6.1370284  
  28 H       4.0607720    3.5560035    4.8716339    4.8965852    4.9434493  
  29 H       5.2682955    4.9472174    5.6150388    3.7785077    3.7851600  
  30 H       5.2697200    4.4538243    4.8861155    3.0958013    2.5840799 *
  31 H       4.5050728    4.8117127    4.8960454    2.5899175 *  3.1675055  

               21 H         22 H         23 H         24 H         25 H     

   1 C       4.6088327    5.5896336    6.3901317    5.2597236    5.6333602  
   2 C       4.2476904    4.5421301    5.5236329    4.1783963    5.2443831  
   3 C       2.8545116 *  3.2830441    4.0354631    2.7140015 *  4.2206475  
   4 C       2.1504369 *  2.8270912 *  3.5217239    2.8802137 *  2.8179811 *
   5 C       2.7662188 *  4.2897803    4.7520409    4.2833301    3.4524359  
   6 C       4.1984862    5.3055435    6.0626244    5.3259369    4.6507757  
   7 C       1.0980423 *  2.1918824 *  2.1770321 *  2.1984674 *  2.1883231 *
   8 C       2.1421417 *  1.0985817 *  1.0961758 *  1.0937303 *  2.8125450 *
   9 C       2.1527544 *  2.8261562 *  2.6878992 *  3.4790561    1.0984736 *
  10 O       2.6011012 *  4.0172082    4.1827328    2.8486063 *  4.9409091  
  11 C       6.1386172    6.8774489    7.8332151    6.6382072    6.9123156  
  12 H       4.4774829    5.9688072    6.4949036    5.3429053    6.0521235  
  13 H       4.9239231    5.1494662    6.0763485    4.5323532    6.2041865  
  14 H       4.8054841    4.4702852    5.7441939    4.4952698    5.1617757  
  15 H       3.2617460    2.7343963 *  3.6977982    2.1753531 *  4.3501825  
  16 H       3.0467781    2.6466140 *  3.8037661    3.2858534    2.5553967 *
  17 H       2.5295010 *  4.7786789    4.8859026    4.4055245    4.0660862  
  18 H       3.0989908    4.5316546    4.9266870    4.8299292    3.0010061  
  19 H       4.7659979    5.2811604    6.2925851    5.6256120    4.5362223  
  20 H       4.8516508    6.2859602    6.9085187    6.2740036    5.3298062  
  21 H       0.0000000    3.0701276    2.5107260 *  2.4667557 *  3.0753082  
  22 H       3.0701276    0.0000000    1.7687058 *  1.7773427 *  2.6846285 *
  23 H       2.5107260 *  1.7687058 *  0.0000000    1.7627608 *  3.0830080  
  24 H       2.4667557 *  1.7773427 *  1.7627608 *  0.0000000    3.8459203  
  25 H       3.0753082    2.6846285 *  3.0830080    3.8459203    0.0000000  
  26 H       2.4997398 *  3.8558905    3.6873556    4.3508712    1.7719862 *
  27 H       2.5148066 *  3.1125308    2.4089218 *  3.6851820    1.7694123 *
  28 H       3.4996327    4.6186751    4.8304073    3.3053070    5.8286551  
  29 H       6.6540808    7.3303497    8.2696648    6.9064356    7.6921511  
  30 H       6.6336242    7.6794337    8.5310296    7.4428686    7.4115240  
  31 H       6.5563649    6.8622732    8.0185582    6.8769309    6.8641882  

               26 H         27 H         28 H         29 H         30 H     

   1 C       5.3167446    6.4165480    3.3190687    2.1871754 *  2.1839649 *
   2 C       5.3312065    6.0509997    2.5928520 *  2.7996395 *  3.4986616  
   3 C       4.3239162    4.7501531    1.9743229 *  4.2450240    4.7459775  
   4 C       2.8578802 *  3.5146877    3.2548897    5.0799073    5.0788485  
   5 C       2.7888009 *  4.0892784    3.8359684    4.7350958    4.2383995  
   6 C       4.1991774    5.5529551    4.1902733    3.5066649    2.7978394 *
   7 C       2.2065127 *  2.1795356 *  3.7929122    6.5350315    6.5350800  
   8 C       3.4844907    2.6976013 *  4.0222510    7.2249815    7.5371205  
   9 C       1.0938156 *  1.0959469 *  5.2880015    7.5606852    7.2735297  
  10 O       4.6396971    4.9846937    0.9660222 *  4.6278873    5.1336484  
  11 C       6.6744227    7.8524988    4.5145704    1.0969154 *  1.0964661 *
  12 H       5.4798867    6.5534454    2.9170194 *  2.4985349 *  2.5023843 *
  13 H       6.3055738    6.8979852    2.4057607 *  2.5894095 *  3.7877516  
  14 H       5.5473171    6.2403076    3.5578216    3.1119601    3.7747326  
  15 H       4.8181803    4.8929826    2.3445453 *  4.8844930    5.6080388  
  16 H       3.1513637    3.7513186    4.0607720    5.2682955    5.2697200  
  17 H       3.0307037    4.2593885    3.5560035    4.9472174    4.4538243  
  18 H       2.1428197 *  3.7291498    4.8716339    5.6150388    4.8861155  
  19 H       4.4242364    5.7441463    4.8965852    3.7785077    3.0958013  
  20 H       4.6030240    6.1370284    4.9434493    3.7851600    2.5840799 *
  21 H       2.4997398 *  2.5148066 *  3.4996327    6.6540808    6.6336242  
  22 H       3.8558905    3.1125308    4.6186751    7.3303497    7.6794337  
  23 H       3.6873556    2.4089218 *  4.8304073    8.2696648    8.5310296  
  24 H       4.3508712    3.6851820    3.3053070    6.9064356    7.4428686  
  25 H       1.7719862 *  1.7694123 *  5.8286551    7.6921511    7.4115240  
  26 H       0.0000000    1.7633589 *  5.6033380    7.4962885    6.9667593  
  27 H       1.7633589 *  0.0000000    5.8806968    8.5505497    8.3062206  
  28 H       5.6033380    5.8806968    0.0000000    4.4445727    5.2406350  
  29 H       7.4962885    8.5505497    4.4445727    0.0000000    1.7710917 *
  30 H       6.9667593    8.3062206    5.2406350    1.7710917 *  0.0000000  
  31 H       6.8544222    8.0139303    5.1641989    1.7714745 *  1.7708867 *

               31 H     

   1 C       2.1838764 *
   2 C       2.8103794 *
   3 C       4.2402219  
   4 C       4.6416267  
   5 C       4.2472505  
   6 C       2.8280979 *
   7 C       6.1936029  
   8 C       6.9549661  
   9 C       6.9490090  
  10 O       5.0638263  
  11 C       1.0979397 *
  12 H       3.0734353  
  13 H       3.1475911  
  14 H       2.5803577 *
  15 H       4.8508219  
  16 H       4.5050728  
  17 H       4.8117127  
  18 H       4.8960454  
  19 H       2.5899175 *
  20 H       3.1675055  
  21 H       6.5563649  
  22 H       6.8622732  
  23 H       8.0185582  
  24 H       6.8769309  
  25 H       6.8641882  
  26 H       6.8544222  
  27 H       8.0139303  
  28 H       5.1641989  
  29 H       1.7714745 *
  30 H       1.7708867 *
  31 H       0.0000000  

  * ... LESS THAN  3.000


     ATOMIC BASIS SET
     ----------------
 THE CONTRACTED PRIMITIVE FUNCTIONS HAVE BEEN UNNORMALIZED
 THE CONTRACTED BASIS FUNCTIONS ARE NOW NORMALIZED TO UNITY

  SHELL TYPE  PRIMITIVE        EXPONENT          CONTRACTION COEFFICIENT(S)

 C         

      1   S       1           172.2560000    0.061766907377
      1   S       2            25.9109000    0.358794042852
      1   S       3             5.5333500    0.700713083689

      2   L       4             3.6649800   -0.395895162119    0.236459946619
      2   L       5             0.7705450    1.215834355681    0.860618805716

      3   L       6             0.1958570    1.000000000000    1.000000000000

 C         

      4   S       7           172.2560000    0.061766907377
      4   S       8            25.9109000    0.358794042852
      4   S       9             5.5333500    0.700713083689

      5   L      10             3.6649800   -0.395895162119    0.236459946619
      5   L      11             0.7705450    1.215834355681    0.860618805716

      6   L      12             0.1958570    1.000000000000    1.000000000000

 C         

      7   S      13           172.2560000    0.061766907377
      7   S      14            25.9109000    0.358794042852
      7   S      15             5.5333500    0.700713083689

      8   L      16             3.6649800   -0.395895162119    0.236459946619
      8   L      17             0.7705450    1.215834355681    0.860618805716

      9   L      18             0.1958570    1.000000000000    1.000000000000

 C         

     10   S      19           172.2560000    0.061766907377
     10   S      20            25.9109000    0.358794042852
     10   S      21             5.5333500    0.700713083689

     11   L      22             3.6649800   -0.395895162119    0.236459946619
     11   L      23             0.7705450    1.215834355681    0.860618805716

     12   L      24             0.1958570    1.000000000000    1.000000000000

 C         

     13   S      25           172.2560000    0.061766907377
     13   S      26            25.9109000    0.358794042852
     13   S      27             5.5333500    0.700713083689

     14   L      28             3.6649800   -0.395895162119    0.236459946619
     14   L      29             0.7705450    1.215834355681    0.860618805716

     15   L      30             0.1958570    1.000000000000    1.000000000000

 C         

     16   S      31           172.2560000    0.061766907377
     16   S      32            25.9109000    0.358794042852
     16   S      33             5.5333500    0.700713083689

     17   L      34             3.6649800   -0.395895162119    0.236459946619
     17   L      35             0.7705450    1.215834355681    0.860618805716

     18   L      36             0.1958570    1.000000000000    1.000000000000

 C         

     19   S      37           172.2560000    0.061766907377
     19   S      38            25.9109000    0.358794042852
     19   S      39             5.5333500    0.700713083689

     20   L      40             3.6649800   -0.395895162119    0.236459946619
     20   L      41             0.7705450    1.215834355681    0.860618805716

     21   L      42             0.1958570    1.000000000000    1.000000000000

 C         

     22   S      43           172.2560000    0.061766907377
     22   S      44            25.9109000    0.358794042852
     22   S      45             5.5333500    0.700713083689

     23   L      46             3.6649800   -0.395895162119    0.236459946619
     23   L      47             0.7705450    1.215834355681    0.860618805716

     24   L      48             0.1958570    1.000000000000    1.000000000000

 C         

     25   S      49           172.2560000    0.061766907377
     25   S      50            25.9109000    0.358794042852
     25   S      51             5.5333500    0.700713083689

     26   L      52             3.6649800   -0.395895162119    0.236459946619
     26   L      53             0.7705450    1.215834355681    0.860618805716

     27   L      54             0.1958570    1.000000000000    1.000000000000

 O         

     28   S      55           322.0370000    0.059239393389
     28   S      56            48.4308000    0.351499960776
     28   S      57            10.4206000    0.707657921031

     29   L      58             7.4029400   -0.404453583190    0.244586106967
     29   L      59             1.5762000    1.221561761397    0.853955373466

     30   L      60             0.3736840    1.000000000000    1.000000000000

 C         

     31   S      61           172.2560000    0.061766907377
     31   S      62            25.9109000    0.358794042852
     31   S      63             5.5333500    0.700713083689

     32   L      64             3.6649800   -0.395895162119    0.236459946619
     32   L      65             0.7705450    1.215834355681    0.860618805716

     33   L      66             0.1958570    1.000000000000    1.000000000000

 H         

     34   S      67             5.4471780    0.156284978695
     34   S      68             0.8245472    0.904690876670

     35   S      69             0.1831916    1.000000000000

 H         

     36   S      70             5.4471780    0.156284978695
     36   S      71             0.8245472    0.904690876670

     37   S      72             0.1831916    1.000000000000

 H         

     38   S      73             5.4471780    0.156284978695
     38   S      74             0.8245472    0.904690876670

     39   S      75             0.1831916    1.000000000000

 H         

     40   S      76             5.4471780    0.156284978695
     40   S      77             0.8245472    0.904690876670

     41   S      78             0.1831916    1.000000000000

 H         

     42   S      79             5.4471780    0.156284978695
     42   S      80             0.8245472    0.904690876670

     43   S      81             0.1831916    1.000000000000

 H         

     44   S      82             5.4471780    0.156284978695
     44   S      83             0.8245472    0.904690876670

     45   S      84             0.1831916    1.000000000000

 H         

     46   S      85             5.4471780    0.156284978695
     46   S      86             0.8245472    0.904690876670

     47   S      87             0.1831916    1.000000000000

 H         

     48   S      88             5.4471780    0.156284978695
     48   S      89             0.8245472    0.904690876670

     49   S      90             0.1831916    1.000000000000

 H         

     50   S      91             5.4471780    0.156284978695
     50   S      92             0.8245472    0.904690876670

     51   S      93             0.1831916    1.000000000000

 H         

     52   S      94             5.4471780    0.156284978695
     52   S      95             0.8245472    0.904690876670

     53   S      96             0.1831916    1.000000000000

 H         

     54   S      97             5.4471780    0.156284978695
     54   S      98             0.8245472    0.904690876670

     55   S      99             0.1831916    1.000000000000

 H         

     56   S     100             5.4471780    0.156284978695
     56   S     101             0.8245472    0.904690876670

     57   S     102             0.1831916    1.000000000000

 H         

     58   S     103             5.4471780    0.156284978695
     58   S     104             0.8245472    0.904690876670

     59   S     105             0.1831916    1.000000000000

 H         

     60   S     106             5.4471780    0.156284978695
     60   S     107             0.8245472    0.904690876670

     61   S     108             0.1831916    1.000000000000

 H         

     62   S     109             5.4471780    0.156284978695
     62   S     110             0.8245472    0.904690876670

     63   S     111             0.1831916    1.000000000000

 H         

     64   S     112             5.4471780    0.156284978695
     64   S     113             0.8245472    0.904690876670

     65   S     114             0.1831916    1.000000000000

 H         

     66   S     115             5.4471780    0.156284978695
     66   S     116             0.8245472    0.904690876670

     67   S     117             0.1831916    1.000000000000

 H         

     68   S     118             5.4471780    0.156284978695
     68   S     119             0.8245472    0.904690876670

     69   S     120             0.1831916    1.000000000000

 H         

     70   S     121             5.4471780    0.156284978695
     70   S     122             0.8245472    0.904690876670

     71   S     123             0.1831916    1.000000000000

 H         

     72   S     124             5.4471780    0.156284978695
     72   S     125             0.8245472    0.904690876670

     73   S     126             0.1831916    1.000000000000

 TOTAL NUMBER OF BASIS SET SHELLS             =   73
 NUMBER OF CARTESIAN GAUSSIAN BASIS FUNCTIONS =  139
 NUMBER OF ELECTRONS                          =   88
 CHARGE OF MOLECULE                           =    0
 SPIN MULTIPLICITY                            =    1
 NUMBER OF OCCUPIED ORBITALS (ALPHA)          =   44
 NUMBER OF OCCUPIED ORBITALS (BETA )          =   44
 TOTAL NUMBER OF ATOMS                        =   31
 THE NUCLEAR REPULSION ENERGY IS      689.9800104740

 SELECTED MURRAY-HANDY-LAMING RADIAL GRID

 LEGACY BECKE'S FUZZY CELL METHOD

 SELECTED ORIGINAL BECKE'S PARTITION FUNCTION

     LEBEDEV GRID-BASED DFT OPTIONS
     ------------------------------
     DFTTYP=B3LYP   
     NRAD  =      96     NLEB  =     302
     NRAD0 =      24     NLEB0 =     110
     SWOFF =    5.00E-03 (PURE SCF -> DFT)
     SWITCH=    3.00E-04 (COARSE -> TIGHT GRID)
     THRESH=    0.00E+00 GTHRE=    1.00E+00

 GRIMME'S EMPIRICAL DISPERSION CORRECTION= F

     $CONTRL OPTIONS
     ---------------
 SCFTYP=RHF          RUNTYP=ENERGY       EXETYP=RUN     
 MPLEVL=       0     CITYP =NONE         CCTYP =NONE         VBTYP =NONE    
 DFTTYP=B3LYP        TDDFT =NONE    
 MULT  =       1     ICHARG=       0     NZVAR =       0     COORD =UNIQUE  
 PP    =NONE         RELWFN=NONE         LOCAL =NONE         NUMGRD=       F
 ISPHER=      -1     NOSYM =       0     MAXIT =      60     UNITS =ANGS    
 PLTORB=       F     MOLPLT=       F     AIMPAC=       F     FRIEND=        
 NPRINT=       7     IREST =       0     GEOM  =INPUT   
 NORMF =       0     NORMP =       0     ITOL  =      20     ICUT  =       9
 INTTYP=BEST         GRDTYP=BEST         QMTTOL= 1.0E-06

     $SYSTEM OPTIONS
     ---------------
  REPLICATED MEMORY=    30000000 WORDS (ON EVERY NODE).
 DISTRIBUTED MEMDDI=        1000 MILLION WORDS IN AGGREGATE,
 MEMDDI DISTRIBUTED OVER   6 PROCESSORS IS   166666666 WORDS/PROCESSOR.
 TOTAL MEMORY REQUESTED ON EACH PROCESSOR=   196666666 WORDS.
 TIMLIM=      525600.00 MINUTES, OR     365.0 DAYS.
 PARALL= T  BALTYP=  DLB     KDIAG=    0  COREFL= F
 MXSEQ2=     300 MXSEQ3=     150  mem10=         0

     INPUT FOR POTENTIAL-DERIVED CHARGES 
     -----------------------------------
     VDWSCL=    1.40   RMAX=    3.00   DELR=    0.80
     VDWINC=    0.20 PTDENS=    0.28
     LAYER =       4  NFREQ=      30 MAXPDC=   10000
     CONSTR=CHARGE    UNITS=ANGS      PTSEL=GEODESIC
     CENTER=  0.0000  0.0000  0.0000
     DPOLE =  0.0000  0.0000  0.0000
     QPOLE =  0.0000  0.0000  0.0000  0.0000  0.0000  0.0000


          ----------------
          PROPERTIES INPUT
          ----------------

     MOMENTS            FIELD           POTENTIAL          DENSITY
 IEMOM =       1   IEFLD =       0   IEPOT =       1   IEDEN =       0
 WHERE =COMASS     WHERE =NUCLEI     WHERE =PDC        WHERE =NUCLEI  
 OUTPUT=BOTH       OUTPUT=BOTH       OUTPUT=BOTH       OUTPUT=BOTH    
 IEMINT=       0   IEFINT=       0                     IEDINT=       0
                                                       MORB  =       0
          EXTRAPOLATION IN EFFECT
          DIIS IN EFFECT
 ORBITAL PRINTING OPTION: NPREO=     1   139     2     1

     -------------------------------
     INTEGRAL TRANSFORMATION OPTIONS
     -------------------------------
     NWORD  =            0
     CUTOFF = 1.0E-09     MPTRAN =       0
     DIRTRF =       T     AOINTS =DUP     

          ----------------------
          INTEGRAL INPUT OPTIONS
          ----------------------
 NOPK  =       1 NORDER=       0 SCHWRZ=       T

     ------------------------------------------
     THE POINT GROUP IS C1 , NAXIS= 0, ORDER= 1
     ------------------------------------------

     DIMENSIONS OF THE SYMMETRY SUBSPACES ARE
 A   =  139

 ..... DONE SETTING UP THE RUN .....
 CPU     0: STEP CPU TIME=     0.03 TOTAL CPU TIME=          0.0 (      0.0 MIN)
 TOTAL WALL CLOCK TIME=          0.0 SECONDS, CPU UTILIZATION IS    75.00%

          ********************
          1 ELECTRON INTEGRALS
          ********************
 ...... END OF ONE-ELECTRON INTEGRALS ......
 CPU     0: STEP CPU TIME=     0.01 TOTAL CPU TIME=          0.0 (      0.0 MIN)
 TOTAL WALL CLOCK TIME=          0.1 SECONDS, CPU UTILIZATION IS    80.00%

          -------------
          GUESS OPTIONS
          -------------
          GUESS =HUCKEL            NORB  =       0          NORDER=       0
          MIX   =       F          PRTMO =       F          PUNMO =       F
          TOLZ  = 1.0E-08          TOLE  = 1.0E-05
          SYMDEN=       F          PURIFY=       F

 INITIAL GUESS ORBITALS GENERATED BY HUCKEL   ROUTINE.
 HUCKEL GUESS REQUIRES    185016 WORDS.

 SYMMETRIES FOR INITIAL GUESS ORBITALS FOLLOW.   BOTH SET(S).
    44 ORBITALS ARE OCCUPIED (   11 CORE ORBITALS).
    12=A       13=A       14=A       15=A       16=A       17=A       18=A   
    19=A       20=A       21=A       22=A       23=A       24=A       25=A   
    26=A       27=A       28=A       29=A       30=A       31=A       32=A   
    33=A       34=A       35=A       36=A       37=A       38=A       39=A   
    40=A       41=A       42=A       43=A       44=A       45=A       46=A   
    47=A       48=A       49=A       50=A       51=A       52=A       53=A   
    54=A   
 ...... END OF INITIAL ORBITAL SELECTION ......
 CPU     0: STEP CPU TIME=     0.03 TOTAL CPU TIME=          0.1 (      0.0 MIN)
 TOTAL WALL CLOCK TIME=          0.1 SECONDS, CPU UTILIZATION IS    77.78%

                    ----------------------
                    AO INTEGRAL TECHNOLOGY
                    ----------------------
     S,P,L SHELL ROTATED AXIS INTEGRALS, REPROGRAMMED BY
        KAZUYA ISHIMURA (IMS) AND JOSE SIERRA (SYNSTAR).
     S,P,D,L SHELL ROTATED AXIS INTEGRALS PROGRAMMED BY
        KAZUYA ISHIMURA (INSTITUTE FOR MOLECULAR SCIENCE).
     S,P,D,F,G SHELL TO TOTAL QUARTET ANGULAR MOMENTUM SUM 5,
        ERIC PROGRAM BY GRAHAM FLETCHER (ELORET AND NASA ADVANCED
        SUPERCOMPUTING DIVISION, AMES RESEARCH CENTER).
     S,P,D,F,G,L SHELL GENERAL RYS QUADRATURE PROGRAMMED BY
        MICHEL DUPUIS (PACIFIC NORTHWEST NATIONAL LABORATORY).

          --------------------
          2 ELECTRON INTEGRALS
          --------------------

 DIRECT SCF METHOD SKIPS INTEGRAL STORAGE ON DISK.
 DIRECT TRANSFORMATION SKIPS AO INTEGRAL STORAGE ON DISK.
  ...... END OF TWO-ELECTRON INTEGRALS .....
 CPU     0: STEP CPU TIME=     0.02 TOTAL CPU TIME=          0.1 (      0.0 MIN)
 TOTAL WALL CLOCK TIME=          0.1 SECONDS, CPU UTILIZATION IS    81.82%

          --------------------------
             R-B3LYP SCF CALCULATION
          --------------------------

     NUCLEAR ENERGY =       689.9800104740
     MAXIT =   60     NPUNCH=    2
     EXTRAP=T  DAMP=F  SHIFT=F  RSTRCT=F  DIIS=T  DEM=F  SOSCF=F
         DENSITY MATRIX CONVERGENCE THRESHOLD=  2.00E-05
     COARSE -> FINE DFT GRID SWITCH THRESHOLD=  3.00E-04 (SWITCH IN $DFT)
                   HF -> DFT SWITCH THRESHOLD=  5.00E-03 (SWOFF IN $DFT)
     MEMORY REQUIRED FOR RHF ITERS=   1185703 WORDS.

 DIRECT SCF CALCULATION, SCHWRZ=T   FDIFF=T,  DIRTHR=  0.00E+00 NITDIR=10
 SCHWARZ INEQUALITY OVERHEAD:      9150 INTEGRALS, T=        0.00

 DFT CODE IS SWITCHING FROM THE FINE GRID NRAD= 96,  NLEB=  302
                      TO THE COARSE GRID NRAD0= 24, NLEB0=  110

     EXCHANGE FUNCTIONAL   =B88&HFX   
     CORRELATION FUNCTIONAL=LYP88&VWN5
     DFT THRESHOLD         =.445E-08
     GRID CHANGE THRESHOLD =.300E-03
 FOR AN EULER-MACLAURIN QUADRATURE USING  96 RADIAL POINTS:
 SMALLEST GAUSSIAN PRIMITIVE EXPONENT=        0.1831915800 OF TYPE -S-
 ON ATOM NUMBER  12 HAS RADIAL NORMALIZATION=  1.000000
  LARGEST GAUSSIAN PRIMITIVE EXPONENT=      322.0370000000 OF TYPE -S-
 ON ATOM NUMBER  10 HAS RADIAL NORMALIZATION=  1.000000
 DFT IS SWITCHED OFF, PERFORMING PURE SCF UNTIL SWOFF THRESHOLD IS REACHED.

                                                                                   NONZERO     BLOCKS
 ITER EX DEM     TOTAL ENERGY        E CHANGE  DENSITY CHANGE    DIIS ERROR      INTEGRALS    SKIPPED
   1  0  0     -461.6641160993  -461.6641160993   0.672234489   0.505810175       28263942    1890997
          * * *   INITIATING DIIS PROCEDURE   * * *
   2  1  0     -462.5818529934    -0.9177368941   0.134120944   0.072412666       28141642    1936456
   3  2  0     -462.6233384680    -0.0414854747   0.067611163   0.018574254       27610876    2039940
   4  3  0     -462.6287041455    -0.0053656774   0.017443969   0.009072063       26908260    2150911
   5  4  0     -462.6293745501    -0.0006704046   0.004371223   0.002944964       26091610    2219861
 CONVERGED TO SWOFF, SO DFT CALCULATION IS NOW SWITCHED ON.
          * * *   INITIATING DIIS PROCEDURE   * * *
   6  5  0     -465.4368487575    -2.8074742074   0.075556143   0.073959096       28302132    1876039
   7  6  0     -465.4645384430    -0.0276896855   0.059359117   0.025899810       27838292    2014928
   8  7  0     -465.4674565025    -0.0029180594   0.035676306   0.021051783       27297173    2084817
   9  8  0     -465.4735579615    -0.0061014590   0.004873460   0.002512786       26837103    2147078
  10  9  0     -465.4735969885    -0.0000390270   0.000649914   0.000792976       24643950    2357024
  11 10  0     -465.4736005130    -0.0000035245   0.000187426   0.000127028       22923077    2484679
 DFT CODE IS SWITCHING BACK TO THE FINE GRID
          * * *   INITIATING DIIS PROCEDURE   * * *
  12 11  0     -465.4818766491    -0.0082761362   0.004630715   0.001399926       28327724    1865913
  13 12  0     -465.4819276354    -0.0000509863   0.000960530   0.000261129       25701172    2272329
  14 13  0     -465.4819277464    -0.0000001110   0.000393236   0.000332958       23067285    2472098
  15 14  0     -465.4819288572    -0.0000011108   0.000060865   0.000056105       22073077    2550445
  16 15  0     -465.4819288694    -0.0000000122   0.000029410   0.000024491       19540036    2714749
  17 16  0     -465.4819288728    -0.0000000034   0.000006269   0.000004763       17886555    2832339
  18 17  0     -465.4819288727     0.0000000001   0.000002967   0.000000707       15449759    2970693

          -----------------
          DENSITY CONVERGED
          -----------------
     TIME TO FORM FOCK OPERATORS=      55.3 SECONDS (       3.1 SEC/ITER)
     FOCK TIME ON FIRST ITERATION=       0.5, LAST ITERATION=       6.7
     TIME TO SOLVE SCF EQUATIONS=       0.5 SECONDS (       0.0 SEC/ITER)

 FINAL R-B3LYP ENERGY IS     -465.4819288727 AFTER  18 ITERATIONS
 DFT EXCHANGE + CORRELATION ENERGY =       -56.5167150896
 TOTAL ELECTRON NUMBER             =        87.9999621876

          ------------
          EIGENVECTORS
          ------------

                      1          2          3          4          5
                  -19.0116   -10.1577   -10.1119   -10.1096   -10.1080
                     A          A          A          A          A   
    1  C  1  S    0.000052  -0.003985   0.982819  -0.036916   0.074954
    2  C  1  S    0.000555  -0.001561   0.119366  -0.003632   0.007073
    3  C  1  X    0.000620  -0.001569   0.000269   0.000564   0.000066
    4  C  1  Y    0.000098   0.000902   0.000151  -0.000070  -0.000315
    5  C  1  Z   -0.000086  -0.000064  -0.000629   0.000513  -0.000183
    6  C  1  S    0.000308  -0.000358  -0.122671   0.001734   0.008829
    7  C  1  X   -0.002877   0.006685  -0.003767  -0.005711   0.008306
    8  C  1  Y   -0.003051   0.000812  -0.002208   0.001599  -0.011869
    9  C  1  Z   -0.000386   0.002074   0.009457  -0.001936  -0.005317
   10  C  2  S    0.000175  -0.008737  -0.081483  -0.100263   0.939323
   11  C  2  S    0.000515  -0.004727  -0.012334  -0.012992   0.110846
   12  C  2  X   -0.000860   0.000364  -0.000888  -0.001047   0.000252
   13  C  2  Y    0.000166  -0.000375   0.000354  -0.000423   0.000597
   14  C  2  Z   -0.000180  -0.000248   0.000209   0.000035   0.000021
   15  C  2  S   -0.004378   0.029659   0.033802   0.012586  -0.100159
   16  C  2  X    0.000164   0.016960  -0.008338   0.003132  -0.006141
   17  C  2  Y    0.000733   0.000638   0.013661   0.000585  -0.005158
   18  C  2  Z   -0.004570   0.005397   0.007037   0.000045  -0.004768
   19  C  3  S   -0.001025   0.987148   0.003271   0.005086   0.007383
   20  C  3  S   -0.004636   0.117237  -0.000906  -0.001914  -0.002338
   21  C  3  X    0.000265  -0.000698   0.001363   0.000697   0.000260
   22  C  3  Y   -0.001326   0.001020  -0.000303   0.000619  -0.000090
   23  C  3  Z    0.001006  -0.000048  -0.000192  -0.000245  -0.000260
   24  C  3  S    0.023016  -0.109528   0.001510   0.022660   0.025931
   25  C  3  X   -0.000382   0.006739  -0.002063   0.010405  -0.015027
   26  C  3  Y   -0.001412  -0.013111   0.000830   0.014057   0.002792
   27  C  3  Z    0.015113   0.003160   0.001338   0.003390  -0.001980
   28  C  4  S    0.000251  -0.007473   0.029081   0.971794   0.060061
   29  C  4  S    0.001111  -0.003695   0.004326   0.118461   0.006858
   30  C  4  X    0.000288   0.000143  -0.000707  -0.000468   0.001050
   31  C  4  Y    0.000999  -0.000337   0.000121  -0.000386   0.000550
   32  C  4  Z    0.000255  -0.000053  -0.000382   0.000479   0.000416
   33  C  4  S   -0.007626   0.024062  -0.004776  -0.123016  -0.013076
   34  C  4  X    0.000669  -0.011472   0.005834   0.000582  -0.009619
   35  C  4  Y    0.000952  -0.015852  -0.001094   0.003209   0.001379
   36  C  4  Z   -0.005572  -0.001817   0.001044  -0.008986  -0.002582
   37  C  5  S    0.000077  -0.005147  -0.013526  -0.026084   0.010212
   38  C  5  S    0.000771  -0.003155  -0.002992  -0.005862   0.002478
   39  C  5  X    0.000011  -0.000116   0.001151   0.000801   0.000325
   40  C  5  Y   -0.000519   0.001834   0.000372  -0.000273  -0.000218
   41  C  5  Z   -0.000198   0.000234  -0.000077  -0.000342   0.000306
   42  C  5  S    0.000152   0.006666   0.004554   0.027865  -0.006335
   43  C  5  X    0.002695  -0.001480  -0.001462   0.008126   0.003013
   44  C  5  Y    0.000060  -0.005254  -0.001773  -0.013983   0.002492
   45  C  5  Z    0.000129  -0.000655  -0.000235  -0.006486   0.000845
   46  C  6  S   -0.000129   0.002379  -0.032227  -0.016076  -0.045530
   47  C  6  S   -0.000661   0.001911  -0.006537  -0.002622  -0.007661
   48  C  6  X    0.000083   0.000083  -0.000799  -0.001037   0.000015
   49  C  6  Y   -0.000304  -0.000172  -0.000555   0.000152   0.001262
   50  C  6  Z   -0.000004  -0.000394   0.000014   0.000121   0.000638
   51  C  6  S    0.005122  -0.007166   0.029137   0.001592   0.012049
   52  C  6  X    0.000223  -0.003047  -0.008411   0.001771   0.000610
   53  C  6  Y   -0.000950   0.005105  -0.014530   0.000719  -0.005112
   54  C  6  Z    0.000617   0.000897  -0.001639   0.000123  -0.001991
   55  C  7  S    0.000004  -0.002758   0.004748  -0.136057  -0.282497
   56  C  7  S    0.000274  -0.001084   0.000926  -0.018995  -0.035168
   57  C  7  X   -0.000090   0.000838   0.000129  -0.000674   0.000183
   58  C  7  Y   -0.000126   0.000676  -0.000009   0.000096   0.000331
   59  C  7  Z   -0.000307   0.000073  -0.000019  -0.000106   0.000216
   60  C  7  S    0.001430   0.000467  -0.003502   0.039958   0.038987
   61  C  7  X   -0.001740  -0.003235   0.000991  -0.015796  -0.004307
   62  C  7  Y    0.001164  -0.001890   0.000001  -0.000042  -0.001455
   63  C  7  Z    0.001390   0.000034   0.000718  -0.002766  -0.002944
   64  C  8  S    0.000003  -0.000248  -0.000215  -0.006054   0.002861
   65  C  8  S    0.000150  -0.000008  -0.000109  -0.001207   0.000902
   66  C  8  X   -0.000353   0.000033  -0.000111   0.000683   0.000560
   67  C  8  Y    0.000057   0.000078   0.000059  -0.000471  -0.000374
   68  C  8  Z    0.000084  -0.000309  -0.000003   0.000013  -0.000124
   69  C  8  S    0.001149   0.000322   0.000996  -0.001577  -0.008799
   70  C  8  X    0.000928   0.001408   0.000134   0.001263   0.001488
   71  C  8  Y    0.000433  -0.000144   0.000068  -0.001136  -0.002731
   72  C  8  Z    0.000112   0.001068   0.000159  -0.001561  -0.002094
   73  C  9  S    0.000027  -0.002171  -0.000233  -0.008369   0.003510
   74  C  9  S    0.000189  -0.001578  -0.000110  -0.001808   0.000864
   75  C  9  X   -0.000109   0.000506  -0.000093   0.000839   0.000187
   76  C  9  Y   -0.000036   0.000057  -0.000064   0.000351   0.000241
   77  C  9  Z    0.000062   0.000068  -0.000023   0.000236  -0.000020
   78  C  9  S   -0.000362   0.004679   0.000881  -0.000024  -0.006175
   79  C  9  X    0.000874  -0.003256   0.000081   0.000214   0.001935
   80  C  9  Y    0.000075  -0.001305   0.000038   0.001426   0.002839
   81  C  9  Z   -0.000671  -0.000188   0.000092  -0.001103   0.000231
   82  O 10  S    0.982525  -0.000207   0.000055   0.000075   0.000025
   83  O 10  S    0.105403  -0.001319   0.000526   0.000297  -0.000135
   84  O 10  X   -0.001629   0.000037  -0.000255  -0.000236   0.000245
   85  O 10  Y   -0.001056  -0.000287   0.000084  -0.000672  -0.000106
   86  O 10  Z   -0.003233  -0.000349  -0.000114   0.000221   0.000226
   87  O 10  S   -0.052165   0.011900  -0.001397  -0.002997  -0.001281
   88  O 10  X    0.003735  -0.000927   0.001099   0.000557   0.000389
   89  O 10  Y    0.000198   0.003920  -0.000502   0.001223  -0.000333
   90  O 10  Z    0.010608  -0.003829   0.000685   0.000491   0.000562
   91  C 11  S    0.000054  -0.002277  -0.024081   0.004888  -0.024249
   92  C 11  S    0.000327  -0.001652  -0.005271   0.001102  -0.004203
   93  C 11  X   -0.000050  -0.000206   0.000901  -0.000111  -0.000525
   94  C 11  Y   -0.000047   0.000320  -0.000090  -0.000020   0.000470
   95  C 11  Z    0.000040   0.000192   0.000140  -0.000058   0.000265
   96  C 11  S   -0.002029   0.006543   0.027839  -0.004986   0.007302
   97  C 11  X   -0.000749   0.004081   0.013687  -0.002147   0.002376
   98  C 11  Y    0.001103  -0.002307  -0.000537   0.000117  -0.000387
   99  C 11  Z   -0.000720  -0.000175   0.002824  -0.000433  -0.000162
  100  H 12  S   -0.000265  -0.000537   0.001731   0.000849  -0.001291
  101  H 12  S    0.000273  -0.000608   0.015800  -0.000243   0.002164
  102  H 13  S    0.000999  -0.001215  -0.001103  -0.000281   0.000603
  103  H 13  S   -0.000675   0.000754  -0.000191   0.000142   0.013947
  104  H 14  S   -0.000650  -0.001706  -0.001881  -0.000130   0.001034
  105  H 14  S   -0.000015   0.000966  -0.001011  -0.003155   0.015932
  106  H 15  S   -0.001295   0.000594  -0.000243  -0.001232  -0.001125
  107  H 15  S    0.000659   0.015720   0.002516   0.001781   0.001449
  108  H 16  S   -0.000586  -0.001676   0.000733   0.001825   0.000220
  109  H 16  S    0.000002   0.000814   0.000824   0.015880  -0.000414
  110  H 17  S   -0.000119  -0.000930  -0.000158  -0.001930   0.000638
  111  H 17  S    0.000369  -0.000868  -0.001642  -0.000093   0.000355
  112  H 18  S   -0.000078  -0.000046  -0.000373  -0.001158  -0.000213
  113  H 18  S   -0.000715   0.002912   0.002201   0.001480   0.000041
  114  H 19  S   -0.000165   0.000838  -0.001816   0.000166  -0.000734
  115  H 19  S   -0.000273  -0.000325  -0.000272  -0.001396  -0.002160
  116  H 20  S   -0.000295  -0.000124  -0.001121  -0.000276  -0.000266
  117  H 20  S   -0.000301  -0.001552   0.000211   0.001210   0.001985
  118  H 21  S   -0.000599  -0.000179   0.000049  -0.002032  -0.000931
  119  H 21  S    0.000337  -0.000448   0.000157  -0.002186  -0.004700
  120  H 22  S   -0.000082   0.000526   0.000021   0.000113   0.000445
  121  H 22  S    0.000085  -0.000414  -0.000171  -0.001299  -0.000259
  122  H 23  S   -0.000143  -0.000238  -0.000070  -0.000126   0.000425
  123  H 23  S   -0.000549  -0.000670  -0.000275   0.000987   0.000871
  124  H 24  S    0.000243   0.000025   0.000089   0.000646   0.000236
  125  H 24  S   -0.000471  -0.000656  -0.000464  -0.001897   0.000853
  126  H 25  S    0.000068  -0.000502  -0.000019   0.000087   0.000385
  127  H 25  S   -0.000498  -0.000171  -0.000095  -0.001857   0.000233
  128  H 26  S    0.000210  -0.000389   0.000102   0.000368   0.000422
  129  H 26  S    0.000118  -0.000856  -0.000615  -0.001700  -0.000483
  130  H 27  S   -0.000029  -0.000086  -0.000052  -0.000117   0.000215
  131  H 27  S   -0.000210   0.001242  -0.000226   0.001350   0.000162
  132  H 28  S    0.003133  -0.000199   0.000602   0.000855  -0.000414
  133  H 28  S    0.005889   0.002609  -0.000925   0.001343   0.000191
  134  H 29  S    0.000178  -0.000697  -0.001180   0.000209  -0.000097
  135  H 29  S    0.000548  -0.000176  -0.000276   0.000081  -0.001636
  136  H 30  S    0.000046  -0.000063  -0.001203   0.000258  -0.000400
  137  H 30  S   -0.000062   0.001153  -0.000559  -0.000153   0.001006
  138  H 31  S    0.000092  -0.000542  -0.001659   0.000097  -0.000270
  139  H 31  S   -0.000465  -0.000106  -0.000377   0.000615  -0.001634

                      6          7          8          9         10
                  -10.1076   -10.1023   -10.1005   -10.0984   -10.0940
                     A          A          A          A          A   
    1  C  1  S    0.011427   0.030713   0.027924   0.016676  -0.000018
    2  C  1  S    0.001381   0.001738   0.001658   0.000468   0.000007
    3  C  1  X    0.000095   0.000099   0.000403  -0.001102   0.000047
    4  C  1  Y   -0.000054   0.000427   0.000056  -0.000555  -0.000057
    5  C  1  Z   -0.000131   0.000023   0.000067  -0.000466   0.000001
    6  C  1  S    0.000526   0.014760   0.016011   0.002487   0.000215
    7  C  1  X   -0.000256   0.009779  -0.012635   0.005047  -0.000340
    8  C  1  Y   -0.004707   0.012677   0.001454   0.000144  -0.000103
    9  C  1  Z   -0.000041   0.002178  -0.002150   0.001542  -0.000110
   10  C  2  S    0.268123   0.046519   0.028824  -0.001952   0.001338
   11  C  2  S    0.030456   0.002875   0.001811   0.000599   0.000045
   12  C  2  X   -0.000580  -0.000030   0.001127  -0.000064  -0.000199
   13  C  2  Y   -0.000045  -0.001482  -0.000521   0.000058   0.000029
   14  C  2  Z    0.000238  -0.000179   0.000243  -0.000210   0.000016
   15  C  2  S   -0.024277   0.003235  -0.000942  -0.004287   0.000337
   16  C  2  X    0.001619   0.001695  -0.005375  -0.002260   0.000726
   17  C  2  Y    0.000823   0.005473   0.002428  -0.003048  -0.000514
   18  C  2  Z   -0.002606   0.001117  -0.001950  -0.002213  -0.000152
   19  C  3  S    0.005686  -0.001745   0.001678   0.004646   0.001758
   20  C  3  S   -0.001427   0.001552  -0.001031  -0.002319  -0.001213
   21  C  3  X   -0.000503  -0.000070   0.000438   0.000053  -0.000153
   22  C  3  Y   -0.000205   0.000202   0.000012  -0.001550  -0.000134
   23  C  3  Z   -0.000574   0.000444  -0.000005  -0.000723  -0.000186
   24  C  3  S    0.010363  -0.006965   0.006323   0.008268   0.006246
   25  C  3  X   -0.002246   0.002346  -0.004172  -0.000435   0.002881
   26  C  3  Y    0.002424  -0.004340   0.000702   0.005436   0.002877
   27  C  3  Z    0.002880  -0.002068   0.000245   0.003915   0.001157
   28  C  4  S    0.156884   0.022510  -0.000607   0.029580   0.008924
   29  C  4  S    0.016078   0.001466   0.000284   0.001433   0.000096
   30  C  4  X    0.000349   0.001225   0.000213   0.000151  -0.000796
   31  C  4  Y    0.000276  -0.000711  -0.000032   0.000116  -0.001126
   32  C  4  Z    0.000381   0.000099   0.000049   0.000147  -0.000074
   33  C  4  S    0.006142  -0.001665  -0.003712   0.015208   0.000157
   34  C  4  X    0.016556  -0.004738   0.001592  -0.008910   0.003554
   35  C  4  Y   -0.001180  -0.001664  -0.000807   0.013445   0.005676
   36  C  4  Z   -0.000417  -0.002035  -0.001621   0.005152   0.000042
   37  C  5  S   -0.017453  -0.094323  -0.068914   0.979146  -0.002046
   38  C  5  S   -0.002913  -0.013936  -0.009639   0.115308   0.000166
   39  C  5  X   -0.000514  -0.000114   0.000388  -0.000342  -0.000042
   40  C  5  Y    0.000181   0.000236   0.000102  -0.000480  -0.000139
   41  C  5  Z   -0.000273   0.000094  -0.000006  -0.000315   0.000151
   42  C  5  S    0.004580   0.034321   0.015910  -0.103229  -0.001649
   43  C  5  X    0.004192  -0.014991  -0.005109   0.003268  -0.002002
   44  C  5  Y   -0.002098  -0.000099  -0.001431   0.004952   0.000874
   45  C  5  Z    0.001512  -0.004216  -0.001374   0.006024   0.000483
   46  C  6  S   -0.037039   0.975093   0.093437   0.098539   0.002230
   47  C  6  S   -0.006317   0.115033   0.009834   0.008498   0.000108
   48  C  6  X   -0.000628   0.000092   0.001121   0.000297  -0.000088
   49  C  6  Y    0.000517  -0.000542   0.000146   0.000202   0.000066
   50  C  6  Z    0.000398  -0.000202   0.000430   0.000142   0.000034
   51  C  6  S    0.010554  -0.105923  -0.009950   0.015108  -0.000437
   52  C  6  X    0.003013  -0.005861  -0.006656   0.014486   0.000042
   53  C  6  Y   -0.003584   0.007777   0.000273  -0.001521  -0.000543
   54  C  6  Z   -0.002121  -0.001965  -0.002950   0.002551  -0.000534
   55  C  7  S    0.935575   0.017796   0.002662   0.017357   0.015251
   56  C  7  S    0.112617   0.001121   0.000086   0.000968   0.000863
   57  C  7  X    0.000065   0.000214   0.000154   0.000690   0.000040
   58  C  7  Y    0.000276  -0.000302   0.000031  -0.000566  -0.000117
   59  C  7  Z   -0.000634  -0.000082  -0.000119  -0.000280  -0.000107
   60  C  7  S   -0.109488   0.002376   0.000006   0.000493   0.008975
   61  C  7  X   -0.003136  -0.003857  -0.001398  -0.003423   0.004646
   62  C  7  Y   -0.002265   0.002089  -0.000061   0.002133   0.013459
   63  C  7  Z    0.008009   0.000205   0.001073   0.001029   0.002041
   64  C  8  S   -0.020644  -0.002101  -0.000700  -0.022230  -0.234447
   65  C  8  S   -0.005123  -0.000425  -0.000136  -0.003741  -0.028857
   66  C  8  X   -0.000182   0.000000   0.000022   0.000381  -0.000319
   67  C  8  Y    0.000635   0.000026   0.000018  -0.000182  -0.001262
   68  C  8  Z    0.000361  -0.000041   0.000002   0.000017   0.000097
   69  C  8  S    0.027374   0.001852   0.000621   0.006247   0.026929
   70  C  8  X   -0.007272  -0.000066  -0.000017  -0.002565   0.000179
   71  C  8  Y    0.011130   0.000597   0.000475   0.001713   0.005296
   72  C  8  Z    0.005035   0.000912   0.000043   0.000493  -0.000228
   73  C  9  S   -0.022162  -0.003525  -0.000946  -0.004012   0.957991
   74  C  9  S   -0.005375  -0.000528  -0.000175  -0.000422   0.109722
   75  C  9  X   -0.000323   0.000381   0.000042  -0.000036   0.000050
   76  C  9  Y   -0.000732   0.000163   0.000013  -0.000102  -0.000421
   77  C  9  Z    0.000050   0.000050   0.000016  -0.000351  -0.000286
   78  C  9  S    0.028325  -0.000566   0.000460   0.001153  -0.088403
   79  C  9  X   -0.007504  -0.000602  -0.000108   0.001493   0.001727
   80  C  9  Y   -0.012275  -0.000657  -0.000532   0.000701   0.004476
   81  C  9  Z    0.000441  -0.000622  -0.000307   0.001447   0.000282
   82  O 10  S    0.000072  -0.000047   0.000023   0.000092   0.000029
   83  O 10  S    0.000449  -0.000348   0.000154   0.000772   0.000159
   84  O 10  X    0.000008  -0.000004  -0.000024   0.000007  -0.000113
   85  O 10  Y   -0.000017  -0.000051   0.000001   0.000225  -0.000062
   86  O 10  Z    0.000138   0.000049   0.000001  -0.000038   0.000012
   87  O 10  S   -0.002673   0.001668  -0.000863  -0.003078  -0.001150
   88  O 10  X    0.000063  -0.000245   0.000390   0.000103   0.000244
   89  O 10  Y   -0.000702   0.000825  -0.000166  -0.001752  -0.000125
   90  O 10  Z    0.000666  -0.000675   0.000391   0.001027   0.000435
   91  C 11  S   -0.008536  -0.102111   0.978643   0.058534   0.000310
   92  C 11  S   -0.001492  -0.013088   0.111532   0.005385   0.000032
   93  C 11  X   -0.000232  -0.000637   0.000152  -0.000281  -0.000024
   94  C 11  Y    0.000133  -0.000492   0.000007  -0.000374   0.000021
   95  C 11  Z    0.000158   0.000016  -0.000137  -0.000057   0.000010
   96  C 11  S    0.001876   0.013575  -0.089396  -0.000036  -0.000219
   97  C 11  X    0.000970   0.002280  -0.004939   0.003256  -0.000069
   98  C 11  Y    0.000230   0.000213   0.000236   0.001844  -0.000091
   99  C 11  Z   -0.001040  -0.000338  -0.001063   0.000765  -0.000138
  100  H 12  S   -0.000335  -0.001420  -0.001363  -0.000587   0.000004
  101  H 12  S   -0.000073   0.001269   0.001587  -0.001009   0.000021
  102  H 13  S    0.000258  -0.000134  -0.000168  -0.000162  -0.000082
  103  H 13  S    0.005354   0.003874  -0.000368  -0.000752   0.000188
  104  H 14  S   -0.000374  -0.000716  -0.000633   0.000483  -0.000084
  105  H 14  S    0.003599  -0.000539  -0.001207  -0.000812   0.000130
  106  H 15  S    0.000080  -0.000154  -0.000212  -0.000061  -0.000271
  107  H 15  S   -0.000556  -0.001214   0.000611   0.002887  -0.000136
  108  H 16  S   -0.001686  -0.000197   0.000068  -0.001649  -0.000391
  109  H 16  S    0.002359  -0.001137  -0.000233   0.001292  -0.000839
  110  H 17  S   -0.000319  -0.001626  -0.000670   0.000760   0.000382
  111  H 17  S   -0.002300  -0.000902  -0.001330   0.016162  -0.000444
  112  H 18  S    0.000002  -0.001057  -0.000327   0.000366   0.000255
  113  H 18  S   -0.001457  -0.001217  -0.000423   0.016510  -0.000772
  114  H 19  S   -0.000782   0.001132  -0.000383  -0.001625  -0.000074
  115  H 19  S   -0.001669   0.016095  -0.000062   0.002112  -0.000053
  116  H 20  S   -0.000093   0.000772  -0.000068  -0.000990   0.000075
  117  H 20  S    0.001626   0.015011   0.000269   0.002369   0.000333
  118  H 21  S    0.001118  -0.000414  -0.000233  -0.000152  -0.000953
  119  H 21  S    0.015254   0.000478  -0.000284  -0.000915   0.000931
  120  H 22  S   -0.001670  -0.000060  -0.000003  -0.000489  -0.000653
  121  H 22  S   -0.000496   0.000344  -0.000149  -0.000392  -0.005439
  122  H 23  S   -0.001204  -0.000148  -0.000038  -0.000163  -0.000480
  123  H 23  S   -0.000016  -0.000106  -0.000015   0.000684  -0.005327
  124  H 24  S   -0.001352  -0.000009  -0.000036  -0.000231   0.000009
  125  H 24  S    0.000095  -0.000234   0.000277  -0.001014  -0.001440
  126  H 25  S   -0.001671  -0.000093  -0.000041   0.000365   0.000163
  127  H 25  S   -0.000443  -0.000072  -0.000133   0.000028   0.015897
  128  H 26  S   -0.001301  -0.000200  -0.000057   0.000373  -0.000291
  129  H 26  S   -0.000217   0.001197   0.000479  -0.002615   0.015094
  130  H 27  S   -0.001282   0.000068  -0.000017  -0.000271   0.000075
  131  H 27  S   -0.000228   0.000650   0.000054  -0.000763   0.015720
  132  H 28  S   -0.000029   0.000102   0.000018  -0.000093   0.000113
  133  H 28  S   -0.000038  -0.000119   0.000043  -0.000189   0.000237
  134  H 29  S    0.000029  -0.000377  -0.000086  -0.000082   0.000001
  135  H 29  S   -0.000271  -0.000350   0.015394   0.002161  -0.000043
  136  H 30  S   -0.000070  -0.000010  -0.000040  -0.000597   0.000019
  137  H 30  S    0.000519  -0.002662   0.015250   0.000776   0.000091
  138  H 31  S   -0.000230  -0.000215   0.000043  -0.000479   0.000000
  139  H 31  S   -0.000860  -0.003210   0.015803   0.000804  -0.000044

                     11         12         13         14         15
                  -10.0929    -1.0047    -0.8257    -0.7901    -0.7356
                     A          A          A          A          A   
    1  C  1  S    0.000472  -0.006611  -0.098222   0.096400   0.071766
    2  C  1  S    0.000055   0.006107   0.091647  -0.088700  -0.063893
    3  C  1  X   -0.000015   0.003594   0.021249   0.002714   0.051711
    4  C  1  Y   -0.000016  -0.003496   0.005808  -0.000761   0.021211
    5  C  1  Z    0.000071  -0.000487  -0.014770   0.014064   0.015987
    6  C  1  S   -0.000120   0.006899   0.235708  -0.245698  -0.202848
    7  C  1  X   -0.000317   0.007741  -0.003576   0.006264   0.004444
    8  C  1  Y    0.000263   0.010732   0.001484  -0.003010  -0.002347
    9  C  1  Z   -0.000365  -0.001515  -0.011461   0.012960   0.011171
   10  C  2  S    0.002668  -0.020246  -0.080820   0.060108   0.030474
   11  C  2  S   -0.000098   0.019426   0.081641  -0.056926  -0.028840
   12  C  2  X   -0.000147   0.016814   0.005848   0.023202   0.042895
   13  C  2  Y   -0.000045  -0.003657   0.028445  -0.019791  -0.007448
   14  C  2  Z   -0.000052   0.010479   0.014832  -0.013710  -0.005638
   15  C  2  S    0.001444   0.027438   0.172977  -0.149949  -0.083669
   16  C  2  X    0.001225  -0.012788   0.004519  -0.014976  -0.000003
   17  C  2  Y   -0.000006  -0.005849   0.000134   0.005663   0.012879
   18  C  2  Z    0.000523   0.019517  -0.000761  -0.003728  -0.004638
   19  C  3  S    0.000970  -0.081007  -0.059512  -0.009928  -0.036076
   20  C  3  S   -0.000321   0.084662   0.062017   0.010662   0.034014
   21  C  3  X   -0.000558   0.001148  -0.012242   0.046671   0.018622
   22  C  3  Y   -0.000185  -0.031379   0.047152   0.018272   0.035713
   23  C  3  Z    0.000196   0.075512  -0.025365   0.002204  -0.001915
   24  C  3  S    0.000834   0.145068   0.118642   0.023248   0.103346
   25  C  3  X    0.002091  -0.006249  -0.004386  -0.007154  -0.015550
   26  C  3  Y    0.001325  -0.001386   0.004926  -0.007369   0.009517
   27  C  3  Z    0.000468  -0.028768  -0.015242  -0.008955  -0.008390
   28  C  4  S    0.012154  -0.019476  -0.094602  -0.078724  -0.070012
   29  C  4  S    0.000209   0.015502   0.090573   0.074042   0.062678
   30  C  4  X   -0.001113  -0.008175  -0.015595   0.043984  -0.061446
   31  C  4  Y    0.000501  -0.016170   0.001013  -0.002853   0.018415
   32  C  4  Z    0.000492   0.004376   0.008075   0.007231   0.011041
   33  C  4  S   -0.000791   0.043113   0.221929   0.194911   0.200990
   34  C  4  X    0.004589   0.005365  -0.005933  -0.008630   0.008081
   35  C  4  Y   -0.000688   0.003832  -0.004439  -0.006414  -0.002415
   36  C  4  Z   -0.003207   0.027913   0.002255   0.008723   0.002423
   37  C  5  S    0.021069  -0.006063  -0.083555  -0.015588  -0.107732
   38  C  5  S    0.001321   0.006418   0.083434   0.015659   0.100281
   39  C  5  X   -0.000329   0.000608  -0.011798   0.037982  -0.004623
   40  C  5  Y    0.000070  -0.004435  -0.023049  -0.012901  -0.012944
   41  C  5  Z    0.000034  -0.001012  -0.020295  -0.005333  -0.016589
   42  C  5  S    0.002521   0.000357   0.177690   0.035493   0.293254
   43  C  5  X    0.002888  -0.011663   0.000742  -0.004807  -0.010894
   44  C  5  Y   -0.002150   0.001487   0.003899   0.010642   0.001984
   45  C  5  Z   -0.000616  -0.002293  -0.003622  -0.001347  -0.007137
   46  C  6  S    0.004218  -0.002987  -0.086573   0.050734  -0.041556
   47  C  6  S    0.000166   0.005009   0.086111  -0.048944   0.037469
   48  C  6  X   -0.000201   0.001315   0.010781   0.024778   0.062123
   49  C  6  Y    0.000033  -0.002418  -0.032202   0.025418   0.018125
   50  C  6  Z   -0.000037   0.000439   0.001355   0.001790   0.010932
   51  C  6  S    0.001041  -0.009137   0.186549  -0.120678   0.114032
   52  C  6  X    0.001339  -0.000663   0.004638  -0.011691   0.001600
   53  C  6  Y    0.000017   0.003552  -0.003237  -0.001583  -0.009238
   54  C  6  Z    0.000567  -0.003099   0.005108  -0.004581  -0.005313
   55  C  7  S    0.023710  -0.005756  -0.060739  -0.123500   0.068777
   56  C  7  S    0.001114   0.006220   0.058680   0.113600  -0.060009
   57  C  7  X   -0.000077  -0.004069  -0.018686   0.000462  -0.059262
   58  C  7  Y    0.000056  -0.000841   0.003067   0.003859   0.004681
   59  C  7  Z   -0.000028   0.000388  -0.008909  -0.017059   0.010275
   60  C  7  S    0.016396  -0.003053   0.139217   0.310527  -0.202753
   61  C  7  X    0.007116   0.004696   0.016699   0.005187  -0.000411
   62  C  7  Y   -0.008111  -0.011387   0.006750   0.005994  -0.001169
   63  C  7  Z   -0.003694  -0.006201  -0.006840  -0.013213   0.010474
   64  C  8  S    0.957548  -0.002006  -0.028939  -0.075992   0.078447
   65  C  8  S    0.108618   0.003269   0.030777   0.077347  -0.076879
   66  C  8  X   -0.000098  -0.001190  -0.011157  -0.018327   0.002009
   67  C  8  Y   -0.000094   0.000138   0.013722   0.030791  -0.021635
   68  C  8  Z   -0.000053   0.000702   0.006165   0.014821  -0.011113
   69  C  8  S   -0.085817  -0.008082   0.055203   0.166221  -0.200044
   70  C  8  X    0.002026  -0.000891  -0.000561   0.000469  -0.004993
   71  C  8  Y   -0.002450   0.001179  -0.007362  -0.005265  -0.001288
   72  C  8  Z   -0.002100  -0.002548  -0.001009   0.001359  -0.002825
   73  C  9  S    0.233404  -0.001018  -0.030007  -0.076426   0.071248
   74  C  9  S    0.024502   0.000676   0.032640   0.078189  -0.070221
   75  C  9  X   -0.000269  -0.000893  -0.012083  -0.019411   0.000239
   76  C  9  Y    0.001066  -0.001011  -0.014278  -0.033362   0.024826
   77  C  9  Z    0.000493  -0.000041   0.000651   0.001293  -0.000183
   78  C  9  S   -0.015900   0.006517   0.050734   0.164354  -0.181005
   79  C  9  X    0.001031  -0.002358   0.001389   0.002134  -0.007978
   80  C  9  Y   -0.002891  -0.001393   0.006892   0.005118   0.000385
   81  C  9  Z   -0.002222   0.002481  -0.000103   0.002565  -0.003205
   82  O 10  S    0.000018  -0.215797   0.047033   0.004175   0.011824
   83  O 10  S    0.000225   0.201693  -0.044913  -0.004356  -0.010838
   84  O 10  X    0.000242  -0.052244   0.014846   0.012897   0.009623
   85  O 10  Y    0.000029  -0.044499   0.038012   0.011081   0.025078
   86  O 10  Z   -0.000073  -0.076943  -0.007368  -0.003857  -0.011819
   87  O 10  S   -0.000463   0.662752  -0.157841  -0.012358  -0.044158
   88  O 10  X   -0.000875  -0.051315   0.013322   0.013292   0.008935
   89  O 10  Y   -0.000226  -0.036762   0.028232   0.008490   0.017466
   90  O 10  Z    0.000313  -0.091667   0.003255  -0.002037  -0.005280
   91  C 11  S    0.001815  -0.001045  -0.045808   0.062720   0.096119
   92  C 11  S    0.000085   0.001332   0.049261  -0.063498  -0.092831
   93  C 11  X   -0.000064   0.001622   0.028515  -0.029655  -0.022429
   94  C 11  Y   -0.000004  -0.000458  -0.001285   0.002373   0.006461
   95  C 11  Z    0.000009   0.000028   0.005337  -0.006864  -0.006384
   96  C 11  S   -0.000082   0.004396   0.084353  -0.136192  -0.252094
   97  C 11  X    0.000130  -0.000964  -0.009959   0.003048  -0.004152
   98  C 11  Y    0.000006  -0.001513  -0.000374   0.000813   0.002744
   99  C 11  Z   -0.000070   0.002589   0.001209   0.000000  -0.001897
  100  H 12  S    0.000094   0.003287   0.042127  -0.043286  -0.033732
  101  H 12  S    0.000120   0.006417  -0.006074   0.002380  -0.000451
  102  H 13  S   -0.000132   0.005584   0.032217  -0.028037  -0.021153
  103  H 13  S    0.000370  -0.000891  -0.007175  -0.002890  -0.005020
  104  H 14  S   -0.000092   0.007727   0.038342  -0.027921  -0.016186
  105  H 14  S    0.000166   0.002196   0.000490  -0.000376  -0.002435
  106  H 15  S   -0.000258   0.023775   0.025309   0.008329   0.013408
  107  H 15  S   -0.000114  -0.014512  -0.008653   0.004610  -0.005529
  108  H 16  S   -0.000410   0.007384   0.044043   0.037568   0.033938
  109  H 16  S   -0.001852   0.002470  -0.002769   0.000199  -0.004026
  110  H 17  S   -0.000360   0.002692   0.036612   0.008076   0.051596
  111  H 17  S    0.000011   0.006464  -0.002938   0.002024  -0.003173
  112  H 18  S   -0.000250   0.002166   0.034312   0.010323   0.051821
  113  H 18  S   -0.000239   0.001065  -0.008647   0.004476  -0.003022
  114  H 19  S   -0.000106   0.001169   0.039078  -0.023857   0.018404
  115  H 19  S    0.000354  -0.000225   0.001380  -0.000716  -0.001742
  116  H 20  S   -0.000142   0.001555   0.034388  -0.022947   0.017944
  117  H 20  S    0.000373  -0.000387  -0.006773  -0.001743   0.000667
  118  H 21  S   -0.001526   0.002850   0.027167   0.054661  -0.030782
  119  H 21  S    0.001517   0.008009  -0.004316  -0.004736   0.002207
  120  H 22  S   -0.000202   0.000890   0.013527   0.036109  -0.039379
  121  H 22  S    0.015110   0.000016   0.001972   0.002907  -0.003173
  122  H 23  S   -0.000150   0.001237   0.012261   0.034809  -0.042506
  123  H 23  S    0.014936   0.001147  -0.001661   0.000166  -0.006092
  124  H 24  S   -0.000195   0.000716   0.012676   0.033412  -0.036613
  125  H 24  S    0.015721   0.010575  -0.002722  -0.002309   0.002903
  126  H 25  S   -0.000649   0.000361   0.014084   0.036372  -0.036309
  127  H 25  S    0.002323   0.000727   0.001694   0.003179  -0.002623
  128  H 26  S   -0.000150  -0.000130   0.013801   0.034119  -0.031369
  129  H 26  S    0.006155  -0.000410   0.002666  -0.001739   0.007946
  130  H 27  S   -0.000472   0.000268   0.012836   0.035038  -0.039402
  131  H 27  S    0.002107  -0.000660  -0.001591  -0.000138  -0.005203
  132  H 28  S    0.000030   0.115654  -0.042574  -0.010178  -0.020733
  133  H 28  S   -0.000303   0.023096  -0.017536  -0.006370  -0.013346
  134  H 29  S   -0.000019   0.000377   0.019610  -0.028460  -0.049889
  135  H 29  S    0.000082  -0.001711  -0.002609   0.000039  -0.006295
  136  H 30  S   -0.000012   0.000251   0.019666  -0.028219  -0.047256
  137  H 30  S    0.000074  -0.001488  -0.002540   0.000017  -0.003019
  138  H 31  S   -0.000040   0.000583   0.021849  -0.029694  -0.048479
  139  H 31  S   -0.000006   0.001068   0.002668  -0.002443  -0.004308

                     16         17         18         19         20
                   -0.7268    -0.6698    -0.6673    -0.6028    -0.5901
                     A          A          A          A          A   
    1  C  1  S    0.024300  -0.004596   0.011813   0.013423  -0.094057
    2  C  1  S   -0.022092   0.004725  -0.011396  -0.010991   0.082121
    3  C  1  X    0.020866   0.056446  -0.090276  -0.008809   0.038313
    4  C  1  Y   -0.071172  -0.020540  -0.011877  -0.106794  -0.013143
    5  C  1  Z   -0.021285  -0.004847  -0.005522  -0.030332   0.022537
    6  C  1  S   -0.065436   0.012804  -0.036008  -0.051805   0.336660
    7  C  1  X   -0.002302   0.005332  -0.009051  -0.002831   0.022105
    8  C  1  Y   -0.004262  -0.002897  -0.003559  -0.033145  -0.002933
    9  C  1  Z    0.002507  -0.004574   0.003743  -0.010759   0.001893
   10  C  2  S   -0.118391  -0.065018   0.050521  -0.084172   0.004089
   11  C  2  S    0.111570   0.058376  -0.044901   0.070708  -0.003984
   12  C  2  X    0.049850  -0.000667  -0.003368  -0.069238  -0.072805
   13  C  2  Y   -0.023579  -0.006338  -0.001906  -0.023773   0.061446
   14  C  2  Z   -0.004975   0.000068  -0.002885  -0.018729   0.034317
   15  C  2  S    0.322333   0.204233  -0.164172   0.316796  -0.015908
   16  C  2  X   -0.000412   0.006274  -0.012010  -0.011090  -0.016456
   17  C  2  Y    0.000832  -0.001073   0.002001  -0.001840   0.013572
   18  C  2  Z   -0.006797   0.003631  -0.002792   0.006819   0.021842
   19  C  3  S   -0.116162   0.013418  -0.012983   0.094290   0.068104
   20  C  3  S    0.110753  -0.012057   0.014538  -0.084102  -0.061402
   21  C  3  X   -0.037262  -0.065599   0.050589  -0.081572   0.025274
   22  C  3  Y    0.014524  -0.020791   0.031257   0.007037   0.055780
   23  C  3  Z   -0.050398  -0.008155   0.011825  -0.001761   0.030218
   24  C  3  S    0.316468  -0.048396   0.032974  -0.347941  -0.247838
   25  C  3  X   -0.010755  -0.022281   0.004652  -0.018794   0.021567
   26  C  3  Y    0.009070  -0.008206   0.002130  -0.017427   0.022697
   27  C  3  Z   -0.030614  -0.000463  -0.008901   0.007766   0.021994
   28  C  4  S   -0.027491   0.048938  -0.080528  -0.002176  -0.061951
   29  C  4  S    0.026209  -0.042710   0.070577   0.000233   0.053722
   30  C  4  X   -0.019025  -0.002399   0.006226   0.005168   0.081254
[...]
   1930    9.95911   -5.83956   -0.46230        -8.151990       8.149227      -0.002764
   1931   10.88566   -4.94294    0.45281        -7.906736       7.904780      -0.001956
   1932   11.45123   -3.46225    1.36793        -7.899276       7.897944      -0.001332
   1933    9.40497   -5.85805    1.01838        -8.406990       8.403443      -0.003547
   1934   10.19322   -4.60005    2.15618        -8.243932       8.240935      -0.002997
   1935    8.48985   -5.29248    2.49907        -8.971387       8.965847      -0.005541
   1936   11.45123   -0.50088    1.36793        -8.410001       8.409456      -0.000544
   1937   11.81153   -0.36326   -0.46230        -8.249420       8.248676      -0.000744
   1938   12.01680   -1.98157    0.45281        -7.898313       7.897691      -0.000622
   1939   11.45123   -0.50088   -2.29253        -8.326480       8.324482      -0.001999
   1940   12.01680   -1.98157   -1.37742        -7.870942       7.869909      -0.001033
   1941   11.43273   -1.98157   -2.84667        -8.063307       8.061305      -0.002003
   1942   10.88566   -4.94294   -1.37742        -7.888116       7.886109      -0.002007
   1943   11.45123   -3.46225   -2.29253        -7.855433       7.853723      -0.001710
   1944   11.81153   -3.59988   -0.46230        -7.733212       7.732154      -0.001059
   1945   10.53611   -2.89668   -3.77322        -8.270539       8.267697      -0.002842
   1946   10.19322   -4.60005   -3.08078        -8.184278       8.181443      -0.002834
   1947   10.53611   -1.06645   -3.77322        -8.581559       8.578324      -0.003236
   1948    4.78010   -6.17329    3.25455       -10.258966      10.249278      -0.009688
   1949    6.26079   -5.61915    3.27304        -9.853741       9.844763      -0.008979
   1950    7.16447   -7.64691   -0.60345        -8.640843       8.639014      -0.001829
   1951    6.61033   -7.66541    0.87724        -8.833166       8.830915      -0.002251
   1952    7.39858   -6.40740    2.01503        -9.108612       9.103362      -0.005249
   1953    5.69521   -7.09984    2.35793        -9.394794       9.390280      -0.004514
   1954    5.69521   -7.09984   -3.56482        -9.070112       9.069754      -0.000358
   1955    6.61033   -7.66541   -2.08413        -8.707838       8.706917      -0.000921
   1956    2.39573   -7.64691   -0.60345       -10.512347      10.519446       0.007100
   1957    3.86499   -7.09984   -3.56482        -9.696646       9.699116       0.002471
   1958    2.94987   -7.66541   -2.08413       -10.010382      10.015582       0.005200
   1959    3.86499   -8.23098   -0.60345        -9.479929       9.483179       0.003250
   1960    4.78010   -8.02571   -2.22176        -9.100862       9.102652       0.001791
   1961    5.69521   -8.23098   -0.60345        -8.837805       8.838081       0.000276
   1962    2.94987   -7.66541    0.87724       -10.340619      10.344341       0.003722
   1963    3.86499   -7.09984    2.35793       -10.235914      10.232107      -0.003807
   1964    4.78010   -8.02571    1.01486        -9.306852       9.306763      -0.000089
   1965    9.52165    4.75985   -3.88757        -8.324467       8.321578      -0.002889
   1966    9.50315    3.27917   -4.44172        -8.603357       8.600403      -0.002954
   1967    8.60653    2.36405   -5.36826        -8.915982       8.913775      -0.002207
   1968    5.64516    5.66354   -5.91534        -8.735770       8.735829       0.000059
   1969    7.12585    5.10940   -5.93383        -8.429653       8.429314      -0.000339
   1970    8.60653    4.19428   -5.36826        -8.382583       8.381079      -0.001504
   1971    5.64516    4.19428   -6.49940        -9.014088       9.014580       0.000492
   1972    7.26347    3.27917   -6.29414        -8.806646       8.806258      -0.000388
   1973    5.64516    2.36405   -6.49940        -9.642228       9.642704       0.000476
   1974    7.47539    7.15565   -3.53803        -8.338848       8.336540      -0.002308
   1975    8.26364    5.89765   -4.67583        -8.198615       8.196977      -0.001638
   1976    6.56027    6.59008   -5.01872        -8.417292       8.416444      -0.000848
   1977    3.81493    7.15565   -3.53803        -9.618547       9.616842      -0.001706
   1978    5.64516    7.51596   -3.67566        -8.757483       8.755687      -0.001795
   1979    4.73004    6.59008   -5.01872        -9.009998       9.009439      -0.000559
   1980    3.02668    5.89765   -4.67583       -10.123388      10.122629      -0.000760
   1981    4.16447    5.10940   -5.93383        -9.452806       9.453167       0.000361
   1982    4.02685    3.27917   -6.29414       -10.089004      10.089958       0.000954
   1983    4.88131    5.17943    5.49260        -9.546274       9.541996      -0.004278
   1984    6.36200    6.09455    4.92702        -8.806876       8.803533      -0.003343
   1985    4.88131    6.64869    4.90853        -9.030662       9.028258      -0.002405
   1986    7.26568    8.12231    1.05054        -8.372988       8.370212      -0.002776
   1987    7.49979    6.88280    3.66902        -8.433072       8.430021      -0.003051
   1988    6.71154    8.14081    2.53122        -8.325169       8.323189      -0.001981
   1989    5.79643    7.57523    4.01191        -8.556358       8.554590      -0.001768
   1990    5.79643    8.70638    1.05054        -8.505338       8.503766      -0.001572
   1991    3.96620    8.70638    1.05054        -9.027611       9.027197      -0.000414
   1992    4.88131    8.50111    2.66885        -8.643451       8.642686      -0.000765
   1993    3.05108    8.14081    2.53122        -9.429257       9.429260       0.000003
   1994    3.96620    7.57523    4.01191        -9.106436       9.105302      -0.001135
   1995    3.05108    8.14081   -0.43015        -9.797208       9.796709      -0.000500
   1996    4.88131    8.50111   -0.56777        -8.989151       8.987327      -0.001825
   1997    3.40063    6.09455    4.92702        -9.834155       9.831097      -0.003058
   1998    3.26300    4.26432    5.28733       -10.845171      10.838961      -0.006209
   1999    9.11401    0.63601    4.38171        -9.232638       9.228297      -0.004341
   2000   10.59469    1.55113    3.81613        -8.333107       8.330963      -0.002143
   2001   11.49131    2.46624    2.88959        -7.882623       7.881473      -0.001150
   2002    9.25163    2.46624    4.74201        -8.708761       8.704825      -0.003936
   2003   10.59469    3.38136    3.81613        -8.026582       8.024382      -0.002200
   2004    9.11401    4.29647    4.38171        -8.476668       8.472847      -0.003821
   2005   11.50981    0.98556    2.33545        -8.164656       8.163811      -0.000845
   2006   10.25180   -0.15224    3.12370        -8.938954       8.936741      -0.002212
   2007   11.50981    3.94693    2.33545        -7.695631       7.694302      -0.001329
   2008   10.94424    5.42762    1.42033        -7.748777       7.746632      -0.002145
   2009   10.01769    6.32424    0.50522        -8.030347       8.027124      -0.003223
   2010   10.25180    5.08472    3.12370        -7.958659       7.956062      -0.002597
   2011   10.94424    5.42762   -0.40990        -7.839909       7.837389      -0.002520
   2012   11.87011    4.08455    0.50522        -7.646670       7.645386      -0.001284
   2013   12.07538    2.46624    1.42033        -7.757697       7.757037      -0.000660
   2014   11.50981    3.94693   -1.32501        -7.883323       7.881237      -0.002086
   2015   12.07538    2.46624   -0.40990        -7.857535       7.856473      -0.001062
   2016   11.49131    2.46624   -1.87915        -8.163296       8.161138      -0.002157
   2017   11.50981    0.98556   -1.32501        -8.425958       8.424365      -0.001592
   2018   11.87011    0.84793    0.50522        -8.174261       8.173750      -0.000510
   2019   10.59469    1.55113   -2.80570        -8.829564       8.826042      -0.003522
   2020   10.59469    3.38136   -2.80570        -8.430279       8.426952      -0.003327
   2021   -0.75854   -7.01303    6.01723        -9.087500       9.093817       0.006317
   2022    1.62583   -8.48665    2.15924        -9.565584       9.574774       0.009190
   2023    1.07169   -8.50514    3.63993        -9.150421       9.159486       0.009065
   2024    0.15658   -7.93957    5.12061        -8.980253       8.988396       0.008143
   2025    0.15658   -7.93957   -0.80213       -10.455883      10.471235       0.015351
   2026    1.07169   -8.50514    0.67855        -9.841944       9.854632       0.012688
   2027   -4.61653   -4.62866    4.54361       -10.600256      10.608246       0.007990
   2028   -3.14291   -8.48665    2.15924        -9.181696       9.200973       0.019276
   2029   -4.06945   -7.59003    3.07435        -9.362605       9.380385       0.017780
   2030   -4.63502   -6.10934    3.98947        -9.874597       9.888278       0.013682
   2031   -4.06945   -7.59003    1.24412        -9.857752       9.877661       0.019908
   2032   -1.67365   -7.93957   -0.80213       -10.289697      10.308423       0.018726
   2033   -2.58877   -8.50514    0.67855        -9.535991       9.555879       0.019888
   2034   -1.67365   -9.07072    2.15924        -8.991528       9.009623       0.018095
   2035   -0.75854   -8.86545    0.54093        -9.492101       9.509647       0.017546
   2036    0.15658   -9.07072    2.15924        -9.125718       9.140239       0.014521
   2037   -3.71991   -5.54377    5.47015        -9.736630       9.745105       0.008475
   2038   -3.37702   -7.24714    4.77772        -9.122364       9.136438       0.014074
   2039   -2.58877   -8.50514    3.63993        -8.877081       8.894131       0.017049
   2040   -2.23922   -6.45889    6.03573        -9.216442       9.224375       0.007934
   2041   -1.67365   -7.93957    5.12061        -8.844405       8.856886       0.012480
   2042   -0.75854   -8.86545    3.77755        -8.811789       8.826182       0.014392
   2043   -8.03978   -3.73199    3.41687        -9.610576       9.613785       0.003209
   2044   -7.12467   -4.65854    2.52025       -10.150114      10.156537       0.006423
   2045  -11.00116   -2.26273   -3.75203        -8.112949       8.113879       0.000930
   2046   -9.52047   -3.17785   -4.31761        -8.630665       8.632122       0.001457
   2047  -11.89778   -1.34762    1.94325        -7.976951       7.977517       0.000567
   2048  -12.48184   -1.34762    0.47400        -7.746507       7.747227       0.000721
   2049  -12.48184   -1.34762   -1.35623        -7.723985       7.724580       0.000595
   2050  -10.42415   -5.20561   -0.44112        -8.029111       8.033923       0.004812
   2051  -11.35070   -4.30899    0.47400        -7.782386       7.786123       0.003737
   2052  -11.91627   -2.82831    1.38911        -7.762817       7.764919       0.002102
   2053  -11.35070   -4.30899   -1.35623        -7.756985       7.760533       0.003548
   2054  -12.27657   -2.96593   -0.44112        -7.599904       7.602180       0.002276
   2055  -11.91627   -2.82831   -2.27135        -7.715465       7.717335       0.001870
   2056   -8.95490   -4.65854   -3.40249        -8.730097       8.733517       0.003419
   2057   -9.87001   -5.22411   -1.92181        -8.239779       8.244374       0.004595
   2058  -10.65826   -3.96610   -3.05960        -8.035022       8.037781       0.002759
   2059   -8.95490   -5.78968   -0.44112        -8.648987       8.655230       0.006242
   2060   -8.03978   -5.58441   -2.05943        -9.179794       9.185757       0.005964
   2061  -11.00116   -2.26273    2.86980        -8.212895       8.214066       0.001171
   2062  -10.65826   -3.96610    2.17736        -8.117260       8.120540       0.003281
   2063   -9.87001   -5.22411    1.03957        -8.291871       8.297008       0.005137
   2064   -9.52047   -3.17785    3.43537        -8.784844       8.786868       0.002024
   2065   -8.95490   -4.65854    2.52025        -8.856813       8.861418       0.004606
   2066   -8.03978   -5.58441    1.17719        -9.258618       9.265799       0.007181
   2067   -8.05157    0.94817    4.94514        -9.640792       9.639710      -0.001082
   2068   -8.05157    2.77840    4.94514        -9.263638       9.263504      -0.000133
   2069   -8.05157    4.24766    4.36108        -9.065968       9.066819       0.000851
   2070   -8.96669    6.30535    0.50308        -8.540469       8.541012       0.000543
   2071  -10.43595    5.72128    0.50308        -7.955861       7.956853       0.000992
   2072   -8.05157    6.10008    2.12139        -8.967533       8.968842       0.001309
   2073   -9.88180    5.73978    1.98377        -8.092636       8.094192       0.001556
   2074   -8.96669    5.17420    3.46446        -8.491401       8.492973       0.001572
   2075   -9.88180    5.73978   -0.97760        -8.280797       8.280689      -0.000108
   2076   -8.05157    6.10008   -1.11523        -9.214959       9.213668      -0.001291
   2077  -11.36249    4.82466   -0.41203        -7.770933       7.771459       0.000526
   2078  -11.92806    3.34398   -1.32715        -7.822654       7.822324      -0.000331
   2079   -9.53226    3.69352    4.37957        -8.354195       8.355365       0.001170
   2080  -10.67006    4.48177    3.12156        -7.856512       7.858235       0.001723
   2081  -11.36249    4.82466    1.41820        -7.663011       7.664457       0.001446
   2082  -11.01295    2.77840    3.81400        -7.890882       7.892054       0.001172
   2083  -11.92806    3.34398    2.33331        -7.586971       7.588298       0.001327
   2084  -11.90957    1.86329    2.88745        -7.740319       7.741087       0.000768
   2085  -12.49363    1.86329    1.41820        -7.636948       7.637395       0.000446
   2086  -12.28837    3.48160    0.50308        -7.560645       7.561374       0.000729
   2087  -11.92806    0.38260    2.33331        -7.983121       7.983124       0.000003
   2088  -11.01295    0.94817    3.81400        -8.144154       8.144383       0.000230
   2089   -9.66988    1.86329    4.73987        -8.531635       8.531891       0.000256
   2090   -7.11935   -1.34746   -6.46088        -9.233955       9.236216       0.002261
   2091   -7.11935    3.42128   -6.46088        -8.737565       8.739919       0.002353
   2092   -5.63867    2.86714   -6.47938        -9.533813       9.536675       0.002862
   2093   -7.11935    1.95203   -7.04495        -8.708514       8.711428       0.002914
   2094   -5.50104    1.03691   -6.83968        -9.710436       9.713960       0.003524
   2095   -7.11935    0.12180   -7.04495        -8.887508       8.890384       0.002876
   2096   -6.20424    4.34783   -5.56426        -9.379440       9.381073       0.001633
   2097   -8.94958    4.91340   -4.08358        -8.499476       8.499332      -0.000144
   2098   -7.11935    5.27370   -4.22120        -9.255071       9.254885      -0.000186
   2099   -8.03447    4.34783   -5.56426        -8.517529       8.518845       0.001316
   2100  -10.43027    3.99828   -3.51800        -8.184243       8.183756      -0.000487
   2101   -9.73783    3.65539   -5.22137        -8.038661       8.039578       0.000917
   2102   -8.60004    2.86714   -6.47938        -8.195900       8.198042       0.002142
   2103  -10.99584    2.51760   -4.43312        -7.903603       7.903736       0.000133
   2104  -10.08073    1.95203   -5.91381        -7.900576       7.902006       0.001429
   2105  -10.97735    1.03691   -4.98726        -7.894316       7.894816       0.000500
   2106  -10.08073    0.12180   -5.91381        -8.034385       8.035682       0.001297
   2107   -8.73766    1.03691   -6.83968        -8.205079       8.207426       0.002347
   2108   -8.60004   -0.79332   -6.47938        -8.500036       8.501947       0.001912
   2109   -8.03447   -2.27400   -5.56426        -9.172311       9.173538       0.001227
   2110   -9.73783   -1.58157   -5.22137        -8.465413       8.466207       0.000794

 NET CHARGES:
 -------------------------------------
 ATOM                CHARGE    E.S.D.
 -------------------------------------
 C                   0.3385    0.1057
 C                  -0.3920    0.2188
 C                   0.2893    0.1761
 C                  -0.1074    0.2522
 C                  -0.1172    0.1928
 C                  -0.2199    0.1642
 C                   0.2660    0.1148
 C                  -0.5143    0.1424
 C                  -0.4477    0.1430
 O                  -0.6410    0.0137
 C                  -0.5721    0.1303
 H                   0.0131    0.0112
 H                   0.0955    0.0160
 H                   0.0971    0.0150
 H                   0.0128    0.0165
 H                   0.0571    0.0243
 H                   0.0616    0.0137
 H                   0.0713    0.0152
 H                   0.0703    0.0116
 H                   0.0639    0.0116
 H                   0.0331    0.0126
 H                   0.1182    0.0101
 H                   0.1336    0.0100
 H                   0.1287    0.0113
 H                   0.1139    0.0096
 H                   0.0992    0.0109
 H                   0.1163    0.0098
 H                   0.4150    0.0034
 H                   0.1389    0.0092
 H                   0.1353    0.0093
 H                   0.1431    0.0088
 -------------------------------------

 RMS DEVIATION IS            0.490 KCAL/MOLE
 RELATIVE RMS DEVIATION IS   9.203 %

 MULTIPOLE MOMENTS:
 ---------------------------------------------------------
 STATUS  ACTUAL VALUE       QUANTITY        FITTED VALUE 
 ---------------------------------------------------------
 FIXED       0.0000       TOTAL CHARGE         0.0000
             1.4238 D    DIPOLE MOMENT         1.4245 D
 FREE       -0.8803 D          DX             -0.8691 D
 FREE       -0.8407 D          DY             -0.8413 D
 FREE       -0.7386 D          DZ             -0.7525 D
 FREE        0.0000 BU         QXX            -2.0204 BU
 FREE        0.0000 BU         QYY             5.3315 BU
 FREE        0.0000 BU         QZZ            -3.3111 BU
 FREE        0.0000 BU         QXY             3.1318 BU
 FREE        0.0000 BU         QXZ            -1.4549 BU
 FREE        0.0000 BU         QYZ             0.1243 BU
 ---------------------------------------------------------
 ...... END OF PROPERTY EVALUATION ......
 CPU     0: STEP CPU TIME=     1.62 TOTAL CPU TIME=         60.0 (      1.0 MIN)
 TOTAL WALL CLOCK TIME=         87.9 SECONDS, CPU UTILIZATION IS    68.24%
              1186120  WORDS OF DYNAMIC MEMORY USED
 EXECUTION OF GAMESS TERMINATED NORMALLY Mon May 25 19:15:31 2020
 DDI: 263640 bytes (0.3 MB / 0 MWords) used by master data server.
Note: The following floating-point exceptions are signalling: IEEE_UNDERFLOW_FLAGNote: The following floating-point exceptions are signalling: IEEE_UNDERFLOW_FLAGNote: The following floating-point exceptions are signalling:
 ----------------------------------------
 CPU timing information for all processes
 ========================================
 0: 59.615 + 0.408 = 60.23
 1: 57.505 + 0.148 = 57.653
 2: 56.607 + 0.108 = 56.716
 3: 58.337 + 0.92 = 58.429
 4: 56.771 + 0.124 = 56.895
 5: 56.307 + 0.116 = 56.423
 ----------------------------------------
 IEEE_DENORMAL
 IEEE_DENORMAL
 IEEE_UNDERFLOW_FLAGNote: The following floating-point exceptions are signalling: IEEE_UNDERFLOW_FLAGNote: The following floating-point exceptions are signalling: IEEE_UNDERFLOW_FLAGNote: The following floating-point exceptions are signalling: IEEE_DENORMAL
 IEEE_DENORMAL IEEE_DENORMAL
 IEEE_UNDERFLOW_FLAG IEEE_DENORMAL

 ddikick.x: exited gracefully.
unset echo
----- accounting info -----
Files used on the master node pietdev were:
-rwxr-xr-x 1 piet piet     1409 mei 25 19:14 /home/piet/scr/methol_charge_geodisk.F05*
-rw-r--r-- 1 piet piet 50790400 mei 25 19:15 /home/piet/scr/methol_charge_geodisk.F10
ls: No match.
ls: No match.
ls: No match.
ma 25 mei 2020 19:15:35 CEST
0.117u 0.021s 1:31.09 0.1%	0+0k 0+8io 0pf+0w
