----- GAMESS execution script 'rungms' -----
This job is running on host pietdev
under operating system Linux at ma 25 mei 2020 19:15:49 CEST
Available scratch disk space (Kbyte units) at beginning of the job is
Filesystem     1K-blocks     Used Available Use% Mounted on
/dev/sda2      244568380 31071496 201003828  14% /
GAMESS temporary binary files will be written to /home/piet/scr
GAMESS supplementary output files will be written to /home/piet/gamess/scr
Copying input file methol_fukui_neu.inp to your run's scratch directory...
cp methol_fukui_neu.inp /home/piet/scr/methol_fukui_neu.F05
unset echo
 
Assuming a single but multicore node.
 
/home/piet/gamess/ddikick.x /home/piet/gamess/gamess.03.x methol_fukui_neu -ddi 1 6 pietdev:cpus=6 -scr /home/piet/scr

 Distributed Data Interface kickoff program.
 Initiating 6 compute processes on 1 nodes to run the following command:
 /home/piet/gamess/gamess.03.x methol_fukui_neu 

          ******************************************************
          *         GAMESS VERSION = 30 SEP 2019 (R2)          *
          *             FROM IOWA STATE UNIVERSITY             *
          * M.W.SCHMIDT, K.K.BALDRIDGE, J.A.BOATZ, S.T.ELBERT, *
          *   M.S.GORDON, J.H.JENSEN, S.KOSEKI, N.MATSUNAGA,   *
          *          K.A.NGUYEN, S.J.SU, T.L.WINDUS,           *
          *       TOGETHER WITH M.DUPUIS, J.A.MONTGOMERY       *
          *         J.COMPUT.CHEM.  14, 1347-1363(1993)        *
          **************** 64 BIT LINUX VERSION ****************

  SINCE 1993, STUDENTS AND POSTDOCS WORKING AT IOWA STATE UNIVERSITY
  AND ALSO IN THEIR VARIOUS JOBS AFTER LEAVING ISU HAVE MADE IMPORTANT
  CONTRIBUTIONS TO THE CODE:
     IVANA ADAMOVIC, CHRISTINE AIKENS, YURI ALEXEEV, POOJA ARORA,
     ANDREY ASADCHEV, ROB BELL, PRADIPTA BANDYOPADHYAY, JONATHAN BENTZ,
     COLLEEN BERTONI, BRETT BODE, KURT BRORSEN, CALEB CARLIN, GALINA CHABAN,
     WEI CHEN, CHEOL HO CHOI, PAUL DAY, ALBERT DEFUSCO, NUWAN DESILVA,
     TIM DUDLEY, DMITRI FEDOROV, ALEX FINDLATER, GRAHAM FLETCHER, 
     MARK FREITAG, KURT GLAESEMANN, EMILIE B GUIDEZ, ANASTASIA GUNINA, 
     DAN KEMP, SAROM SOK LEANG, GRANT MERRILL,
     NORIYUKI MINEZAWA, JONATHAN MULLIN,
     TAKESHI NAGATA, SEAN NEDD, HEATHER NETZLOFF, BOSILJKA NJEGIC, RYAN OLSON,
     MIKE PAK, BUU PHAM, DAVID POOLE,
     SPENCER PRUITT, LUKE ROSKOP, TOSAPORN SATTASATHUCHANA,
     JIM SHOEMAKER, LYUDMILA SLIPCHENKO,
     TONY SMITH, JIE SONG, TETSUYA TAKETSUGU, SIMON WEBB,
     JORGE LUIS GALVEZ VALLEJO, PENG XU, SOOHAENG YOO,
     FEDERICO ZAHARIEV

  ADDITIONAL CODE HAS BEEN PROVIDED BY COLLABORATORS IN OTHER GROUPS:
     IOWA STATE UNIVERSITY:
          JOE IVANIC, AARON WEST, LAIMUTIS BYTAUTAS, KLAUS RUEDENBERG
     UNIVERSITY OF TOKYO: KIMIHIKO HIRAO, TAKAHITO NAKAJIMA,
          TAKAO TSUNEDA, MUNEAKI KAMIYA, SUSUMU YANAGISAWA,
          KIYOSHI YAGI, MAHITO CHIBA, SEIKEN TOKURA, NAOAKI KAWAKAMI
     UNIVERSITY OF AARHUS: FRANK JENSEN
     UNIVERSITY OF IOWA: VISVALDAS KAIRYS, HUI LI
     NATIONAL INST. OF STANDARDS AND TECHNOLOGY: WALT STEVENS, DAVID GARMER
     UNIVERSITY OF PISA: BENEDETTA MENNUCCI, JACOPO TOMASI
     UNIVERSITY OF MEMPHIS: HENRY KURTZ, PRAKASHAN KORAMBATH
     UNIVERSITY OF ALBERTA: TOBY ZENG, MARIUSZ KLOBUKOWSKI
     UNIVERSITY OF NEW ENGLAND: MARK SPACKMAN
     MIE UNIVERSITY: HIROAKI UMEDA
     NAT. INST. OF ADVANCED INDUSTRIAL SCIENCE AND TECHNOLOGY: KAZUO KITAURA
     MICHIGAN STATE UNIVERSITY:
          KAROL KOWALSKI, MARTA WLOCH, JEFFREY GOUR, JESSE LUTZ,
          WEI LI, JUN SHEN, J. EMILIANO DEUSTUA, PIOTR PIECUCH
     UNIVERSITY OF MINNESOTA:
          ANDREW SAND, PRACHI SHARMA, YINAN SHU
     UNIVERSITY OF SILESIA: MONIKA MUSIAL, STANISLAW KUCHARSKI
     FACULTES UNIVERSITAIRES NOTRE-DAME DE LA PAIX:
          OLIVIER QUINET, BENOIT CHAMPAGNE
     UNIVERSITY OF CALIFORNIA - SANTA BARBARA: BERNARD KIRTMAN
     INSTITUTE FOR MOLECULAR SCIENCE:
          KAZUYA ISHIMURA, MICHIO KATOUDA, AND SHIGERU NAGASE
     UNIVERSITY OF NOTRE DAME: ANNA POMOGAEVA, DAN CHIPMAN
     KYUSHU UNIVERSITY:
          HARUYUKI NAKANO,
          FENG LONG GU, JACEK KORCHOWIEC, MARCIN MAKOWSKI, AND YURIKO AOKI,
          HIROTOSHI MORI AND EISAKU MIYOSHI
     PENNSYLVANIA STATE UNIVERSITY:
          TZVETELIN IORDANOV, CHET SWALINA, JONATHAN SKONE,
          SHARON HAMMES-SCHIFFER
     WASEDA UNIVERSITY:
          MASATO KOBAYASHI, TOMOKO AKAMA, TSUGUKI TOUMA,
          TAKESHI YOSHIKAWA, YASUHIRO IKABATA, JUNJI SEINO,
          YUYA NAKAJIMA, HIROMI NAKAI
     NANJING UNIVERSITY: SHUHUA LI
     UNIVERSITY OF NEBRASKA:
          PEIFENG SU, DEJUN SI, NANDUN THELLAMUREGE, YALI WANG, HUI LI
     UNIVERSITY OF ZURICH: ROBERTO PEVERATI, KIM BALDRIDGE
     N. COPERNICUS UNIVERSITY AND JACKSON STATE UNIVERSITY:
          MARIA BARYSZ
     UNIVERSITY OF COPENHAGEN: Jimmy Kromann, CASPER STEINMANN
     TOKYO INSTITUTE OF TECHNOLOGY: HIROYA NAKATA
     NAGOYA UNIVERSITY: YOSHIO NISHIMOTO, STEPHAN IRLE
     MOSCOW STATE UNIVERSITY: VLADIMIR MIRONOV
     A.N.NESMEYANOV INSTITUTE OF ORGANOELEMENT COMPOUNDS OF RUSSIAN ACADEMY OF SCIENCES:
          IGOR S. GERASIMOV
     JOHANNES KEPLER UNIVERSITY LINZ:
          CHRISTIAN FRIEDL


 PARALLEL VERSION RUNNING ON        6 PROCESSORS IN        1 NODES.

 EXECUTION OF GAMESS BEGUN Mon May 25 19:15:49 2020

            ECHO OF THE FIRST FEW INPUT CARDS -
 INPUT CARD> $BASIS GBASIS=N21 NGAUSS=3 $END                                                
 INPUT CARD> $CONTRL SCFTYP=RHF MAXIT=60 MULT=1 ICHARG=0 $END                               
 INPUT CARD> $SYSTEM MEMDDI=1000 MWORDS=30 $END                                             
 INPUT CARD> $SCF DIRSCF=.TRUE. $END                                                        
 INPUT CARD> $DATA                                                                          
 INPUT CARD>                                                                                
 INPUT CARD>C1                                                                              
 INPUT CARD>C 6.0000000 -2.26374 0.11023 0.14447                                            
 INPUT CARD>C 6.0000000 -1.49833 -0.94862 -0.66496                                          
 INPUT CARD>C 6.0000000 -0.02680 -1.09639 -0.24556                                          
 INPUT CARD>C 6.0000000 0.73370 0.24654 -0.28492                                            
 INPUT CARD>C 6.0000000 -0.04250 1.31749 0.51291                                            
 INPUT CARD>C 6.0000000 -1.50818 1.44649 0.06762                                            
 INPUT CARD>C 6.0000000 2.21545 0.11630 0.16509                                             
 INPUT CARD>C 6.0000000 2.95668 -1.02560 -0.55286                                           
 INPUT CARD>C 6.0000000 2.99301 1.43114 -0.03318                                            
 INPUT CARD>O 8.0000000 0.08621 -1.61694 1.09283                                            
 INPUT CARD>C 6.0000000 -3.71784 0.23915 -0.32516                                           
 INPUT CARD>H 1.0000000 -2.26868 -0.20899 1.19666                                           
 INPUT CARD>H 1.0000000 -1.99450 -1.92779 -0.58297                                          
 INPUT CARD>H 1.0000000 -1.52763 -0.68233 -1.73266                                          
 INPUT CARD>H 1.0000000 0.45502 -1.79883 -0.94070                                           
 INPUT CARD>H 1.0000000 0.73756 0.55087 -1.34558                                            
 INPUT CARD>H 1.0000000 -0.00540 1.05744 1.57915                                            
 INPUT CARD>H 1.0000000 0.44572 2.29131 0.40705                                             
 INPUT CARD>H 1.0000000 -1.54662 1.81730 -0.96936                                           
 INPUT CARD>H 1.0000000 -2.01783 2.19969 0.68328                                            
 INPUT CARD>H 1.0000000 2.20771 -0.11894 1.23761                                            
 INPUT CARD>H 1.0000000 2.93688 -0.89104 -1.64299                                           
 INPUT CARD>H 1.0000000 4.00838 -1.04860 -0.24464                                           
 INPUT CARD>H 1.0000000 2.52952 -2.00501 -0.31933                                           
 INPUT CARD>H 1.0000000 2.98729 1.73526 -1.08870                                            
 INPUT CARD>H 1.0000000 2.58308 2.25658 0.55592                                             
 INPUT CARD>H 1.0000000 4.03938 1.30508 0.26735                                             
 INPUT CARD>H 1.0000000 -0.40140 -2.44938 1.14262                                           
 INPUT CARD>H 1.0000000 -4.25447 -0.71313 -0.23343                                          
 INPUT CARD>H 1.0000000 -4.26071 0.98601 0.26622                                            
 INPUT CARD>H 1.0000000 -3.76740 0.54871 -1.37739                                           
 INPUT CARD> $END                                                                           
   30000000 WORDS OF MEMORY AVAILABLE

     BASIS OPTIONS
     -------------
     GBASIS=N21          IGAUSS=       3      POLAR=NONE    
     NDFUNC=       0     NFFUNC=       0     DIFFSP=       F
     NPFUNC=       0      DIFFS=       F     BASNAM=        


     RUN TITLE
     ---------
                                                                                 

 THE POINT GROUP OF THE MOLECULE IS C1      
 THE ORDER OF THE PRINCIPAL AXIS IS     0

 ATOM      ATOMIC                      COORDINATES (BOHR)
           CHARGE         X                   Y                   Z
 C           6.0    -4.2778483074        0.2083044956        0.2730087134
 C           6.0    -2.8314331392       -1.7926318665       -1.2565921928
 C           6.0    -0.0506446565       -2.0718766757       -0.4640411135
 C           6.0     1.3864919572        0.4658930450       -0.5384207284
 C           6.0    -0.0803133545        2.4896950916        0.9692593564
 C           6.0    -2.8500469402        2.7334697440        0.1277832713
 C           6.0     4.1865934395        0.2197751324        0.3119748633
 C           6.0     5.5873150334       -1.9381029730       -1.0447539096
 C           6.0     5.6559687785        2.7044624501       -0.0627011083
 O           8.0     0.1629132774       -3.0555735386        2.0651492512
 C           6.0    -7.0256988662        0.4519279700       -0.6144633022
 H           1.0    -4.2871835538       -0.3949338342        2.2613595005
 H           1.0    -3.7690584825       -3.6429948619       -1.1016535591
 H           1.0    -2.8868021106       -1.2894167332       -3.2742526299
 H           1.0     0.8598631189       -3.3992957985       -1.7776652366
 H           1.0     1.3937862995        1.0409933549       -2.5427774946
 H           1.0    -0.0102045203        1.9982718485        2.9841607935
 H           1.0     0.8422886672        4.3299480529        0.7692129633
 H           1.0    -2.9226880071        3.4341990375       -1.8318247835
 H           1.0    -3.8131457898        4.1568113579        1.2912119729
 H           1.0     4.1719669604       -0.2247640090        2.3387437797
 H           1.0     5.5498984588       -1.6838214441       -3.1048009006
 H           1.0     7.5747398547       -1.9815666707       -0.4623025656
 H           1.0     4.7800996805       -3.7889195026       -0.6034461997
 H           1.0     5.6451595459        3.2791659175       -2.0573446828
 H           1.0     4.8813134044        4.2643178694        1.0505364711
 H           1.0     7.6333213603        2.4662435921        0.5052182428
 H           1.0    -0.7585360115       -4.6286570398        2.1592387081
 H           1.0    -8.0397825230       -1.3476202936       -0.4411187373
 H           1.0    -8.0515744131        1.8632887212        0.5030828525
 H           1.0    -7.1193536861        1.0369115467       -2.6028896782

          INTERNUCLEAR DISTANCES (ANGS.)
          ------------------------------

                1 C          2 C          3 C          4 C          5 C     

   1 C       0.0000000    1.5369427 *  2.5713724 *  3.0311059    2.5548252 *
   2 C       1.5369427 *  0.0000000    1.5372485 *  2.5602335 *  2.9397403 *
   3 C       2.5713724 *  1.5372485 *  0.0000000    1.5438168 *  2.5302845 *
   4 C       3.0311059    2.5602335 *  1.5438168 *  0.0000000    1.5446531 *
   5 C       2.5548252 *  2.9397403 *  2.5302845 *  1.5446531 *  0.0000000  
   6 C       1.5369996 *  2.5046601 *  2.9595282 *  2.5671366 *  1.5372515 *
   7 C       4.4792416    3.9516072    2.5820410 *  1.5540446 *  2.5811188 *
   8 C       5.3878719    4.4570850    3.0000996    2.5752227 *  3.9523432  
   9 C       5.4230788    5.1219663    3.9436995    2.5634219 *  3.0863330  
  10 O       3.0667194    2.4591145 *  1.4404969 *  2.4062411 *  2.9939527 *
  11 C       1.5334861 *  2.5401745 *  3.9260387    4.4517280    3.9208803  
  12 H       1.0995588 *  2.1461875 *  2.8095379 *  3.3788863    2.7845166 *
  13 H       2.1806386 *  1.1007638 *  2.1626176 *  3.5013740    3.9424737  
  14 H       2.1664779 *  1.1007961 *  2.1529986 *  2.8411906 *  3.3537257  
  15 H       3.4948190    2.1481308 *  1.0994508 *  2.1659290 *  3.4744724  
  16 H       3.3796767    2.7768540 *  2.1231476 *  1.1034633 *  2.1564287 *
  17 H       2.8382412 *  3.3599325    2.8229432 *  2.1630036 *  1.0981212 *
  18 H       3.4881559    3.9275542    3.4821956    2.1778061 *  1.0944818 *
  19 H       2.1607791 *  2.7830388 *  3.3650154    2.8522981 *  2.1700948 *
  20 H       2.1717806 *  3.4640276    3.9611977    3.5104307    2.1700764 *
  21 H       4.6088327    4.2476904    2.8545116 *  2.1504369 *  2.7662188 *
  22 H       5.5896336    4.5421301    3.2830441    2.8270912 *  4.2897803  
  23 H       6.3901317    5.5236329    4.0354631    3.5217239    4.7520409  
  24 H       5.2597236    4.1783963    2.7140015 *  2.8802137 *  4.2833301  
  25 H       5.6333602    5.2443831    4.2206475    2.8179811 *  3.4524359  
  26 H       5.3167446    5.3312065    4.3239162    2.8578802 *  2.7888009 *
  27 H       6.4165480    6.0509997    4.7501531    3.5146877    4.0892784  
  28 H       3.3190687    2.5928520 *  1.9743229 *  3.2548897    3.8359684  
  29 H       2.1871754 *  2.7996395 *  4.2450240    5.0799073    4.7350958  
  30 H       2.1839649 *  3.4986616    4.7459775    5.0788485    4.2383995  
  31 H       2.1838764 *  2.8103794 *  4.2402219    4.6416267    4.2472505  

                6 C          7 C          8 C          9 C         10 O     

   1 C       1.5369996 *  4.4792416    5.3878719    5.4230788    3.0667194  
   2 C       2.5046601 *  3.9516072    4.4570850    5.1219663    2.4591145 *
   3 C       2.9595282 *  2.5820410 *  3.0000996    3.9436995    1.4404969 *
   4 C       2.5671366 *  1.5540446 *  2.5752227 *  2.5634219 *  2.4062411 *
   5 C       1.5372515 *  2.5811188 *  3.9523432    3.0863330    2.9939527 *
   6 C       0.0000000    3.9552909    5.1411282    4.5023447    3.6024628  
   7 C       3.9552909    0.0000000    1.5390938 *  1.5403619 *  2.8980140 *
   8 C       5.1411282    1.5390938 *  0.0000000    2.5113659 *  3.3611868  
   9 C       4.5023447    1.5403619 *  2.5113659 *  0.0000000    4.3598367  
  10 O       3.6024628    2.8980140 *  3.3611868    4.3598367    0.0000000  
  11 C       2.5484394 *  5.9547769    6.7971065    6.8221404    4.4639178  
  12 H       2.1432932 *  4.6127402    5.5706426    5.6469385    2.7456531 *
  13 H       3.4706685    4.7393646    5.0327961    6.0382063    2.6896631 *
  14 H       2.7880568 *  4.2719917    4.6496020    5.2717335    3.3854644  
  15 H       3.9246612    2.8265895 *  2.6469997 *  4.2068625    2.0746925 *
  16 H       2.8004674 *  2.1575759 *  2.8351642 *  2.7539651 *  3.3270859  
  17 H       2.1666635 *  2.7959766 *  4.2021947    3.4248682    2.7197809 *
  18 H       2.1556110 *  2.8144551 *  4.2694542    2.7244047 *  3.9842138  
  19 H       1.1019552 *  4.2817693    5.3418408    4.6512142    4.3258254  
  20 H       1.0982216 *  4.7465455    6.0560951    5.1198146    4.3773714  
  21 H       4.1984862    1.0980423 *  2.1421417 *  2.1527544 *  2.6011012 *
  22 H       5.3055435    2.1918824 *  1.0985817 *  2.8261562 *  4.0172082  
  23 H       6.0626244    2.1770321 *  1.0961758 *  2.6878992 *  4.1827328  
  24 H       5.3259369    2.1984674 *  1.0937303 *  3.4790561    2.8486063 *
  25 H       4.6507757    2.1883231 *  2.8125450 *  1.0984736 *  4.9409091  
  26 H       4.1991774    2.2065127 *  3.4844907    1.0938156 *  4.6396971  
  27 H       5.5529551    2.1795356 *  2.6976013 *  1.0959469 *  4.9846937  
  28 H       4.1902733    3.7929122    4.0222510    5.2880015    0.9660222 *
  29 H       3.5066649    6.5350315    7.2249815    7.5606852    4.6278873  
  30 H       2.7978394 *  6.5350800    7.5371205    7.2735297    5.1336484  
  31 H       2.8280979 *  6.1936029    6.9549661    6.9490090    5.0638263  

               11 C         12 H         13 H         14 H         15 H     

   1 C       1.5334861 *  1.0995588 *  2.1806386 *  2.1664779 *  3.4948190  
   2 C       2.5401745 *  2.1461875 *  1.1007638 *  1.1007961 *  2.1481308 *
   3 C       3.9260387    2.8095379 *  2.1626176 *  2.1529986 *  1.0994508 *
   4 C       4.4517280    3.3788863    3.5013740    2.8411906 *  2.1659290 *
   5 C       3.9208803    2.7845166 *  3.9424737    3.3537257    3.4744724  
   6 C       2.5484394 *  2.1432932 *  3.4706685    2.7880568 *  3.9246612  
   7 C       5.9547769    4.6127402    4.7393646    4.2719917    2.8265895 *
   8 C       6.7971065    5.5706426    5.0327961    4.6496020    2.6469997 *
   9 C       6.8221404    5.6469385    6.0382063    5.2717335    4.2068625  
  10 O       4.4639178    2.7456531 *  2.6896631 *  3.3854644    2.0746925 *
  11 C       0.0000000    2.1486811 *  2.7806466 *  2.7617389 *  4.6845504  
  12 H       2.1486811 *  0.0000000    2.4892832 *  3.0584508    3.8097822  
  13 H       2.7806466 *  2.4892832 *  0.0000000    1.7581028 *  2.4788606 *
  14 H       2.7617389 *  3.0584508    1.7581028 *  0.0000000    2.4092891 *
  15 H       4.6845504    3.8097822    2.4788606 *  2.4092891 *  0.0000000  
  16 H       4.5813770    4.0097195    3.7668928    2.6080067 *  2.4010095 *
  17 H       4.2518473    2.6215606 *  4.1884221    4.0388203    3.8366533  
  18 H       4.6992259    3.7739835    4.9734915    4.1611301    4.3064790  
  19 H       2.7603890 *  3.0526815    3.7915159    2.6136445 *  4.1332530  
  20 H       2.7840083 *  2.4755250 *  4.3174095    3.7925060    4.9739783  
  21 H       6.1386172    4.4774829    4.9239231    4.8054841    3.2617460  
  22 H       6.8774489    5.9688072    5.1494662    4.4702852    2.7343963 *
  23 H       7.8332151    6.4949036    6.0763485    5.7441939    3.6977982  
  24 H       6.6382072    5.3429053    4.5323532    4.4952698    2.1753531 *
  25 H       6.9123156    6.0521235    6.2041865    5.1617757    4.3501825  
  26 H       6.6744227    5.4798867    6.3055738    5.5473171    4.8181803  
  27 H       7.8524988    6.5534454    6.8979852    6.2403076    4.8929826  
  28 H       4.5145704    2.9170194 *  2.4057607 *  3.5578216    2.3445453 *
  29 H       1.0969154 *  2.4985349 *  2.5894095 *  3.1119601    4.8844930  
  30 H       1.0964661 *  2.5023843 *  3.7877516    3.7747326    5.6080388  
  31 H       1.0979397 *  3.0734353    3.1475911    2.5803577 *  4.8508219  

               16 H         17 H         18 H         19 H         20 H     

   1 C       3.3796767    2.8382412 *  3.4881559    2.1607791 *  2.1717806 *
   2 C       2.7768540 *  3.3599325    3.9275542    2.7830388 *  3.4640276  
   3 C       2.1231476 *  2.8229432 *  3.4821956    3.3650154    3.9611977  
   4 C       1.1034633 *  2.1630036 *  2.1778061 *  2.8522981 *  3.5104307  
   5 C       2.1564287 *  1.0981212 *  1.0944818 *  2.1700948 *  2.1700764 *
   6 C       2.8004674 *  2.1666635 *  2.1556110 *  1.1019552 *  1.0982216 *
   7 C       2.1575759 *  2.7959766 *  2.8144551 *  4.2817693    4.7465455  
   8 C       2.8351642 *  4.2021947    4.2694542    5.3418408    6.0560951  
   9 C       2.7539651 *  3.4248682    2.7244047 *  4.6512142    5.1198146  
  10 O       3.3270859    2.7197809 *  3.9842138    4.3258254    4.3773714  
  11 C       4.5813770    4.2518473    4.6992259    2.7603890 *  2.7840083 *
  12 H       4.0097195    2.6215606 *  3.7739835    3.0526815    2.4755250 *
  13 H       3.7668928    4.1884221    4.9734915    3.7915159    4.3174095  
  14 H       2.6080067 *  4.0388203    4.1611301    2.6136445 *  3.7925060  
  15 H       2.4010095 *  3.8366533    4.3064790    4.1332530    4.9739783  
  16 H       0.0000000    3.0598445    2.4871699 *  2.6387241 *  3.7982962  
  17 H       3.0598445    0.0000000    1.7606143 *  3.0737029    2.4813691 *
  18 H       2.4871699 *  1.7606143 *  0.0000000    2.4675106 *  2.4806805 *
  19 H       2.6387241 *  3.0737029    2.4675106 *  0.0000000    1.7605340 *
  20 H       3.7982962    2.4813691 *  2.4806805 *  1.7605340 *  0.0000000  
  21 H       3.0467781    2.5295010 *  3.0989908    4.7659979    4.8516508  
  22 H       2.6466140 *  4.7786789    4.5316546    5.2811604    6.2859602  
  23 H       3.8037661    4.8859026    4.9266870    6.2925851    6.9085187  
  24 H       3.2858534    4.4055245    4.8299292    5.6256120    6.2740036  
  25 H       2.5553967 *  4.0660862    3.0010061    4.5362223    5.3298062  
  26 H       3.1513637    3.0307037    2.1428197 *  4.4242364    4.6030240  
  27 H       3.7513186    4.2593885    3.7291498    5.7441463    6.1370284  
  28 H       4.0607720    3.5560035    4.8716339    4.8965852    4.9434493  
  29 H       5.2682955    4.9472174    5.6150388    3.7785077    3.7851600  
  30 H       5.2697200    4.4538243    4.8861155    3.0958013    2.5840799 *
  31 H       4.5050728    4.8117127    4.8960454    2.5899175 *  3.1675055  

               21 H         22 H         23 H         24 H         25 H     

   1 C       4.6088327    5.5896336    6.3901317    5.2597236    5.6333602  
   2 C       4.2476904    4.5421301    5.5236329    4.1783963    5.2443831  
   3 C       2.8545116 *  3.2830441    4.0354631    2.7140015 *  4.2206475  
   4 C       2.1504369 *  2.8270912 *  3.5217239    2.8802137 *  2.8179811 *
   5 C       2.7662188 *  4.2897803    4.7520409    4.2833301    3.4524359  
   6 C       4.1984862    5.3055435    6.0626244    5.3259369    4.6507757  
   7 C       1.0980423 *  2.1918824 *  2.1770321 *  2.1984674 *  2.1883231 *
   8 C       2.1421417 *  1.0985817 *  1.0961758 *  1.0937303 *  2.8125450 *
   9 C       2.1527544 *  2.8261562 *  2.6878992 *  3.4790561    1.0984736 *
  10 O       2.6011012 *  4.0172082    4.1827328    2.8486063 *  4.9409091  
  11 C       6.1386172    6.8774489    7.8332151    6.6382072    6.9123156  
  12 H       4.4774829    5.9688072    6.4949036    5.3429053    6.0521235  
  13 H       4.9239231    5.1494662    6.0763485    4.5323532    6.2041865  
  14 H       4.8054841    4.4702852    5.7441939    4.4952698    5.1617757  
  15 H       3.2617460    2.7343963 *  3.6977982    2.1753531 *  4.3501825  
  16 H       3.0467781    2.6466140 *  3.8037661    3.2858534    2.5553967 *
  17 H       2.5295010 *  4.7786789    4.8859026    4.4055245    4.0660862  
  18 H       3.0989908    4.5316546    4.9266870    4.8299292    3.0010061  
  19 H       4.7659979    5.2811604    6.2925851    5.6256120    4.5362223  
  20 H       4.8516508    6.2859602    6.9085187    6.2740036    5.3298062  
  21 H       0.0000000    3.0701276    2.5107260 *  2.4667557 *  3.0753082  
  22 H       3.0701276    0.0000000    1.7687058 *  1.7773427 *  2.6846285 *
  23 H       2.5107260 *  1.7687058 *  0.0000000    1.7627608 *  3.0830080  
  24 H       2.4667557 *  1.7773427 *  1.7627608 *  0.0000000    3.8459203  
  25 H       3.0753082    2.6846285 *  3.0830080    3.8459203    0.0000000  
  26 H       2.4997398 *  3.8558905    3.6873556    4.3508712    1.7719862 *
  27 H       2.5148066 *  3.1125308    2.4089218 *  3.6851820    1.7694123 *
  28 H       3.4996327    4.6186751    4.8304073    3.3053070    5.8286551  
  29 H       6.6540808    7.3303497    8.2696648    6.9064356    7.6921511  
  30 H       6.6336242    7.6794337    8.5310296    7.4428686    7.4115240  
  31 H       6.5563649    6.8622732    8.0185582    6.8769309    6.8641882  

               26 H         27 H         28 H         29 H         30 H     

   1 C       5.3167446    6.4165480    3.3190687    2.1871754 *  2.1839649 *
   2 C       5.3312065    6.0509997    2.5928520 *  2.7996395 *  3.4986616  
   3 C       4.3239162    4.7501531    1.9743229 *  4.2450240    4.7459775  
   4 C       2.8578802 *  3.5146877    3.2548897    5.0799073    5.0788485  
   5 C       2.7888009 *  4.0892784    3.8359684    4.7350958    4.2383995  
   6 C       4.1991774    5.5529551    4.1902733    3.5066649    2.7978394 *
   7 C       2.2065127 *  2.1795356 *  3.7929122    6.5350315    6.5350800  
   8 C       3.4844907    2.6976013 *  4.0222510    7.2249815    7.5371205  
   9 C       1.0938156 *  1.0959469 *  5.2880015    7.5606852    7.2735297  
  10 O       4.6396971    4.9846937    0.9660222 *  4.6278873    5.1336484  
  11 C       6.6744227    7.8524988    4.5145704    1.0969154 *  1.0964661 *
  12 H       5.4798867    6.5534454    2.9170194 *  2.4985349 *  2.5023843 *
  13 H       6.3055738    6.8979852    2.4057607 *  2.5894095 *  3.7877516  
  14 H       5.5473171    6.2403076    3.5578216    3.1119601    3.7747326  
  15 H       4.8181803    4.8929826    2.3445453 *  4.8844930    5.6080388  
  16 H       3.1513637    3.7513186    4.0607720    5.2682955    5.2697200  
  17 H       3.0307037    4.2593885    3.5560035    4.9472174    4.4538243  
  18 H       2.1428197 *  3.7291498    4.8716339    5.6150388    4.8861155  
  19 H       4.4242364    5.7441463    4.8965852    3.7785077    3.0958013  
  20 H       4.6030240    6.1370284    4.9434493    3.7851600    2.5840799 *
  21 H       2.4997398 *  2.5148066 *  3.4996327    6.6540808    6.6336242  
  22 H       3.8558905    3.1125308    4.6186751    7.3303497    7.6794337  
  23 H       3.6873556    2.4089218 *  4.8304073    8.2696648    8.5310296  
  24 H       4.3508712    3.6851820    3.3053070    6.9064356    7.4428686  
  25 H       1.7719862 *  1.7694123 *  5.8286551    7.6921511    7.4115240  
  26 H       0.0000000    1.7633589 *  5.6033380    7.4962885    6.9667593  
  27 H       1.7633589 *  0.0000000    5.8806968    8.5505497    8.3062206  
  28 H       5.6033380    5.8806968    0.0000000    4.4445727    5.2406350  
  29 H       7.4962885    8.5505497    4.4445727    0.0000000    1.7710917 *
  30 H       6.9667593    8.3062206    5.2406350    1.7710917 *  0.0000000  
  31 H       6.8544222    8.0139303    5.1641989    1.7714745 *  1.7708867 *

               31 H     

   1 C       2.1838764 *
   2 C       2.8103794 *
   3 C       4.2402219  
   4 C       4.6416267  
   5 C       4.2472505  
   6 C       2.8280979 *
   7 C       6.1936029  
   8 C       6.9549661  
   9 C       6.9490090  
  10 O       5.0638263  
  11 C       1.0979397 *
  12 H       3.0734353  
  13 H       3.1475911  
  14 H       2.5803577 *
  15 H       4.8508219  
  16 H       4.5050728  
  17 H       4.8117127  
  18 H       4.8960454  
  19 H       2.5899175 *
  20 H       3.1675055  
  21 H       6.5563649  
  22 H       6.8622732  
  23 H       8.0185582  
  24 H       6.8769309  
  25 H       6.8641882  
  26 H       6.8544222  
  27 H       8.0139303  
  28 H       5.1641989  
  29 H       1.7714745 *
  30 H       1.7708867 *
  31 H       0.0000000  

  * ... LESS THAN  3.000


     ATOMIC BASIS SET
     ----------------
 THE CONTRACTED PRIMITIVE FUNCTIONS HAVE BEEN UNNORMALIZED
 THE CONTRACTED BASIS FUNCTIONS ARE NOW NORMALIZED TO UNITY

  SHELL TYPE  PRIMITIVE        EXPONENT          CONTRACTION COEFFICIENT(S)

 C         

      1   S       1           172.2560000    0.061766907377
      1   S       2            25.9109000    0.358794042852
      1   S       3             5.5333500    0.700713083689

      2   L       4             3.6649800   -0.395895162119    0.236459946619
      2   L       5             0.7705450    1.215834355681    0.860618805716

      3   L       6             0.1958570    1.000000000000    1.000000000000

 C         

      4   S       7           172.2560000    0.061766907377
      4   S       8            25.9109000    0.358794042852
      4   S       9             5.5333500    0.700713083689

      5   L      10             3.6649800   -0.395895162119    0.236459946619
      5   L      11             0.7705450    1.215834355681    0.860618805716

      6   L      12             0.1958570    1.000000000000    1.000000000000

 C         

      7   S      13           172.2560000    0.061766907377
      7   S      14            25.9109000    0.358794042852
      7   S      15             5.5333500    0.700713083689

      8   L      16             3.6649800   -0.395895162119    0.236459946619
      8   L      17             0.7705450    1.215834355681    0.860618805716

      9   L      18             0.1958570    1.000000000000    1.000000000000

 C         

     10   S      19           172.2560000    0.061766907377
     10   S      20            25.9109000    0.358794042852
     10   S      21             5.5333500    0.700713083689

     11   L      22             3.6649800   -0.395895162119    0.236459946619
     11   L      23             0.7705450    1.215834355681    0.860618805716

     12   L      24             0.1958570    1.000000000000    1.000000000000

 C         

     13   S      25           172.2560000    0.061766907377
     13   S      26            25.9109000    0.358794042852
     13   S      27             5.5333500    0.700713083689

     14   L      28             3.6649800   -0.395895162119    0.236459946619
     14   L      29             0.7705450    1.215834355681    0.860618805716

     15   L      30             0.1958570    1.000000000000    1.000000000000

 C         

     16   S      31           172.2560000    0.061766907377
     16   S      32            25.9109000    0.358794042852
     16   S      33             5.5333500    0.700713083689

     17   L      34             3.6649800   -0.395895162119    0.236459946619
     17   L      35             0.7705450    1.215834355681    0.860618805716

     18   L      36             0.1958570    1.000000000000    1.000000000000

 C         

     19   S      37           172.2560000    0.061766907377
     19   S      38            25.9109000    0.358794042852
     19   S      39             5.5333500    0.700713083689

     20   L      40             3.6649800   -0.395895162119    0.236459946619
     20   L      41             0.7705450    1.215834355681    0.860618805716

     21   L      42             0.1958570    1.000000000000    1.000000000000

 C         

     22   S      43           172.2560000    0.061766907377
     22   S      44            25.9109000    0.358794042852
     22   S      45             5.5333500    0.700713083689

     23   L      46             3.6649800   -0.395895162119    0.236459946619
     23   L      47             0.7705450    1.215834355681    0.860618805716

     24   L      48             0.1958570    1.000000000000    1.000000000000

 C         

     25   S      49           172.2560000    0.061766907377
     25   S      50            25.9109000    0.358794042852
     25   S      51             5.5333500    0.700713083689

     26   L      52             3.6649800   -0.395895162119    0.236459946619
     26   L      53             0.7705450    1.215834355681    0.860618805716

     27   L      54             0.1958570    1.000000000000    1.000000000000

 O         

     28   S      55           322.0370000    0.059239393389
     28   S      56            48.4308000    0.351499960776
     28   S      57            10.4206000    0.707657921031

     29   L      58             7.4029400   -0.404453583190    0.244586106967
     29   L      59             1.5762000    1.221561761397    0.853955373466

     30   L      60             0.3736840    1.000000000000    1.000000000000

 C         

     31   S      61           172.2560000    0.061766907377
     31   S      62            25.9109000    0.358794042852
     31   S      63             5.5333500    0.700713083689

     32   L      64             3.6649800   -0.395895162119    0.236459946619
     32   L      65             0.7705450    1.215834355681    0.860618805716

     33   L      66             0.1958570    1.000000000000    1.000000000000

 H         

     34   S      67             5.4471780    0.156284978695
     34   S      68             0.8245472    0.904690876670

     35   S      69             0.1831916    1.000000000000

 H         

     36   S      70             5.4471780    0.156284978695
     36   S      71             0.8245472    0.904690876670

     37   S      72             0.1831916    1.000000000000

 H         

     38   S      73             5.4471780    0.156284978695
     38   S      74             0.8245472    0.904690876670

     39   S      75             0.1831916    1.000000000000

 H         

     40   S      76             5.4471780    0.156284978695
     40   S      77             0.8245472    0.904690876670

     41   S      78             0.1831916    1.000000000000

 H         

     42   S      79             5.4471780    0.156284978695
     42   S      80             0.8245472    0.904690876670

     43   S      81             0.1831916    1.000000000000

 H         

     44   S      82             5.4471780    0.156284978695
     44   S      83             0.8245472    0.904690876670

     45   S      84             0.1831916    1.000000000000

 H         

     46   S      85             5.4471780    0.156284978695
     46   S      86             0.8245472    0.904690876670

     47   S      87             0.1831916    1.000000000000

 H         

     48   S      88             5.4471780    0.156284978695
     48   S      89             0.8245472    0.904690876670

     49   S      90             0.1831916    1.000000000000

 H         

     50   S      91             5.4471780    0.156284978695
     50   S      92             0.8245472    0.904690876670

     51   S      93             0.1831916    1.000000000000

 H         

     52   S      94             5.4471780    0.156284978695
     52   S      95             0.8245472    0.904690876670

     53   S      96             0.1831916    1.000000000000

 H         

     54   S      97             5.4471780    0.156284978695
     54   S      98             0.8245472    0.904690876670

     55   S      99             0.1831916    1.000000000000

 H         

     56   S     100             5.4471780    0.156284978695
     56   S     101             0.8245472    0.904690876670

     57   S     102             0.1831916    1.000000000000

 H         

     58   S     103             5.4471780    0.156284978695
     58   S     104             0.8245472    0.904690876670

     59   S     105             0.1831916    1.000000000000

 H         

     60   S     106             5.4471780    0.156284978695
     60   S     107             0.8245472    0.904690876670

     61   S     108             0.1831916    1.000000000000

 H         

     62   S     109             5.4471780    0.156284978695
     62   S     110             0.8245472    0.904690876670

     63   S     111             0.1831916    1.000000000000

 H         

     64   S     112             5.4471780    0.156284978695
     64   S     113             0.8245472    0.904690876670

     65   S     114             0.1831916    1.000000000000

 H         

     66   S     115             5.4471780    0.156284978695
     66   S     116             0.8245472    0.904690876670

     67   S     117             0.1831916    1.000000000000

 H         

     68   S     118             5.4471780    0.156284978695
     68   S     119             0.8245472    0.904690876670

     69   S     120             0.1831916    1.000000000000

 H         

     70   S     121             5.4471780    0.156284978695
     70   S     122             0.8245472    0.904690876670

     71   S     123             0.1831916    1.000000000000

 H         

     72   S     124             5.4471780    0.156284978695
     72   S     125             0.8245472    0.904690876670

     73   S     126             0.1831916    1.000000000000

 TOTAL NUMBER OF BASIS SET SHELLS             =   73
 NUMBER OF CARTESIAN GAUSSIAN BASIS FUNCTIONS =  139
 NUMBER OF ELECTRONS                          =   88
 CHARGE OF MOLECULE                           =    0
 SPIN MULTIPLICITY                            =    1
 NUMBER OF OCCUPIED ORBITALS (ALPHA)          =   44
 NUMBER OF OCCUPIED ORBITALS (BETA )          =   44
 TOTAL NUMBER OF ATOMS                        =   31
 THE NUCLEAR REPULSION ENERGY IS      689.9800104740

     $CONTRL OPTIONS
     ---------------
 SCFTYP=RHF          RUNTYP=ENERGY       EXETYP=RUN     
 MPLEVL=       0     CITYP =NONE         CCTYP =NONE         VBTYP =NONE    
 DFTTYP=NONE         TDDFT =NONE    
 MULT  =       1     ICHARG=       0     NZVAR =       0     COORD =UNIQUE  
 PP    =NONE         RELWFN=NONE         LOCAL =NONE         NUMGRD=       F
 ISPHER=      -1     NOSYM =       0     MAXIT =      60     UNITS =ANGS    
 PLTORB=       F     MOLPLT=       F     AIMPAC=       F     FRIEND=        
 NPRINT=       7     IREST =       0     GEOM  =INPUT   
 NORMF =       0     NORMP =       0     ITOL  =      20     ICUT  =       9
 INTTYP=BEST         GRDTYP=BEST         QMTTOL= 1.0E-06

     $SYSTEM OPTIONS
     ---------------
  REPLICATED MEMORY=    30000000 WORDS (ON EVERY NODE).
 DISTRIBUTED MEMDDI=        1000 MILLION WORDS IN AGGREGATE,
 MEMDDI DISTRIBUTED OVER   6 PROCESSORS IS   166666666 WORDS/PROCESSOR.
 TOTAL MEMORY REQUESTED ON EACH PROCESSOR=   196666666 WORDS.
 TIMLIM=      525600.00 MINUTES, OR     365.0 DAYS.
 PARALL= T  BALTYP=  DLB     KDIAG=    0  COREFL= F
 MXSEQ2=     300 MXSEQ3=     150  mem10=         0

          ----------------
          PROPERTIES INPUT
          ----------------

     MOMENTS            FIELD           POTENTIAL          DENSITY
 IEMOM =       1   IEFLD =       0   IEPOT =       0   IEDEN =       0
 WHERE =COMASS     WHERE =NUCLEI     WHERE =NUCLEI     WHERE =NUCLEI  
 OUTPUT=BOTH       OUTPUT=BOTH       OUTPUT=BOTH       OUTPUT=BOTH    
 IEMINT=       0   IEFINT=       0                     IEDINT=       0
                                                       MORB  =       0
          EXTRAPOLATION IN EFFECT
          SOSCF IN EFFECT
 ORBITAL PRINTING OPTION: NPREO=     1   139     2     1

     -------------------------------
     INTEGRAL TRANSFORMATION OPTIONS
     -------------------------------
     NWORD  =            0
     CUTOFF = 1.0E-09     MPTRAN =       0
     DIRTRF =       T     AOINTS =DUP     

          ----------------------
          INTEGRAL INPUT OPTIONS
          ----------------------
 NOPK  =       1 NORDER=       0 SCHWRZ=       T

     ------------------------------------------
     THE POINT GROUP IS C1 , NAXIS= 0, ORDER= 1
     ------------------------------------------

     DIMENSIONS OF THE SYMMETRY SUBSPACES ARE
 A   =  139

 ..... DONE SETTING UP THE RUN .....
 CPU     0: STEP CPU TIME=     0.02 TOTAL CPU TIME=          0.0 (      0.0 MIN)
 TOTAL WALL CLOCK TIME=          0.0 SECONDS, CPU UTILIZATION IS    50.00%

          ********************
          1 ELECTRON INTEGRALS
          ********************
 ...... END OF ONE-ELECTRON INTEGRALS ......
 CPU     0: STEP CPU TIME=     0.02 TOTAL CPU TIME=          0.0 (      0.0 MIN)
 TOTAL WALL CLOCK TIME=          0.1 SECONDS, CPU UTILIZATION IS    66.67%

          -------------
          GUESS OPTIONS
          -------------
          GUESS =HUCKEL            NORB  =       0          NORDER=       0
          MIX   =       F          PRTMO =       F          PUNMO =       F
          TOLZ  = 1.0E-08          TOLE  = 1.0E-05
          SYMDEN=       F          PURIFY=       F

 INITIAL GUESS ORBITALS GENERATED BY HUCKEL   ROUTINE.
 HUCKEL GUESS REQUIRES    185016 WORDS.

 SYMMETRIES FOR INITIAL GUESS ORBITALS FOLLOW.   BOTH SET(S).
    44 ORBITALS ARE OCCUPIED (   11 CORE ORBITALS).
    12=A       13=A       14=A       15=A       16=A       17=A       18=A   
    19=A       20=A       21=A       22=A       23=A       24=A       25=A   
    26=A       27=A       28=A       29=A       30=A       31=A       32=A   
    33=A       34=A       35=A       36=A       37=A       38=A       39=A   
    40=A       41=A       42=A       43=A       44=A       45=A       46=A   
    47=A       48=A       49=A       50=A       51=A       52=A       53=A   
    54=A   
 ...... END OF INITIAL ORBITAL SELECTION ......
 CPU     0: STEP CPU TIME=     0.05 TOTAL CPU TIME=          0.1 (      0.0 MIN)
 TOTAL WALL CLOCK TIME=          0.1 SECONDS, CPU UTILIZATION IS    75.00%

                    ----------------------
                    AO INTEGRAL TECHNOLOGY
                    ----------------------
     S,P,L SHELL ROTATED AXIS INTEGRALS, REPROGRAMMED BY
        KAZUYA ISHIMURA (IMS) AND JOSE SIERRA (SYNSTAR).
     S,P,D,L SHELL ROTATED AXIS INTEGRALS PROGRAMMED BY
        KAZUYA ISHIMURA (INSTITUTE FOR MOLECULAR SCIENCE).
     S,P,D,F,G SHELL TO TOTAL QUARTET ANGULAR MOMENTUM SUM 5,
        ERIC PROGRAM BY GRAHAM FLETCHER (ELORET AND NASA ADVANCED
        SUPERCOMPUTING DIVISION, AMES RESEARCH CENTER).
     S,P,D,F,G,L SHELL GENERAL RYS QUADRATURE PROGRAMMED BY
        MICHEL DUPUIS (PACIFIC NORTHWEST NATIONAL LABORATORY).

          --------------------
          2 ELECTRON INTEGRALS
          --------------------

 DIRECT SCF METHOD SKIPS INTEGRAL STORAGE ON DISK.
 DIRECT TRANSFORMATION SKIPS AO INTEGRAL STORAGE ON DISK.
  ...... END OF TWO-ELECTRON INTEGRALS .....
 CPU     0: STEP CPU TIME=     0.02 TOTAL CPU TIME=          0.1 (      0.0 MIN)
 TOTAL WALL CLOCK TIME=          0.1 SECONDS, CPU UTILIZATION IS    78.57%

          --------------------------
                 RHF SCF CALCULATION
          --------------------------

     NUCLEAR ENERGY =       689.9800104740
     MAXIT =   60     NPUNCH=    2
     EXTRAP=T  DAMP=F  SHIFT=F  RSTRCT=F  DIIS=F  DEM=F  SOSCF=T
     DENSITY MATRIX CONV=  2.00E-05
     SOSCF WILL OPTIMIZE    4180 ORBITAL ROTATIONS, SOGTOL=   0.250
     MEMORY REQUIRED FOR RHF ITERS=    203671 WORDS.

 DIRECT SCF CALCULATION, SCHWRZ=T   FDIFF=T,  DIRTHR=  0.00E+00 NITDIR=10
 SCHWARZ INEQUALITY OVERHEAD:      9150 INTEGRALS, T=        0.00

                                                                                   NONZERO     BLOCKS
 ITER EX DEM     TOTAL ENERGY        E CHANGE  DENSITY CHANGE     ORB. GRAD      INTEGRALS    SKIPPED
   1  0  0     -461.6641160993  -461.6641160993   0.672234489   0.000000000       28263942    1890997
          ---------------START SECOND ORDER SCF---------------
   2  1  0     -462.5818529934    -0.9177368941   0.143025623   0.037832549       28141642    1936456
   3  2  0     -462.6235474801    -0.0416944867   0.082590159   0.007234572       27582817    2044613
   4  3  0     -462.6292508383    -0.0057033582   0.006409423   0.004044605       26982552    2137897
   5  4  0     -462.6293852882    -0.0001344499   0.001486267   0.001090872       25442246    2287474
   6  5  0     -462.6294079625    -0.0000226743   0.000576704   0.000335512       24098942    2386475
   7  6  0     -462.6294093413    -0.0000013788   0.000349335   0.000047189       22267352    2540795
   8  7  0     -462.6294094928    -0.0000001514   0.000036775   0.000034420       21175786    2618254
   9  8  0     -462.6294095048    -0.0000000121   0.000008312   0.000004760       19116081    2747437
  10  9  0     -462.6294095074    -0.0000000026   0.000003372   0.000000559       17432694    2855362

          -----------------
          DENSITY CONVERGED
          -----------------
     TIME TO FORM FOCK OPERATORS=       4.7 SECONDS (       0.5 SEC/ITER)
     FOCK TIME ON FIRST ITERATION=       0.5, LAST ITERATION=       0.4
     TIME TO SOLVE SCF EQUATIONS=       0.1 SECONDS (       0.0 SEC/ITER)

 FINAL RHF ENERGY IS     -462.6294095074 AFTER  10 ITERATIONS

          ------------
          EIGENVECTORS
          ------------

                      1          2          3          4          5
                  -20.4367   -11.2186   -11.1667   -11.1649   -11.1636
                     A          A          A          A          A   
    1  C  1  S    0.000048  -0.003220   0.987780  -0.026974   0.023454
    2  C  1  S    0.000508  -0.001314   0.108304  -0.002137   0.000852
    3  C  1  X    0.000557  -0.001399   0.000238   0.000476   0.000220
    4  C  1  Y    0.000091   0.000802   0.000138  -0.000047  -0.000472
    5  C  1  Z   -0.000080  -0.000049  -0.000654   0.000459  -0.000269
    6  C  1  S    0.000244  -0.000441  -0.107743  -0.000259   0.014215
    7  C  1  X   -0.002598   0.005917  -0.002937  -0.005437   0.007120
    8  C  1  Y   -0.002749   0.000717  -0.002276   0.001580  -0.010929
    9  C  1  Z   -0.000338   0.001832   0.008270  -0.001350  -0.005167
   10  C  2  S    0.000160  -0.003389  -0.027611  -0.127335   0.977608
   11  C  2  S    0.000462  -0.003611  -0.005372  -0.014711   0.104145
   12  C  2  X   -0.000786   0.000576  -0.000877  -0.001017   0.000159
   13  C  2  Y    0.000150  -0.000351   0.000480  -0.000407   0.000482
   14  C  2  Z   -0.000177  -0.000141   0.000320   0.000040   0.000087
   15  C  2  S   -0.004006   0.026337   0.025425   0.014061  -0.092722
   16  C  2  X    0.000116   0.015146  -0.007778   0.002990  -0.004661
   17  C  2  Y    0.000701   0.000549   0.012077   0.000911  -0.004840
   18  C  2  Z   -0.004118   0.004847   0.006031   0.000065  -0.005084
   19  C  3  S   -0.000937   0.988359   0.002972   0.000888   0.002500
   20  C  3  S   -0.004165   0.106067  -0.000961  -0.002175  -0.002907
   21  C  3  X    0.000250  -0.000687   0.001228   0.000729  -0.000149
   22  C  3  Y   -0.001227   0.000905  -0.000280   0.000708  -0.000042
   23  C  3  Z    0.001002   0.000032  -0.000173  -0.000254  -0.000390
   24  C  3  S    0.020963  -0.097269   0.002345   0.020555   0.026182
   25  C  3  X   -0.000389   0.006037  -0.002597   0.009734  -0.013155
   26  C  3  Y   -0.001362  -0.011664   0.000663   0.012739   0.003371
   27  C  3  Z    0.013702   0.002743   0.001043   0.003444  -0.001103
   28  C  4  S    0.000229  -0.002286   0.023778   0.979600   0.126237
   29  C  4  S    0.001018  -0.002720   0.003226   0.107655   0.012821
   30  C  4  X    0.000261   0.000002  -0.000542  -0.000482   0.001000
   31  C  4  Y    0.000900  -0.000527   0.000121  -0.000372   0.000512
   32  C  4  Z    0.000241  -0.000036  -0.000323   0.000468   0.000474
   33  C  4  S   -0.006920   0.021415  -0.003518  -0.107122  -0.013476
   34  C  4  X    0.000595  -0.010231   0.004793   0.002505  -0.004878
   35  C  4  Y    0.000864  -0.014186  -0.000942   0.003016   0.001215
   36  C  4  Z   -0.005117  -0.001561   0.000906  -0.007788  -0.002645
   37  C  5  S    0.000068  -0.004148  -0.011242  -0.006636   0.005302
   38  C  5  S    0.000692  -0.002720  -0.002437  -0.003263   0.001438
   39  C  5  X    0.000010  -0.000107   0.001035   0.000775   0.000161
   40  C  5  Y   -0.000468   0.001632   0.000324  -0.000400  -0.000210
   41  C  5  Z   -0.000182   0.000218  -0.000052  -0.000475   0.000186
   42  C  5  S    0.000176   0.005812   0.003914   0.023637  -0.003434
   43  C  5  X    0.002450  -0.001279  -0.001532   0.007466   0.003570
   44  C  5  Y    0.000029  -0.004617  -0.001302  -0.012608   0.001396
   45  C  5  Z    0.000131  -0.000601  -0.000171  -0.005563   0.000784
   46  C  6  S   -0.000116   0.001796  -0.008746  -0.015239  -0.035413
   47  C  6  S   -0.000597   0.001630  -0.003454  -0.002417  -0.006084
   48  C  6  X    0.000075   0.000069  -0.000807  -0.000985  -0.000102
   49  C  6  Y   -0.000277  -0.000142  -0.000661   0.000123   0.001225
   50  C  6  Z   -0.000003  -0.000350   0.000059   0.000110   0.000636
   51  C  6  S    0.004635  -0.006255   0.024442   0.002275   0.009720
   52  C  6  X    0.000202  -0.002683  -0.007601   0.001963   0.001528
   53  C  6  Y   -0.000847   0.004476  -0.013071   0.000374  -0.004331
   54  C  6  Z    0.000555   0.000814  -0.001636   0.000067  -0.002099
   55  C  7  S    0.000002  -0.002208   0.003601  -0.019663  -0.049904
   56  C  7  S    0.000240  -0.000899   0.000658  -0.004380  -0.006540
   57  C  7  X   -0.000083   0.000747   0.000131  -0.000819   0.000113
   58  C  7  Y   -0.000115   0.000592  -0.000000   0.000097   0.000341
   59  C  7  Z   -0.000280   0.000071  -0.000016  -0.000234   0.000036
   60  C  7  S    0.001338   0.000306  -0.002857   0.023449   0.011235
   61  C  7  X   -0.001593  -0.002823   0.000727  -0.014081  -0.004934
   62  C  7  Y    0.001063  -0.001615  -0.000030  -0.000102  -0.001719
   63  C  7  Z    0.001282   0.000020   0.000615  -0.001600  -0.000898
   64  C  8  S    0.000002  -0.000246  -0.000213  -0.006780  -0.002317
   65  C  8  S    0.000136  -0.000018  -0.000105  -0.001457  -0.000360
   66  C  8  X   -0.000318   0.000032  -0.000081   0.000566   0.000474
   67  C  8  Y    0.000051   0.000071   0.000047  -0.000355  -0.000212
   68  C  8  Z    0.000075  -0.000274  -0.000005   0.000043  -0.000032
   69  C  8  S    0.001041   0.000330   0.000842   0.001452  -0.001757
   70  C  8  X    0.000836   0.001226   0.000086   0.000385  -0.000271
   71  C  8  Y    0.000400  -0.000124   0.000082   0.000164   0.000036
   72  C  8  Z    0.000102   0.000965   0.000138  -0.000792  -0.000771
   73  C  9  S    0.000025  -0.001712  -0.000186  -0.008478  -0.002156
   74  C  9  S    0.000174  -0.001373  -0.000096  -0.001900  -0.000454
   75  C  9  X   -0.000099   0.000454  -0.000078   0.000699   0.000125
   76  C  9  Y   -0.000032   0.000049  -0.000055   0.000244   0.000076
   77  C  9  Z    0.000056   0.000062  -0.000023   0.000204  -0.000001
   78  C  9  S   -0.000337   0.004131   0.000780   0.002619   0.000704
   79  C  9  X    0.000796  -0.002923   0.000071  -0.000482   0.000079
   80  C  9  Y    0.000069  -0.001144   0.000011   0.000024  -0.000178
   81  C  9  Z   -0.000611  -0.000179   0.000102  -0.000896   0.000253
   82  O 10  S    0.983526  -0.000268   0.000050   0.000080   0.000044
   83  O 10  S    0.098305  -0.001123   0.000461   0.000348  -0.000012
   84  O 10  X   -0.001631   0.000010  -0.000211  -0.000224   0.000223
   85  O 10  Y   -0.001072  -0.000177   0.000072  -0.000582  -0.000118
   86  O 10  Z   -0.003196  -0.000523  -0.000091   0.000194   0.000240
   87  O 10  S   -0.046773   0.010783  -0.001282  -0.003016  -0.001850
   88  O 10  X    0.003481  -0.000854   0.000983   0.000480   0.000357
   89  O 10  Y    0.000263   0.003522  -0.000464   0.000934  -0.000424
   90  O 10  Z    0.009764  -0.003570   0.000626   0.000543   0.000681
   91  C 11  S    0.000048  -0.001815  -0.004707   0.003247  -0.016903
   92  C 11  S    0.000295  -0.001444  -0.002762   0.000799  -0.002953
   93  C 11  X   -0.000044  -0.000184   0.001007  -0.000091  -0.000557
   94  C 11  Y   -0.000043   0.000286  -0.000089  -0.000038   0.000425
   95  C 11  Z    0.000037   0.000173   0.000210  -0.000054   0.000247
   96  C 11  S   -0.001822   0.005829   0.023812  -0.004091   0.004539
   97  C 11  X   -0.000673   0.003652   0.012300  -0.001735   0.001440
   98  C 11  Y    0.000998  -0.002070  -0.000484   0.000175  -0.000190
   99  C 11  Z   -0.000650  -0.000167   0.002488  -0.000410  -0.000493
  100  H 12  S   -0.000242  -0.000472   0.001765   0.000796  -0.001283
  101  H 12  S    0.000253  -0.000520   0.014160  -0.000148   0.001099
  102  H 13  S    0.000906  -0.001115  -0.000986  -0.000306   0.000961
  103  H 13  S   -0.000604   0.000689   0.000532  -0.000121   0.013234
  104  H 14  S   -0.000585  -0.001534  -0.001679  -0.000243   0.001230
  105  H 14  S    0.000004   0.000875  -0.000187  -0.003285   0.014444
  106  H 15  S   -0.001197   0.000907  -0.000258  -0.001056  -0.001016
  107  H 15  S    0.000572   0.013979   0.002253   0.001431   0.000899
  108  H 16  S   -0.000535  -0.001509   0.000626   0.001770  -0.000103
  109  H 16  S   -0.000026   0.000742   0.000577   0.014280   0.000555
  110  H 17  S   -0.000111  -0.000819  -0.000135  -0.001771   0.000413
  111  H 17  S    0.000317  -0.000745  -0.001415  -0.000053  -0.000095
  112  H 18  S   -0.000071  -0.000045  -0.000357  -0.001035  -0.000215
  113  H 18  S   -0.000642   0.002587   0.001962   0.001460  -0.000373
  114  H 19  S   -0.000150   0.000741  -0.001671   0.000060  -0.000710
  115  H 19  S   -0.000251  -0.000285  -0.000033  -0.001211  -0.001998
  116  H 20  S   -0.000267  -0.000110  -0.001022  -0.000271  -0.000206
  117  H 20  S   -0.000275  -0.001373   0.000567   0.001174   0.002298
  118  H 21  S   -0.000541  -0.000151   0.000027  -0.001680  -0.000650
  119  H 21  S    0.000279  -0.000374   0.000121  -0.000302  -0.000822
  120  H 22  S   -0.000074   0.000463   0.000017  -0.000084   0.000019
  121  H 22  S    0.000078  -0.000364  -0.000146  -0.001139  -0.000351
  122  H 23  S   -0.000130  -0.000211  -0.000058  -0.000248   0.000106
  123  H 23  S   -0.000494  -0.000593  -0.000212   0.000851   0.000798
  124  H 24  S    0.000217   0.000014   0.000067   0.000434  -0.000075
  125  H 24  S   -0.000417  -0.000591  -0.000362  -0.001691   0.000743
  126  H 25  S    0.000061  -0.000451  -0.000019  -0.000084  -0.000022
  127  H 25  S   -0.000449  -0.000152  -0.000059  -0.001638   0.000060
  128  H 26  S    0.000191  -0.000349   0.000089   0.000196   0.000088
  129  H 26  S    0.000108  -0.000766  -0.000536  -0.001493  -0.000445
  130  H 27  S   -0.000026  -0.000074  -0.000048  -0.000240  -0.000092
  131  H 27  S   -0.000190   0.001123  -0.000196   0.001157   0.000135
  132  H 28  S    0.002988  -0.000217   0.000509   0.000776  -0.000355
  133  H 28  S    0.005354   0.002301  -0.000825   0.001140   0.000209
  134  H 29  S    0.000161  -0.000624  -0.001087   0.000182  -0.000015
  135  H 29  S    0.000496  -0.000159  -0.000051   0.000121  -0.001319
  136  H 30  S    0.000041  -0.000058  -0.001115   0.000220  -0.000299
  137  H 30  S   -0.000058   0.001042  -0.000229  -0.000182   0.001057
  138  H 31  S    0.000083  -0.000487  -0.001516   0.000059  -0.000196
  139  H 31  S   -0.000423  -0.000093  -0.000198   0.000519  -0.001459

                      6          7          8          9         10
                  -11.1619   -11.1564   -11.1545   -11.1521   -11.1470
                     A          A          A          A          A   
    1  C  1  S   -0.003127   0.007629   0.004747   0.011103  -0.000041
    2  C  1  S   -0.000007  -0.000973  -0.000962  -0.000002  -0.000001
    3  C  1  X    0.000008   0.000165   0.000113  -0.001012   0.000041
    4  C  1  Y    0.000015   0.000557   0.000064  -0.000518  -0.000051
    5  C  1  Z   -0.000136  -0.000001  -0.000015  -0.000426   0.000004
    6  C  1  S   -0.001499   0.016272   0.016952   0.001163   0.000210
    7  C  1  X   -0.001353   0.008819  -0.011338   0.004259  -0.000279
    8  C  1  Y   -0.001642   0.011584   0.001300  -0.000732  -0.000081
    9  C  1  Z    0.001327   0.001831  -0.002147   0.001280  -0.000132
   10  C  2  S    0.046223   0.031802   0.019860  -0.003753   0.000878
   11  C  2  S    0.004025   0.001170   0.000831   0.000580   0.000007
   12  C  2  X   -0.000437   0.000011   0.001016  -0.000057  -0.000168
   13  C  2  Y   -0.000128  -0.001332  -0.000457   0.000169   0.000030
   14  C  2  Z    0.000194  -0.000180   0.000203  -0.000186   0.000011
   15  C  2  S   -0.000876   0.003369  -0.000860  -0.004324   0.000304
   16  C  2  X    0.002345   0.001547  -0.004548  -0.002030   0.000623
   17  C  2  Y    0.001774   0.004402   0.001699  -0.003164  -0.000499
   18  C  2  Z   -0.001234   0.000765  -0.001912  -0.001958  -0.000113
   19  C  3  S    0.002266  -0.001358   0.001232   0.003624   0.001270
   20  C  3  S   -0.000617   0.001327  -0.001011  -0.002180  -0.001119
   21  C  3  X   -0.000575  -0.000091   0.000355   0.000018  -0.000137
   22  C  3  Y   -0.000230   0.000100  -0.000023  -0.001401  -0.000115
   23  C  3  Z   -0.000407   0.000364  -0.000026  -0.000652  -0.000158
   24  C  3  S    0.001107  -0.006093   0.005770   0.007157   0.005529
   25  C  3  X    0.000137   0.002254  -0.003529  -0.000620   0.002585
   26  C  3  Y    0.000033  -0.003579   0.000854   0.004736   0.002530
   27  C  3  Z    0.002511  -0.001647   0.000367   0.003452   0.001001
   28  C  4  S    0.024376   0.019925   0.000674   0.006160   0.006846
   29  C  4  S    0.000166   0.000950   0.000366  -0.001127  -0.000095
   30  C  4  X    0.000326   0.001101   0.000185  -0.000061  -0.000722
   31  C  4  Y    0.000130  -0.000643  -0.000033   0.000322  -0.000988
   32  C  4  Z    0.000264   0.000090   0.000049   0.000240  -0.000066
   33  C  4  S    0.021231  -0.000285  -0.003106   0.016414  -0.000052
   34  C  4  X    0.016331  -0.004754   0.001214  -0.007750   0.002911
   35  C  4  Y   -0.001577  -0.000709  -0.000329   0.012056   0.004995
   36  C  4  Z    0.001157  -0.001500  -0.001357   0.004984  -0.000004
   37  C  5  S   -0.013078  -0.027320  -0.040640   0.986581  -0.001834
   38  C  5  S   -0.002116  -0.005367  -0.005629   0.105358   0.000171
   39  C  5  X   -0.000591  -0.000375   0.000293  -0.000376  -0.000034
   40  C  5  Y    0.000227   0.000187   0.000074  -0.000481  -0.000131
   41  C  5  Z   -0.000256  -0.000009  -0.000021  -0.000345   0.000140
   42  C  5  S    0.002112   0.024624   0.011197  -0.094478  -0.001488
   43  C  5  X    0.002000  -0.013289  -0.004215   0.003843  -0.001768
   44  C  5  Y   -0.000822   0.000220  -0.001208   0.004770   0.000796
   45  C  5  Z    0.001782  -0.003460  -0.001039   0.005839   0.000384
   46  C  6  S   -0.018788   0.983292   0.081443   0.029404   0.001573
   47  C  6  S   -0.003132   0.104803   0.007642   0.000475   0.000048
   48  C  6  X   -0.000434   0.000161   0.001010   0.000491  -0.000071
   49  C  6  Y    0.000163  -0.000538   0.000144   0.000177   0.000056
   50  C  6  Z    0.000194  -0.000170   0.000376   0.000195   0.000025
   51  C  6  S    0.005981  -0.093878  -0.007767   0.020328  -0.000392
   52  C  6  X    0.002292  -0.004318  -0.005236   0.013436   0.000004
   53  C  6  Y   -0.002061   0.007289   0.000502  -0.001830  -0.000455
   54  C  6  Z   -0.001432  -0.001574  -0.002446   0.002495  -0.000431
   55  C  7  S    0.986847   0.015866   0.002563   0.013647   0.002439
   56  C  7  S    0.107893   0.000753   0.000050   0.000619  -0.000589
   57  C  7  X    0.000102   0.000222   0.000141   0.000606   0.000120
   58  C  7  Y    0.000175  -0.000307   0.000015  -0.000478   0.000135
   59  C  7  Z   -0.000677  -0.000095  -0.000113  -0.000227  -0.000093
   60  C  7  S   -0.105771   0.002463   0.000124   0.000048   0.009853
   61  C  7  X    0.000035  -0.003553  -0.001293  -0.002297   0.004265
   62  C  7  Y   -0.001616   0.002031  -0.000015   0.001679   0.011989
   63  C  7  Z    0.007842   0.000249   0.000967   0.000830   0.001630
   64  C  8  S   -0.003984  -0.001900  -0.000771  -0.016154  -0.222141
   65  C  8  S   -0.002812  -0.000420  -0.000153  -0.002703  -0.024765
   66  C  8  X   -0.000471   0.000014   0.000027   0.000323  -0.000271
   67  C  8  Y    0.000844   0.000014   0.000010  -0.000155  -0.001143
   68  C  8  Z    0.000449  -0.000034   0.000003   0.000019   0.000072
   69  C  8  S    0.024567   0.001818   0.000622   0.004820   0.022458
   70  C  8  X   -0.006685  -0.000174  -0.000064  -0.002263   0.000268
   71  C  8  Y    0.010298   0.000601   0.000448   0.001407   0.004470
   72  C  8  Z    0.004910   0.000829   0.000034   0.000354  -0.000285
   73  C  9  S   -0.004146  -0.002296  -0.000621  -0.001857   0.962285
   74  C  9  S   -0.002828  -0.000330  -0.000117  -0.000128   0.099687
   75  C  9  X   -0.000535   0.000334   0.000032  -0.000077   0.000025
   76  C  9  Y   -0.000914   0.000140   0.000009  -0.000104  -0.000389
   77  C  9  Z    0.000055   0.000026   0.000007  -0.000318  -0.000250
   78  C  9  S    0.024529  -0.000682   0.000377   0.000815  -0.078871
   79  C  9  X   -0.006848  -0.000415  -0.000044   0.001397   0.001672
   80  C  9  Y   -0.011308  -0.000504  -0.000439   0.000696   0.004140
   81  C  9  Z    0.000419  -0.000493  -0.000241   0.001353   0.000205
   82  O 10  S    0.000050  -0.000039   0.000023   0.000083   0.000025
   83  O 10  S    0.000385  -0.000278   0.000154   0.000693   0.000141
   84  O 10  X   -0.000021  -0.000001  -0.000018   0.000015  -0.000096
   85  O 10  Y    0.000077  -0.000031   0.000006   0.000211  -0.000055
   86  O 10  Z    0.000047   0.000040  -0.000001  -0.000042   0.000008
   87  O 10  S   -0.001715   0.001371  -0.000846  -0.002730  -0.001010
   88  O 10  X   -0.000089  -0.000236   0.000327   0.000073   0.000206
   89  O 10  Y   -0.000665   0.000644  -0.000194  -0.001614  -0.000107
   90  O 10  Z    0.000402  -0.000566   0.000369   0.000924   0.000390
   91  C 11  S   -0.002571  -0.083413   0.983124   0.037869   0.000190
   92  C 11  S   -0.000470  -0.009870   0.101405   0.002846   0.000020
   93  C 11  X   -0.000078  -0.000601   0.000163  -0.000207  -0.000020
   94  C 11  Y    0.000013  -0.000460  -0.000002  -0.000301   0.000019
   95  C 11  Z    0.000084  -0.000003  -0.000121  -0.000044   0.000008
   96  C 11  S    0.000565   0.010077  -0.080073   0.001401  -0.000192
   97  C 11  X    0.000558   0.001754  -0.004731   0.002868  -0.000070
   98  C 11  Y    0.000277   0.000272   0.000270   0.001631  -0.000087
   99  C 11  Z   -0.000815  -0.000317  -0.001000   0.000721  -0.000108
  100  H 12  S   -0.000111  -0.001349  -0.001252  -0.000413   0.000007
  101  H 12  S   -0.000516   0.000681   0.000987  -0.001046   0.000029
  102  H 13  S    0.000140  -0.000105  -0.000124  -0.000123  -0.000076
  103  H 13  S    0.001632   0.003142  -0.000519  -0.000921   0.000139
  104  H 14  S   -0.000512  -0.000568  -0.000495   0.000501  -0.000066
  105  H 14  S    0.000027  -0.000751  -0.001200  -0.000572   0.000122
  106  H 15  S    0.000432  -0.000122  -0.000172  -0.000015  -0.000247
  107  H 15  S   -0.000983  -0.000977   0.000568   0.002542  -0.000125
  108  H 16  S   -0.001711  -0.000271   0.000016  -0.001504  -0.000321
  109  H 16  S    0.000391  -0.000975  -0.000156   0.000852  -0.000786
  110  H 17  S   -0.000210  -0.001439  -0.000579   0.001181   0.000344
  111  H 17  S   -0.001973   0.000176  -0.000751   0.014433  -0.000361
  112  H 18  S    0.000165  -0.000942  -0.000272   0.000774   0.000216
  113  H 18  S   -0.001378  -0.000180  -0.000004   0.014698  -0.000683
  114  H 19  S   -0.000542   0.001296  -0.000313  -0.001512  -0.000056
  115  H 19  S   -0.000766   0.014462  -0.000193   0.000883  -0.000039
  116  H 20  S    0.000003   0.001000  -0.000038  -0.000928   0.000064
  117  H 20  S    0.000915   0.013424   0.000071   0.001101   0.000265
  118  H 21  S    0.001694  -0.000374  -0.000207  -0.000062  -0.000898
  119  H 21  S    0.014303   0.000314  -0.000292  -0.000841   0.000625
  120  H 22  S   -0.001572  -0.000078  -0.000014  -0.000431  -0.000628
  121  H 22  S   -0.000074   0.000309  -0.000137  -0.000262  -0.004646
  122  H 23  S   -0.001137  -0.000139  -0.000036  -0.000128  -0.000485
  123  H 23  S   -0.000141  -0.000047   0.000009   0.000677  -0.004557
  124  H 24  S   -0.001305  -0.000021  -0.000036  -0.000218  -0.000052
  125  H 24  S    0.000317  -0.000233   0.000231  -0.000772  -0.001124
  126  H 25  S   -0.001552  -0.000056  -0.000025   0.000333   0.000482
  127  H 25  S   -0.000052  -0.000049  -0.000116   0.000095   0.014183
  128  H 26  S   -0.001271  -0.000157  -0.000040   0.000336   0.000092
  129  H 26  S    0.000331   0.000975   0.000368  -0.002337   0.013513
  130  H 27  S   -0.001159   0.000051  -0.000021  -0.000237   0.000408
  131  H 27  S   -0.000200   0.000552   0.000030  -0.000737   0.014025
  132  H 28  S   -0.000025   0.000075   0.000004  -0.000107   0.000100
  133  H 28  S   -0.000218  -0.000095   0.000054  -0.000189   0.000205
  134  H 29  S    0.000022  -0.000339   0.000292  -0.000033   0.000000
  135  H 29  S    0.000120   0.000023   0.013780   0.001552  -0.000044
  136  H 30  S   -0.000004  -0.000035   0.000320  -0.000517   0.000016
  137  H 30  S    0.000246  -0.002121   0.013633   0.000472   0.000077
  138  H 31  S   -0.000152  -0.000197   0.000404  -0.000397   0.000003
  139  H 31  S   -0.000457  -0.002552   0.014154   0.000500  -0.000033

                     11         12         13         14         15
                  -11.1460    -1.3432    -1.1197    -1.0754    -1.0058
                     A          A          A          A          A   
    1  C  1  S    0.000260  -0.006288  -0.097740   0.095549   0.069897
    2  C  1  S    0.000028   0.005932   0.091119  -0.087017  -0.060267
    3  C  1  X   -0.000010   0.003409   0.020335   0.002108   0.047804
    4  C  1  Y   -0.000012  -0.003355   0.006129  -0.001100   0.024529
    5  C  1  Z    0.000068  -0.000631  -0.014698   0.013840   0.016519
    6  C  1  S   -0.000086   0.007822   0.241492  -0.251201  -0.206264
    7  C  1  X   -0.000264   0.006337  -0.004800   0.006103   0.000666
    8  C  1  Y    0.000257   0.009878   0.002839  -0.003380  -0.002597
    9  C  1  Z   -0.000373  -0.001706  -0.013905   0.014071   0.010608
   10  C  2  S    0.001810  -0.019211  -0.079942   0.059537   0.036775
   11  C  2  S   -0.000147   0.019230   0.081965  -0.056254  -0.034547
   12  C  2  X   -0.000112   0.016565   0.005673   0.022184   0.037755
   13  C  2  Y   -0.000032  -0.003014   0.027696  -0.020201  -0.007899
   14  C  2  Z   -0.000050   0.009771   0.015610  -0.014010  -0.006150
   15  C  2  S    0.001273   0.027439   0.172739  -0.152337  -0.101040
   16  C  2  X    0.001019  -0.011591   0.004552  -0.018006  -0.003429
   17  C  2  Y   -0.000052  -0.005520  -0.001668   0.005719   0.010917
   18  C  2  Z    0.000512   0.016796   0.001523  -0.003687  -0.003111
   19  C  3  S    0.000668  -0.077135  -0.058503  -0.008677  -0.028405
   20  C  3  S   -0.000269   0.081423   0.063013   0.009720   0.026340
   21  C  3  X   -0.000484   0.001551  -0.012425   0.045124   0.021348
   22  C  3  Y   -0.000147  -0.026762   0.045028   0.018620   0.033749
   23  C  3  Z    0.000191   0.067974  -0.024828   0.001821  -0.000472
   24  C  3  S    0.000614   0.135318   0.115373   0.020036   0.084334
   25  C  3  X    0.001822  -0.004887  -0.004805  -0.010793  -0.014112
   26  C  3  Y    0.001096   0.002641   0.002891  -0.008188   0.008268
   27  C  3  Z    0.000303  -0.028377  -0.017982  -0.009950  -0.007876
   28  C  4  S    0.008946  -0.019000  -0.093636  -0.077843  -0.069077
   29  C  4  S   -0.000049   0.016317   0.089896   0.072878   0.060307
   30  C  4  X   -0.000986  -0.008123  -0.013901   0.043443  -0.058693
   31  C  4  Y    0.000455  -0.016034   0.001270  -0.002456   0.022661
   32  C  4  Z    0.000427   0.004111   0.008991   0.007555   0.012414
   33  C  4  S   -0.001098   0.040528   0.226159   0.197847   0.203732
   34  C  4  X    0.003631   0.005608  -0.004676  -0.012990   0.009989
   35  C  4  Y   -0.000670   0.004817  -0.005377  -0.006897  -0.002702
   36  C  4  Z   -0.002852   0.025212   0.005341   0.009523   0.001842
   37  C  5  S    0.015672  -0.005902  -0.082717  -0.015328  -0.112306
   38  C  5  S    0.000659   0.006479   0.083800   0.015492   0.102853
   39  C  5  X   -0.000281   0.000762  -0.011586   0.037045  -0.005588
   40  C  5  Y    0.000058  -0.004311  -0.022390  -0.013311  -0.011931
   41  C  5  Z    0.000032  -0.001094  -0.020029  -0.005470  -0.016118
   42  C  5  S    0.002638   0.001126   0.177807   0.036003   0.314142
   43  C  5  X    0.002559  -0.010628   0.000100  -0.008583  -0.010278
   44  C  5  Y   -0.001888   0.001655   0.004970   0.011169   0.000137
   45  C  5  Z   -0.000587  -0.002136  -0.004588  -0.001418  -0.007610
   46  C  6  S    0.002546  -0.002856  -0.085758   0.050262  -0.046886
   47  C  6  S    0.000023   0.004989   0.086682  -0.048346   0.041619
   48  C  6  X   -0.000160   0.001242   0.010449   0.024380   0.061704
   49  C  6  Y    0.000022  -0.002221  -0.031942   0.025549   0.018629
   50  C  6  Z   -0.000039   0.000424   0.001917   0.001708   0.011568
   51  C  6  S    0.000871  -0.008486   0.185753  -0.123247   0.132768
   52  C  6  X    0.001075  -0.000604   0.004478  -0.014501  -0.001391
   53  C  6  Y    0.000077   0.003189  -0.002242  -0.001642  -0.010524
   54  C  6  Z    0.000544  -0.002556   0.006409  -0.005395  -0.004995
   55  C  7  S    0.003952  -0.005702  -0.060973  -0.122903   0.066560
   56  C  7  S   -0.001055   0.006229   0.059327   0.111674  -0.056361
   57  C  7  X    0.000059  -0.004124  -0.018460   0.000496  -0.057171
   58  C  7  Y   -0.000077  -0.000750   0.003026   0.003733   0.005469
   59  C  7  Z   -0.000129   0.000329  -0.008957  -0.016743   0.009760
   60  C  7  S    0.017022  -0.001077   0.142261   0.320904  -0.203139
   61  C  7  X    0.006365   0.004680   0.018616   0.004583   0.001097
   62  C  7  Y   -0.007382  -0.010032   0.006449   0.006753  -0.002181
   63  C  7  Z   -0.003572  -0.006053  -0.008502  -0.015351   0.010036
   64  C  8  S    0.962052  -0.001951  -0.028948  -0.075166   0.076623
   65  C  8  S    0.098801   0.003273   0.031760   0.077590  -0.074585
   66  C  8  X   -0.000096  -0.001175  -0.011152  -0.018516   0.003154
   67  C  8  Y   -0.000046   0.000190   0.013932   0.030735  -0.020652
   68  C  8  Z   -0.000050   0.000714   0.006444   0.015106  -0.010943
   69  C  8  S   -0.076944  -0.007058   0.054170   0.165371  -0.200321
   70  C  8  X    0.001979  -0.000552   0.000417   0.001034  -0.002293
   71  C  8  Y   -0.002530   0.000585  -0.008031  -0.006594  -0.000958
   72  C  8  Z   -0.001995  -0.002194  -0.001073   0.001382  -0.002564
   73  C  9  S    0.221638  -0.000968  -0.029979  -0.075521   0.068243
   74  C  9  S    0.021032   0.000899   0.033493   0.078395  -0.067123
   75  C  9  X   -0.000232  -0.000899  -0.012088  -0.019582   0.001087
   76  C  9  Y    0.000965  -0.000962  -0.014649  -0.033473   0.023851
   77  C  9  Z    0.000437  -0.000040   0.000812   0.001559  -0.000276
   78  C  9  S   -0.013688   0.005102   0.050699   0.163014  -0.175521
   79  C  9  X    0.001040  -0.001600   0.002203   0.002851  -0.005979
   80  C  9  Y   -0.002309  -0.000921   0.007389   0.006338  -0.000517
   81  C  9  Z   -0.001961   0.002329   0.000437   0.003112  -0.002940
   82  O 10  S    0.000015  -0.219494   0.046476   0.004506   0.009504
   83  O 10  S    0.000187   0.202734  -0.042797  -0.004345  -0.008130
   84  O 10  X    0.000216  -0.036615   0.008269   0.012297   0.006493
   85  O 10  Y    0.000024  -0.028872   0.030061   0.008467   0.018142
   86  O 10  Z   -0.000066  -0.056443  -0.011687  -0.003127  -0.009115
   87  O 10  S   -0.000344   0.691350  -0.160513  -0.013729  -0.036942
   88  O 10  X   -0.000783  -0.043162   0.009108   0.012290   0.006479
   89  O 10  Y   -0.000177  -0.027883   0.022474   0.006491   0.012708
   90  O 10  Z    0.000260  -0.082357   0.000185  -0.001648  -0.004071
   91  C 11  S    0.001251  -0.000969  -0.045383   0.061350   0.091658
   92  C 11  S    0.000033   0.001461   0.050127  -0.062797  -0.087901
   93  C 11  X   -0.000052   0.001504   0.028675  -0.029647  -0.022426
   94  C 11  Y   -0.000002  -0.000405  -0.001318   0.002298   0.006496
   95  C 11  Z    0.000006   0.000015   0.005590  -0.006997  -0.006082
   96  C 11  S   -0.000064   0.003047   0.082410  -0.134153  -0.246027
   97  C 11  X    0.000085  -0.001358  -0.011745   0.003814  -0.005127
   98  C 11  Y   -0.000010  -0.001340  -0.000634   0.000670   0.001920
   99  C 11  Z   -0.000040   0.002317   0.001465  -0.000012  -0.002041
  100  H 12  S    0.000090   0.003227   0.042499  -0.043243  -0.032772
  101  H 12  S    0.000124   0.005365  -0.005873   0.002842   0.000120
  102  H 13  S   -0.000118   0.005393   0.032062  -0.027710  -0.024195
  103  H 13  S    0.000280  -0.001511  -0.007625  -0.002508  -0.005470
  104  H 14  S   -0.000065   0.007329   0.038670  -0.027751  -0.019282
  105  H 14  S    0.000162   0.000809   0.000415   0.000318  -0.001493
  106  H 15  S   -0.000241   0.023622   0.025431   0.007707   0.009784
  107  H 15  S   -0.000107  -0.012613  -0.009861   0.004129  -0.004719
  108  H 16  S   -0.000305   0.007253   0.044150   0.037350   0.033419
  109  H 16  S   -0.001667   0.001270  -0.003132  -0.000276  -0.003946
  110  H 17  S   -0.000312   0.002759   0.037061   0.007998   0.054312
  111  H 17  S   -0.000030   0.005720  -0.003147   0.001731  -0.003244
  112  H 18  S   -0.000223   0.002075   0.034433   0.010151   0.054804
  113  H 18  S   -0.000269   0.000568  -0.009203   0.004214  -0.001385
  114  H 19  S   -0.000072   0.001175   0.039434  -0.023823   0.021182
  115  H 19  S    0.000302   0.000007   0.000835  -0.000422  -0.001413
  116  H 20  S   -0.000123   0.001494   0.034557  -0.022833   0.020996
  117  H 20  S    0.000263  -0.000440  -0.007583  -0.001496   0.001089
  118  H 21  S   -0.001397   0.002958   0.027734   0.054910  -0.029990
  119  H 21  S    0.001012   0.007230  -0.004401  -0.005222   0.002217
  120  H 22  S    0.000188   0.000907   0.013894   0.036309  -0.038696
  121  H 22  S    0.013532   0.000039   0.001639   0.002276  -0.002934
  122  H 23  S    0.000229   0.001141   0.012506   0.034812  -0.041671
  123  H 23  S    0.013367   0.000797  -0.002103  -0.000408  -0.006195
  124  H 24  S    0.000193   0.000766   0.012845   0.033433  -0.036259
  125  H 24  S    0.014007   0.008902  -0.002408  -0.002829   0.002936
  126  H 25  S   -0.000466   0.000410   0.014379   0.036520  -0.035114
  127  H 25  S    0.001911   0.000773   0.001469   0.002569  -0.002227
  128  H 26  S   -0.000026  -0.000060   0.013941   0.034104  -0.030195
  129  H 26  S    0.005293  -0.000246   0.002091  -0.002319   0.007341
  130  H 27  S   -0.000315   0.000282   0.013020   0.035016  -0.038147
  131  H 27  S    0.001718  -0.000758  -0.002139  -0.000722  -0.005341
  132  H 28  S    0.000025   0.105204  -0.036815  -0.009151  -0.015287
  133  H 28  S   -0.000267   0.017458  -0.014986  -0.005072  -0.009336
  134  H 29  S   -0.000016   0.000391   0.019754  -0.028078  -0.047939
  135  H 29  S    0.000053  -0.001534  -0.003244   0.000476  -0.006288
  136  H 30  S   -0.000008   0.000277   0.019848  -0.027877  -0.044977
  137  H 30  S    0.000052  -0.001329  -0.003048   0.000487  -0.002348
  138  H 31  S   -0.000028   0.000598   0.022120  -0.029418  -0.046541
  139  H 31  S    0.000001   0.001080   0.002277  -0.001876  -0.003882

                     16         17         18         19         20
                   -0.9943    -0.9212    -0.9184    -0.8312    -0.8178
                     A          A          A          A          A   
    1  C  1  S    0.028460  -0.003522   0.011483   0.018495  -0.090468
    2  C  1  S   -0.024866   0.003664  -0.011016  -0.014439   0.073285
    3  C  1  X    0.023779   0.045469  -0.094122  -0.010958   0.036846
    4  C  1  Y   -0.069426  -0.018119  -0.009799  -0.103226  -0.023047
    5  C  1  Z   -0.019932  -0.004294  -0.005074  -0.030079   0.019843
    6  C  1  S   -0.082174   0.009043  -0.033843  -0.071274   0.342292
    7  C  1  X   -0.002903   0.004170  -0.009489  -0.005495   0.024732
    8  C  1  Y   -0.002548  -0.002450  -0.002395  -0.033834  -0.007105
    9  C  1  Z    0.003423  -0.002673   0.002210  -0.009954   0.002202
   10  C  2  S   -0.116767  -0.055094   0.056013  -0.083621  -0.004762
   11  C  2  S    0.107983   0.047413  -0.048326   0.065777   0.003719
   12  C  2  X    0.052548  -0.000675  -0.002432  -0.062337  -0.078750
   13  C  2  Y   -0.022535  -0.004959  -0.001343  -0.024728   0.055173
   14  C  2  Z   -0.003745   0.000147  -0.002774  -0.018721   0.029329
   15  C  2  S    0.327443   0.180709  -0.184117   0.330586   0.014182
   16  C  2  X   -0.000906   0.005208  -0.007402  -0.006053  -0.019826
   17  C  2  Y    0.005563   0.001454  -0.000203  -0.000247   0.012408
   18  C  2  Z   -0.004212   0.003157  -0.002013   0.004564   0.017148
   19  C  3  S   -0.116994   0.010799  -0.013210   0.087094   0.077246
   20  C  3  S    0.110573  -0.009010   0.015138  -0.073833  -0.066302
   21  C  3  X   -0.037407  -0.054753   0.054885  -0.081273   0.015956
   22  C  3  Y    0.016980  -0.017468   0.033402   0.000443   0.053183
   23  C  3  Z   -0.050683  -0.003942   0.009610   0.009564   0.033543
   24  C  3  S    0.324017  -0.043166   0.027715  -0.329630  -0.287634
   25  C  3  X   -0.013366  -0.017831   0.008885  -0.015679   0.016540
   26  C  3  Y    0.010210  -0.008119   0.002868  -0.017519   0.019866
   27  C  3  Z   -0.032044   0.001032  -0.006587   0.016383   0.026855
   28  C  4  S   -0.032591   0.040525  -0.084810   0.010043  -0.059838
   29  C  4  S    0.029868  -0.033654   0.070990  -0.009471   0.048045
   30  C  4  X   -0.021640  -0.001388   0.005572  -0.004155   0.080976
   31  C  4  Y   -0.061675   0.028809   0.002190   0.108299   0.013364
   32  C  4  Z   -0.022708   0.005389   0.002092   0.043438   0.003516
   33  C  4  S    0.098442  -0.133665   0.278310  -0.037787   0.217059
   34  C  4  X    0.006026   0.000395  -0.003036  -0.002152   0.008022
   35  C  4  Y   -0.000234   0.005317  -0.001813   0.031223   0.004013
   36  C  4  Z   -0.005624  -0.000370   0.002152   0.019997   0.005911
   37  C  5  S    0.069674  -0.002146  -0.003273  -0.110661   0.055019
   38  C  5  S   -0.064526  -0.000670   0.003991   0.092702  -0.045757
   39  C  5  X    0.034939  -0.008249   0.064529   0.066098   0.031981
   40  C  5  Y   -0.023995   0.013850  -0.029532   0.017601  -0.046106
   41  C  5  Z   -0.001898   0.003783  -0.008279   0.028535  -0.017057
   42  C  5  S   -0.187695   0.020352   0.006691   0.405948  -0.203283
   43  C  5  X   -0.004759   0.005666   0.014319   0.011963   0.008353
   44  C  5  Y   -0.000215  -0.005679   0.000501  -0.003117  -0.015881
   45  C  5  Z    0.002253  -0.002189  -0.001358   0.003953  -0.006125
   46  C  6  S    0.100091  -0.010451   0.079475   0.091911   0.017656
   47  C  6  S   -0.092648   0.009198  -0.069802  -0.076287  -0.012870
   48  C  6  X   -0.008170   0.005602  -0.002816   0.084875  -0.053984
   49  C  6  Y   -0.004615  -0.003489   0.001152  -0.005983  -0.061988
   50  C  6  Z   -0.011565  -0.000180  -0.002598   0.018010  -0.008126
   51  C  6  S   -0.276222   0.033800  -0.252262  -0.341368  -0.078444
   52  C  6  X    0.001120   0.002384  -0.003955   0.018145  -0.017373
   53  C  6  Y   -0.001562   0.000673   0.004316   0.009850  -0.013169
   54  C  6  Z   -0.004449   0.002257  -0.000429   0.011239   0.001107
   55  C  7  S    0.019434   0.000984  -0.002645   0.001522  -0.079585
   56  C  7  S   -0.016252  -0.001346   0.002784  -0.000667   0.065595
   57  C  7  X   -0.021815   0.032921  -0.065227   0.006126  -0.070832
   58  C  7  Y   -0.016627   0.106063   0.051776  -0.001425  -0.002864
   59  C  7  Z   -0.004268   0.021873   0.012274   0.006865   0.020318
   60  C  7  S   -0.060023  -0.002595   0.009003  -0.007877   0.296217
   61  C  7  X    0.004669   0.005351  -0.013378  -0.000051  -0.026307
   62  C  7  Y    0.005084   0.018547   0.011296   0.005273   0.002093
   63  C  7  Z    0.004431   0.004464  -0.000142   0.004336  -0.001536
   64  C  8  S    0.011183   0.110140   0.109728  -0.029929   0.052372
   65  C  8  S   -0.012596  -0.100520  -0.101039   0.027324  -0.045288
   66  C  8  X   -0.003784   0.008704  -0.013142   0.015615  -0.038530
   67  C  8  Y   -0.007223   0.020029   0.008358  -0.007664   0.037073
   68  C  8  Z   -0.003060   0.002962   0.001263  -0.003636   0.026585
   69  C  8  S   -0.020458  -0.340570  -0.338948   0.100078  -0.198338
   70  C  8  X   -0.008960   0.006295  -0.004585   0.014083  -0.008733
   71  C  8  Y    0.000568   0.000984  -0.001953  -0.002449   0.007279
   72  C  8  Z   -0.000879   0.001683   0.001371   0.000120   0.012600
   73  C  9  S    0.035506  -0.153506  -0.020032   0.024021   0.059050
[...]
             27  C  3  Z      0.23343     0.42633
             28  C  4  S      1.99065     1.97609
             29  C  4  S      0.33440     0.41431
             30  C  4  X      0.52647     0.52296
             31  C  4  Y      0.52270     0.51503
             32  C  4  Z      0.53158     0.50800
             33  C  4  S      1.11291     0.55030
             34  C  4  X      0.35272     0.51538
             35  C  4  Y      0.35020     0.52152
             36  C  4  Z      0.52085     0.56569
             37  C  5  S      1.98957     1.97621
             38  C  5  S      0.34263     0.41143
             39  C  5  X      0.52606     0.51288
             40  C  5  Y      0.53548     0.51433
             41  C  5  Z      0.53912     0.51462
             42  C  5  S      1.10771     0.55896
             43  C  5  X      0.35763     0.52501
             44  C  5  Y      0.47132     0.56024
             45  C  5  Z      0.51721     0.58216
             46  C  6  S      1.98953     1.97625
             47  C  6  S      0.34333     0.41342
             48  C  6  X      0.53188     0.51915
             49  C  6  Y      0.52957     0.51191
             50  C  6  Z      0.53599     0.50660
             51  C  6  S      1.10396     0.56032
             52  C  6  X      0.36787     0.52888
             53  C  6  Y      0.42137     0.54664
             54  C  6  Z      0.54947     0.58871
             55  C  7  S      1.99040     1.97603
             56  C  7  S      0.33375     0.40661
             57  C  7  X      0.51550     0.50637
             58  C  7  Y      0.52029     0.50454
             59  C  7  Z      0.54558     0.52345
             60  C  7  S      1.12002     0.54928
             61  C  7  X      0.33789     0.51266
             62  C  7  Y      0.36914     0.52635
             63  C  7  Z      0.54329     0.57348
             64  C  8  S      1.98834     1.97647
             65  C  8  S      0.35182     0.41581
             66  C  8  X      0.53624     0.50855
             67  C  8  Y      0.53867     0.51705
             68  C  8  Z      0.53337     0.50237
             69  C  8  S      1.11204     0.58043
             70  C  8  X      0.52014     0.58866
             71  C  8  Y      0.46318     0.56830
             72  C  8  Z      0.51437     0.59359
             73  C  9  S      1.98834     1.97648
             74  C  9  S      0.35182     0.41612
             75  C  9  X      0.53559     0.50804
             76  C  9  Y      0.53516     0.51513
             77  C  9  Z      0.53682     0.50381
             78  C  9  S      1.11090     0.58070
             79  C  9  X      0.51248     0.58641
             80  C  9  Y      0.43040     0.55833
             81  C  9  Z      0.55287     0.60605
             82  O 10  S      1.98601     1.98023
             83  O 10  S      0.41196     0.56916
             84  O 10  X      0.79751     0.80306
             85  O 10  Y      0.65375     0.64067
             86  O 10  Z      0.64420     0.64153
             87  O 10  S      1.51335     1.03352
             88  O 10  X      1.00459     1.00540
             89  O 10  Y      0.81254     0.83414
             90  O 10  Z      0.85866     0.89244
             91  C 11  S      1.98836     1.97646
             92  C 11  S      0.35263     0.41561
             93  C 11  X      0.53213     0.51458
             94  C 11  Y      0.53909     0.50676
             95  C 11  Z      0.53737     0.50519
             96  C 11  S      1.11049     0.57993
             97  C 11  X      0.38777     0.54294
             98  C 11  Y      0.55756     0.60319
             99  C 11  Z      0.54230     0.60266
            100  H 12  S      0.46563     0.48438
            101  H 12  S      0.31172     0.43086
            102  H 13  S      0.46738     0.47894
            103  H 13  S      0.34233     0.44718
            104  H 14  S      0.46425     0.47483
            105  H 14  S      0.33563     0.44221
            106  H 15  S      0.48269     0.50156
            107  H 15  S      0.31715     0.43988
            108  H 16  S      0.46549     0.48491
            109  H 16  S      0.33790     0.44220
            110  H 17  S      0.46435     0.47488
            111  H 17  S      0.31360     0.43363
            112  H 18  S      0.47097     0.48142
            113  H 18  S      0.31935     0.43586
            114  H 19  S      0.46595     0.47824
            115  H 19  S      0.34373     0.44774
            116  H 20  S      0.46803     0.47890
            117  H 20  S      0.32864     0.43985
            118  H 21  S      0.46515     0.48289
            119  H 21  S      0.29633     0.42336
            120  H 22  S      0.46654     0.47003
            121  H 22  S      0.35085     0.45180
            122  H 23  S      0.46764     0.47153
            123  H 23  S      0.33685     0.44382
            124  H 24  S      0.46888     0.47200
            125  H 24  S      0.32509     0.43942
            126  H 25  S      0.46611     0.46971
            127  H 25  S      0.34705     0.44969
            128  H 26  S      0.46984     0.47273
            129  H 26  S      0.33095     0.44221
            130  H 27  S      0.46778     0.47160
            131  H 27  S      0.33694     0.44399
            132  H 28  S      0.43218     0.44621
            133  H 28  S      0.19601     0.31336
            134  H 29  S      0.46735     0.47064
            135  H 29  S      0.34006     0.44591
            136  H 30  S      0.46698     0.47017
            137  H 30  S      0.33542     0.44363
            138  H 31  S      0.46620     0.46964
            139  H 31  S      0.34282     0.44754

          ----- MULLIKEN ATOMIC OVERLAP POPULATIONS -----
          (OFF-DIAGONAL ELEMENTS NEED TO BE MULTIPLIED BY 2)

             1           2           3           4           5

    1    5.6175460
    2    0.2260475   5.6012579
    3   -0.0697792   0.2216552   5.2225126
    4   -0.0022837  -0.0762131   0.2315731   5.6674929
    5   -0.0749467   0.0001432  -0.0851801   0.2445592   5.4615846
    6    0.2428932  -0.0926935   0.0065589  -0.0741598   0.2517333
    7   -0.0002162   0.0040060  -0.0636651   0.2514803  -0.0659606
    8    0.0000000  -0.0001086  -0.0040790  -0.0707714   0.0029281
    9   -0.0000026  -0.0000332   0.0032164  -0.0778809  -0.0021717
   10    0.0007792  -0.0505552   0.2224773  -0.0572241   0.0028387
   11    0.2675679  -0.0767462   0.0031338  -0.0001354   0.0033748
   12    0.3930930  -0.0483104  -0.0020293   0.0000206  -0.0002723
   13   -0.0439001   0.3893407  -0.0440784   0.0036879  -0.0003137
   14   -0.0456744   0.3602788  -0.0395198   0.0006564   0.0008008
   15    0.0040988  -0.0632667   0.3892093  -0.0522753   0.0039684
   16    0.0003626   0.0004707  -0.0515019   0.3820819  -0.0448167
   17   -0.0014931   0.0005015  -0.0028551  -0.0484010   0.3840487
   18    0.0034918  -0.0002754   0.0034214  -0.0418074   0.3923490
   19   -0.0526344  -0.0009494   0.0001826  -0.0007744  -0.0468084
   20   -0.0430900   0.0037660  -0.0002183   0.0032783  -0.0398914
   21    0.0000028   0.0000416  -0.0023707  -0.0476717  -0.0009457
   22    0.0000001  -0.0000211  -0.0001833  -0.0013176  -0.0000221
   23    0.0000000  -0.0000004   0.0000912   0.0035110  -0.0000447
   24   -0.0000033   0.0002256  -0.0015817  -0.0022130  -0.0000599
   25    0.0000003  -0.0000015  -0.0000568  -0.0018352   0.0001799
   26   -0.0000003  -0.0000003  -0.0000254  -0.0013601   0.0000098
   27    0.0000000   0.0000002  -0.0000497   0.0035960   0.0000336
   28   -0.0000115  -0.0016585  -0.0512037   0.0068415  -0.0002647
   29   -0.0433602  -0.0012964  -0.0000236   0.0000031  -0.0000681
   30   -0.0436809   0.0036231  -0.0000638   0.0000028  -0.0000139
   31   -0.0467795  -0.0014293  -0.0000552   0.0000082  -0.0000441

             6           7           8           9          10

    6    5.4647456
    7    0.0030899   5.5347880
    8   -0.0000526   0.2631959   5.3709626
    9    0.0000380   0.2605046  -0.0910637   5.3744629
   10   -0.0007081   0.0045252  -0.0018808   0.0000544   8.3101279
   11   -0.0747968   0.0000014  -0.0000000   0.0000000   0.0000161
   12   -0.0468064  -0.0000276   0.0000006   0.0000001   0.0057541
   13    0.0037339  -0.0000566   0.0000008   0.0000003  -0.0005911
   14   -0.0017438  -0.0001047   0.0000139  -0.0000011   0.0017032
   15   -0.0003994  -0.0041704   0.0014280  -0.0000394  -0.0374152
   16   -0.0008423  -0.0455922  -0.0003206  -0.0015650   0.0014741
   17   -0.0432176  -0.0007152  -0.0000163   0.0001671   0.0041688
   18   -0.0420412  -0.0016798  -0.0000057  -0.0008738   0.0000169
   19    0.3828529  -0.0000296   0.0000004   0.0000027  -0.0000035
   20    0.3936050  -0.0000475   0.0000003   0.0000004  -0.0000027
   21   -0.0000294   0.3933522  -0.0419766  -0.0419089   0.0055492
   22    0.0000001  -0.0477930   0.3720891  -0.0003739   0.0000211
   23    0.0000003  -0.0428861   0.3802015  -0.0024446  -0.0000100
   24    0.0000004  -0.0375627   0.3770063   0.0034692   0.0035332
   25   -0.0000183  -0.0465399  -0.0005461   0.3722212  -0.0000003
   26    0.0000118  -0.0386961   0.0033526   0.3789691   0.0000000
   27    0.0000001  -0.0430506  -0.0022707   0.3796324  -0.0000000
   28    0.0000344  -0.0002880   0.0000797  -0.0000003   0.2679186
   29    0.0034876  -0.0000000   0.0000000   0.0000000  -0.0000005
   30   -0.0011517  -0.0000000   0.0000000   0.0000000   0.0000002
   31   -0.0011519  -0.0000000   0.0000000   0.0000000  -0.0000002

            11          12          13          14          15

   11    5.3359969
   12   -0.0414384   0.5119719
   13   -0.0007845  -0.0018520   0.5270392
   14   -0.0010548   0.0036027  -0.0247788   0.5384793
   15   -0.0000463   0.0001133  -0.0025588   0.0009877   0.5647924
   16   -0.0000215   0.0000298  -0.0000441   0.0013150   0.0002737
   17   -0.0000315   0.0021460  -0.0000214   0.0000222   0.0000508
   18   -0.0000532  -0.0000249   0.0000039  -0.0000165  -0.0000311
   19   -0.0009217   0.0034188  -0.0000507   0.0024582  -0.0000413
   20   -0.0008070  -0.0020810  -0.0000529  -0.0000538   0.0000037
   21   -0.0000000  -0.0000033   0.0000008  -0.0000037   0.0002801
   22   -0.0000000  -0.0000000   0.0000005  -0.0000007   0.0001127
   23   -0.0000000  -0.0000000  -0.0000000  -0.0000000   0.0000470
   24    0.0000000  -0.0000004   0.0000001  -0.0000116  -0.0033543
   25   -0.0000000  -0.0000000   0.0000000  -0.0000000   0.0000007
   26   -0.0000000   0.0000000  -0.0000000   0.0000000  -0.0000010
   27   -0.0000000  -0.0000000  -0.0000000   0.0000000  -0.0000003
   28   -0.0000177   0.0001982   0.0030439   0.0000345  -0.0019238
   29    0.3792083  -0.0016949   0.0019436   0.0000118  -0.0000007
   30    0.3807681  -0.0014851  -0.0000348  -0.0000201   0.0000005
   31    0.3744870   0.0030215   0.0000323   0.0024951  -0.0000008

            16          17          18          19          20

   16    0.5500603
   17    0.0034189   0.5014454
   18   -0.0019564  -0.0251283   0.5076395
   19    0.0022141   0.0030846  -0.0022515   0.5438950
   20   -0.0000341  -0.0019137  -0.0015035  -0.0264736   0.5102522
   21    0.0034041   0.0026573   0.0000681   0.0000002   0.0000006
   22    0.0022836   0.0000007   0.0000008  -0.0000002   0.0000000
   23   -0.0000701   0.0000001  -0.0000001  -0.0000000  -0.0000000
   24    0.0000567   0.0000003  -0.0000015   0.0000001  -0.0000000
   25    0.0028182   0.0000159   0.0001596   0.0000002   0.0000002
   26    0.0000766   0.0001800   0.0007745   0.0000016   0.0000000
   27   -0.0000404  -0.0000162   0.0000442  -0.0000001  -0.0000000
   28   -0.0001360  -0.0001478   0.0000017   0.0000010  -0.0000003
   29    0.0000003   0.0000007   0.0000004  -0.0000374  -0.0000334
   30    0.0000003   0.0000016  -0.0000008  -0.0000034   0.0019610
   31   -0.0000015   0.0000002   0.0000006   0.0025445   0.0000033

            21          22          23          24          25

   21    0.4913087
   22    0.0030882   0.5408784
   23   -0.0014364  -0.0271325   0.5183994
   24   -0.0017263  -0.0263002  -0.0261162   0.5087829
   25    0.0029890   0.0020911   0.0000342  -0.0000556   0.5351633
   26   -0.0016178  -0.0000543   0.0000039  -0.0000514  -0.0266022
   27   -0.0014141   0.0000221   0.0023383   0.0000024  -0.0268508
   28   -0.0001653   0.0000000   0.0000001  -0.0000687   0.0000000
   29    0.0000000   0.0000000  -0.0000000   0.0000000   0.0000000
   30    0.0000000   0.0000000   0.0000000  -0.0000000   0.0000000
   31   -0.0000000   0.0000000  -0.0000000   0.0000000  -0.0000000

            26          27          28          29          30

   26    0.5121922
   27   -0.0263690   0.5191163
   28   -0.0000000  -0.0000000   0.4059208
   29    0.0000000   0.0000000   0.0000000   0.5217691
   30   -0.0000000  -0.0000000   0.0000002  -0.0257857   0.5145870
   31   -0.0000000  -0.0000000   0.0000003  -0.0267135  -0.0262963

            31

   31    0.5288951

          TOTAL MULLIKEN AND LOWDIN ATOMIC POPULATIONS
       ATOM         MULL.POP.    CHARGE          LOW.POP.     CHARGE
    1 C             6.288027   -0.288027         6.088497   -0.088497
    2 C             6.397799   -0.397799         6.179752   -0.179752
    3 C             5.885512    0.114488         5.896885    0.103115
    4 C             6.242469   -0.242469         6.089269   -0.089269
    5 C             6.386727   -0.386727         6.155839   -0.155839
    6 C             6.372973   -0.372973         6.151892   -0.151892
    7 C             6.275862   -0.275862         6.078755   -0.078755
    8 C             6.558168   -0.558168         6.251224   -0.251224
    9 C             6.554380   -0.554380         6.251074   -0.251074
   10 O             8.682567   -0.682567         8.400142   -0.400142
   11 C             6.547699   -0.547699         6.247323   -0.247323
   12 H             0.777345    0.222655         0.915234    0.084766
   13 H             0.809710    0.190290         0.926124    0.073876
   14 H             0.799876    0.200124         0.917036    0.082964
   15 H             0.799842    0.200158         0.941445    0.058555
   16 H             0.803398    0.196602         0.927115    0.072885
   17 H             0.777954    0.222046         0.908503    0.091497
   18 H             0.790321    0.209679         0.917281    0.082719
   19 H             0.809677    0.190323         0.925989    0.074011
   20 H             0.796668    0.203332         0.918755    0.081245
   21 H             0.761473    0.238527         0.906252    0.093748
   22 H             0.817390    0.182610         0.921827    0.078173
   23 H             0.804486    0.195514         0.915344    0.084656
   24 H             0.793970    0.206030         0.911418    0.088582
   25 H             0.813167    0.186833         0.919401    0.080599
   26 H             0.800795    0.199205         0.914944    0.085056
   27 H             0.804724    0.195276         0.915592    0.084408
   28 H             0.628188    0.371812         0.759567    0.240433
   29 H             0.807410    0.192590         0.916550    0.083450
   30 H             0.802408    0.197592         0.913794    0.086206
   31 H             0.809016    0.190984         0.917178    0.082822

          -------------------------------
          BOND ORDER AND VALENCE ANALYSIS     BOND ORDER THRESHOLD=0.050
          -------------------------------

                   BOND                       BOND                       BOND
  ATOM PAIR DIST  ORDER      ATOM PAIR DIST  ORDER      ATOM PAIR DIST  ORDER
    1   2  1.537  0.891        1   6  1.537  0.895        1  11  1.533  0.924
    1  12  1.100  0.910        2   3  1.537  0.887        2  13  1.101  0.933
    2  14  1.101  0.914        3   4  1.544  0.889        3  10  1.440  0.831
    3  15  1.099  0.900        4   5  1.545  0.904        4   7  1.554  0.895
    4  16  1.103  0.914        5   6  1.537  0.916        5  17  1.098  0.913
    5  18  1.094  0.924        6  19  1.102  0.924        6  20  1.098  0.932
    7   8  1.539  0.918        7   9  1.540  0.915        7  21  1.098  0.904
    8  22  1.099  0.930        8  23  1.096  0.932        8  24  1.094  0.927
    9  25  1.098  0.930        9  26  1.094  0.929        9  27  1.096  0.931
   10  28  0.966  0.814       11  29  1.097  0.932       11  30  1.096  0.932
   11  31  1.098  0.929

                       TOTAL       BONDED        FREE
      ATOM            VALENCE     VALENCE     VALENCE
    1 C                 3.524       3.524      -0.000
    2 C                 3.565       3.565      -0.000
    3 C                 3.436       3.436      -0.000
    4 C                 3.500       3.500       0.000
    5 C                 3.579       3.579      -0.000
    6 C                 3.585       3.585      -0.000
    7 C                 3.545       3.545      -0.000
    8 C                 3.661       3.661      -0.000
    9 C                 3.660       3.660      -0.000
   10 O                 1.724       1.724      -0.000
   11 C                 3.668       3.668       0.000
   12 H                 0.907       0.907       0.000
   13 H                 0.923       0.923       0.000
   14 H                 0.915       0.915       0.000
   15 H                 0.903       0.903       0.000
   16 H                 0.912       0.912       0.000
   17 H                 0.910       0.910       0.000
   18 H                 0.913       0.913       0.000
   19 H                 0.917       0.917       0.000
   20 H                 0.917       0.917       0.000
   21 H                 0.901       0.901       0.000
   22 H                 0.923       0.923      -0.000
   23 H                 0.921       0.921       0.000
   24 H                 0.918       0.918      -0.000
   25 H                 0.922       0.922       0.000
   26 H                 0.920       0.920      -0.000
   27 H                 0.920       0.920       0.000
   28 H                 0.834       0.834       0.000
   29 H                 0.921       0.921      -0.000
   30 H                 0.920       0.920      -0.000
   31 H                 0.921       0.921      -0.000

          ---------------------
          ELECTROSTATIC MOMENTS
          ---------------------

 POINT   1           X           Y           Z (BOHR)    CHARGE
                 0.004467   -0.010833   -0.003453       -0.00 (A.U.)
         DX          DY          DZ         /D/  (DEBYE)
    -0.990435   -0.802683   -1.000420    1.620525
 ...... END OF PROPERTY EVALUATION ......
 CPU     0: STEP CPU TIME=     0.07 TOTAL CPU TIME=          5.1 (      0.1 MIN)
 TOTAL WALL CLOCK TIME=         12.5 SECONDS, CPU UTILIZATION IS    40.73%
               580000  WORDS OF DYNAMIC MEMORY USED
 EXECUTION OF GAMESS TERMINATED NORMALLY Mon May 25 19:16:01 2020
 DDI: 263640 bytes (0.3 MB / 0 MWords) used by master data server.
Note: The following floating-point exceptions are signalling: IEEE_DENORMAL
Note: The following floating-point exceptions are signalling: IEEE_DENORMAL
Note: The following floating-point exceptions are signalling: IEEE_DENORMALNote: The following floating-point exceptions are signalling: IEEE_DENORMAL
 ----------------------------------------
 CPU timing information for all processes
 ========================================
 0: 4.957 + 0.153 = 5.111
 1: 5.130 + 0.24 = 5.154
 2: 4.776 + 0.43 = 4.820
 3: 4.915 + 0.48 = 4.964
 4: 4.995 + 0.31 = 5.27
 5: 4.915 + 0.19 = 4.935
 ----------------------------------------
Note: The following floating-point exceptions are signalling: IEEE_DENORMAL


Note: The following floating-point exceptions are signalling: IEEE_DENORMAL
 ddikick.x: exited gracefully.
unset echo
----- accounting info -----
Files used on the master node pietdev were:
-rwxr-xr-x 1 piet piet     1324 mei 25 19:15 /home/piet/scr/methol_fukui_neu.F05*
-rw-r--r-- 1 piet piet 49152000 mei 25 19:16 /home/piet/scr/methol_fukui_neu.F10
ls: No match.
ls: No match.
ls: No match.
ma 25 mei 2020 19:16:04 CEST
0.114u 0.023s 0:15.76 0.8%	0+0k 0+8io 0pf+0w
