----- GAMESS execution script 'rungms' -----
This job is running on host pietdev
under operating system Linux at ma 25 mei 2020 19:53:44 CEST
Available scratch disk space (Kbyte units) at beginning of the job is
Filesystem     1K-blocks     Used Available Use% Mounted on
/dev/sda2      244568380 31071640 201003684  14% /
GAMESS temporary binary files will be written to /home/piet/scr
GAMESS supplementary output files will be written to /home/piet/gamess/scr
Copying input file tujone_fukui_acid.inp to your run's scratch directory...
cp tujone_fukui_acid.inp /home/piet/scr/tujone_fukui_acid.F05
unset echo
 
Assuming a single but multicore node.
 
/home/piet/gamess/ddikick.x /home/piet/gamess/gamess.03.x tujone_fukui_acid -ddi 1 6 pietdev:cpus=6 -scr /home/piet/scr

 Distributed Data Interface kickoff program.
 Initiating 6 compute processes on 1 nodes to run the following command:
 /home/piet/gamess/gamess.03.x tujone_fukui_acid 

          ******************************************************
          *         GAMESS VERSION = 30 SEP 2019 (R2)          *
          *             FROM IOWA STATE UNIVERSITY             *
          * M.W.SCHMIDT, K.K.BALDRIDGE, J.A.BOATZ, S.T.ELBERT, *
          *   M.S.GORDON, J.H.JENSEN, S.KOSEKI, N.MATSUNAGA,   *
          *          K.A.NGUYEN, S.J.SU, T.L.WINDUS,           *
          *       TOGETHER WITH M.DUPUIS, J.A.MONTGOMERY       *
          *         J.COMPUT.CHEM.  14, 1347-1363(1993)        *
          **************** 64 BIT LINUX VERSION ****************

  SINCE 1993, STUDENTS AND POSTDOCS WORKING AT IOWA STATE UNIVERSITY
  AND ALSO IN THEIR VARIOUS JOBS AFTER LEAVING ISU HAVE MADE IMPORTANT
  CONTRIBUTIONS TO THE CODE:
     IVANA ADAMOVIC, CHRISTINE AIKENS, YURI ALEXEEV, POOJA ARORA,
     ANDREY ASADCHEV, ROB BELL, PRADIPTA BANDYOPADHYAY, JONATHAN BENTZ,
     COLLEEN BERTONI, BRETT BODE, KURT BRORSEN, CALEB CARLIN, GALINA CHABAN,
     WEI CHEN, CHEOL HO CHOI, PAUL DAY, ALBERT DEFUSCO, NUWAN DESILVA,
     TIM DUDLEY, DMITRI FEDOROV, ALEX FINDLATER, GRAHAM FLETCHER, 
     MARK FREITAG, KURT GLAESEMANN, EMILIE B GUIDEZ, ANASTASIA GUNINA, 
     DAN KEMP, SAROM SOK LEANG, GRANT MERRILL,
     NORIYUKI MINEZAWA, JONATHAN MULLIN,
     TAKESHI NAGATA, SEAN NEDD, HEATHER NETZLOFF, BOSILJKA NJEGIC, RYAN OLSON,
     MIKE PAK, BUU PHAM, DAVID POOLE,
     SPENCER PRUITT, LUKE ROSKOP, TOSAPORN SATTASATHUCHANA,
     JIM SHOEMAKER, LYUDMILA SLIPCHENKO,
     TONY SMITH, JIE SONG, TETSUYA TAKETSUGU, SIMON WEBB,
     JORGE LUIS GALVEZ VALLEJO, PENG XU, SOOHAENG YOO,
     FEDERICO ZAHARIEV

  ADDITIONAL CODE HAS BEEN PROVIDED BY COLLABORATORS IN OTHER GROUPS:
     IOWA STATE UNIVERSITY:
          JOE IVANIC, AARON WEST, LAIMUTIS BYTAUTAS, KLAUS RUEDENBERG
     UNIVERSITY OF TOKYO: KIMIHIKO HIRAO, TAKAHITO NAKAJIMA,
          TAKAO TSUNEDA, MUNEAKI KAMIYA, SUSUMU YANAGISAWA,
          KIYOSHI YAGI, MAHITO CHIBA, SEIKEN TOKURA, NAOAKI KAWAKAMI
     UNIVERSITY OF AARHUS: FRANK JENSEN
     UNIVERSITY OF IOWA: VISVALDAS KAIRYS, HUI LI
     NATIONAL INST. OF STANDARDS AND TECHNOLOGY: WALT STEVENS, DAVID GARMER
     UNIVERSITY OF PISA: BENEDETTA MENNUCCI, JACOPO TOMASI
     UNIVERSITY OF MEMPHIS: HENRY KURTZ, PRAKASHAN KORAMBATH
     UNIVERSITY OF ALBERTA: TOBY ZENG, MARIUSZ KLOBUKOWSKI
     UNIVERSITY OF NEW ENGLAND: MARK SPACKMAN
     MIE UNIVERSITY: HIROAKI UMEDA
     NAT. INST. OF ADVANCED INDUSTRIAL SCIENCE AND TECHNOLOGY: KAZUO KITAURA
     MICHIGAN STATE UNIVERSITY:
          KAROL KOWALSKI, MARTA WLOCH, JEFFREY GOUR, JESSE LUTZ,
          WEI LI, JUN SHEN, J. EMILIANO DEUSTUA, PIOTR PIECUCH
     UNIVERSITY OF MINNESOTA:
          ANDREW SAND, PRACHI SHARMA, YINAN SHU
     UNIVERSITY OF SILESIA: MONIKA MUSIAL, STANISLAW KUCHARSKI
     FACULTES UNIVERSITAIRES NOTRE-DAME DE LA PAIX:
          OLIVIER QUINET, BENOIT CHAMPAGNE
     UNIVERSITY OF CALIFORNIA - SANTA BARBARA: BERNARD KIRTMAN
     INSTITUTE FOR MOLECULAR SCIENCE:
          KAZUYA ISHIMURA, MICHIO KATOUDA, AND SHIGERU NAGASE
     UNIVERSITY OF NOTRE DAME: ANNA POMOGAEVA, DAN CHIPMAN
     KYUSHU UNIVERSITY:
          HARUYUKI NAKANO,
          FENG LONG GU, JACEK KORCHOWIEC, MARCIN MAKOWSKI, AND YURIKO AOKI,
          HIROTOSHI MORI AND EISAKU MIYOSHI
     PENNSYLVANIA STATE UNIVERSITY:
          TZVETELIN IORDANOV, CHET SWALINA, JONATHAN SKONE,
          SHARON HAMMES-SCHIFFER
     WASEDA UNIVERSITY:
          MASATO KOBAYASHI, TOMOKO AKAMA, TSUGUKI TOUMA,
          TAKESHI YOSHIKAWA, YASUHIRO IKABATA, JUNJI SEINO,
          YUYA NAKAJIMA, HIROMI NAKAI
     NANJING UNIVERSITY: SHUHUA LI
     UNIVERSITY OF NEBRASKA:
          PEIFENG SU, DEJUN SI, NANDUN THELLAMUREGE, YALI WANG, HUI LI
     UNIVERSITY OF ZURICH: ROBERTO PEVERATI, KIM BALDRIDGE
     N. COPERNICUS UNIVERSITY AND JACKSON STATE UNIVERSITY:
          MARIA BARYSZ
     UNIVERSITY OF COPENHAGEN: Jimmy Kromann, CASPER STEINMANN
     TOKYO INSTITUTE OF TECHNOLOGY: HIROYA NAKATA
     NAGOYA UNIVERSITY: YOSHIO NISHIMOTO, STEPHAN IRLE
     MOSCOW STATE UNIVERSITY: VLADIMIR MIRONOV
     A.N.NESMEYANOV INSTITUTE OF ORGANOELEMENT COMPOUNDS OF RUSSIAN ACADEMY OF SCIENCES:
          IGOR S. GERASIMOV
     JOHANNES KEPLER UNIVERSITY LINZ:
          CHRISTIAN FRIEDL


 PARALLEL VERSION RUNNING ON        6 PROCESSORS IN        1 NODES.

 EXECUTION OF GAMESS BEGUN Mon May 25 19:53:44 2020

            ECHO OF THE FIRST FEW INPUT CARDS -
 INPUT CARD> $BASIS GBASIS=N21 NGAUSS=3 $END                                                
 INPUT CARD> $CONTRL SCFTYP=UHF MAXIT=60 MULT=2 ICHARG=-1 $END                              
 INPUT CARD> $SYSTEM MEMDDI=1000 MWORDS=30 $END                                             
 INPUT CARD> $SCF DIRSCF=.TRUE. $END                                                        
 INPUT CARD> $STATPT OPTTOL=0.0001 NSTEP=999 $END                                           
 INPUT CARD> $DATA                                                                          
 INPUT CARD>                                                                                
 INPUT CARD>C1                                                                              
 INPUT CARD>C 6.0000000 2.80364 1.40441 0.05273                                             
 INPUT CARD>C 6.0000000 -2.90416 -1.24309 0.34434                                           
 INPUT CARD>C 6.0000000 -2.89721 1.20058 -0.28664                                           
 INPUT CARD>O 8.0000000 2.60323 -1.50432 -0.46787                                           
 INPUT CARD>C 6.0000000 -0.21938 0.65599 1.23170                                            
 INPUT CARD>C 6.0000000 0.17255 -1.31332 -0.33982                                           
 INPUT CARD>C 6.0000000 1.60622 0.72605 -0.61940                                            
 INPUT CARD>C 6.0000000 1.61032 -0.80490 -0.47300                                           
 INPUT CARD>C 6.0000000 -2.15306 -0.13723 -0.42183                                          
 INPUT CARD>C 6.0000000 0.22114 1.13361 -0.13709                                            
 INPUT CARD>C 6.0000000 -0.68036 -0.09100 -0.00323                                          
 INPUT CARD>H 1.0000000 0.50888 0.18271 1.88934                                             
 INPUT CARD>H 1.0000000 -0.94401 1.26959 1.75843                                            
 INPUT CARD>H 1.0000000 -0.12166 -1.74496 -1.30876                                          
 INPUT CARD>H 1.0000000 0.13206 -2.12366 0.39612                                            
 INPUT CARD>H 1.0000000 -2.16241 -0.40723 -1.49002                                          
 INPUT CARD>H 1.0000000 -0.18035 2.07872 -0.49151                                           
 INPUT CARD>H 1.0000000 1.66276 0.91034 -1.70561                                            
 INPUT CARD>H 1.0000000 2.76626 1.27472 1.13969                                             
 INPUT CARD>H 1.0000000 3.74033 0.96871 -0.30713                                            
 INPUT CARD>H 1.0000000 2.81226 2.47845 -0.16020                                            
 INPUT CARD>H 1.0000000 -2.90781 -1.03440 1.42139                                           
 INPUT CARD>H 1.0000000 -3.94643 -1.30873 0.01175                                           
 INPUT CARD>H 1.0000000 -2.44607 -2.22667 0.19603                                           
 INPUT CARD>H 1.0000000 -2.41693 2.00125 -0.85853                                           
 INPUT CARD>H 1.0000000 -3.92118 1.09727 -0.66153                                           
 INPUT CARD>H 1.0000000 -2.96639 1.52205 0.75936                                            
 INPUT CARD> $END                                                                           
   30000000 WORDS OF MEMORY AVAILABLE

     BASIS OPTIONS
     -------------
     GBASIS=N21          IGAUSS=       3      POLAR=NONE    
     NDFUNC=       0     NFFUNC=       0     DIFFSP=       F
     NPFUNC=       0      DIFFS=       F     BASNAM=        


     RUN TITLE
     ---------
                                                                                 

 THE POINT GROUP OF THE MOLECULE IS C1      
 THE ORDER OF THE PRINCIPAL AXIS IS     0

 ATOM      ATOMIC                      COORDINATES (BOHR)
           CHARGE         X                   Y                   Z
 C           6.0     5.2981113682        2.6539500744        0.0996452513
 C           6.0    -5.4880666245       -2.3490994781        0.6507082466
 C           6.0    -5.4749330289        2.2687672263       -0.5416710571
 O           8.0     4.9193913830       -2.8427525978       -0.8841460979
 C           6.0    -0.4145680872        1.2396413507        2.3275754991
 C           6.0     0.3260722192       -2.4818149342       -0.6421666851
 C           6.0     3.0353156760        1.3720355534       -1.1704962768
 C           6.0     3.0430635525       -1.5210404475       -0.8938403922
 C           6.0    -4.0686934351       -0.2593270973       -0.7971431134
 C           6.0     0.4178940049        2.1422122769       -0.2590625357
 C           6.0    -1.2856939730       -0.1719650649       -0.0061038149
 H           1.0     0.9616437606        0.3452718352        3.5703348976
 H           1.0    -1.7839202297        2.3991772168        3.3229508686
 H           1.0    -0.2299040637       -3.2974962595       -2.4731977837
 H           1.0     0.2495572139       -4.0131354911        0.7485582583
 H           1.0    -4.0863623731       -0.7695531140       -2.8157295162
 H           1.0    -0.3408120819        3.9282112052       -0.9288192202
 H           1.0     3.1421607833        1.7202931557       -3.2231355419
 H           1.0     5.2274734108        2.4088715111        2.1537018109
 H           1.0     7.0681988037        1.8305964616       -0.5803915426
 H           1.0     5.3144008062        4.6835913743       -0.3027341032
 H           1.0    -5.4949641244       -1.9547325617        2.6860376217
 H           1.0    -7.4576713297       -2.4731410919        0.0222042804
 H           1.0    -4.6224020468       -4.2077961651        0.3704429854
 H           1.0    -4.5673354315        3.7818141329       -1.6223864522
 H           1.0    -7.4099557485        2.0735396345       -1.2501104327
 H           1.0    -5.6056642727        2.8762574396        1.4349823260

          INTERNUCLEAR DISTANCES (ANGS.)
          ------------------------------

                1 C          2 C          3 C          4 O          5 C     

   1 C       0.0000000    6.2986724    5.7145787    2.9617391 *  3.3299779  
   2 C       6.2986724    0.0000000    2.5238279 *  5.5730845    3.4061645  
   3 C       5.7145787    2.5238279 *  0.0000000    6.1322238    3.1261331  
   4 O       2.9617391 *  5.5730845    6.1322238    0.0000000    3.9398737  
   5 C       3.3299779    3.4061645    3.1261331    3.9398737    0.0000000  
   6 C       3.8029970    3.1526420    3.9681164    2.4415329 *  2.5497973 *
   7 C       1.5315827 *  5.0149611    4.5405715    2.4477624 *  2.6008258 *
   8 C       2.5654347 *  4.6087509    4.9370545    1.2145307 *  2.8962051 *
   9 C       5.2125556    1.5408095 *  1.5368055 *  4.9490756    2.6650474 *
  10 C       2.6035880 *  3.9557525    3.1226522    3.5696558    1.5151781 *
  11 C       3.7917857    2.5285179 *  2.5812640 *  3.6049032    1.5151068 *
  12 H       3.1830191    4.0085874    4.1680208    3.5761447    1.0894251 *
  13 H       4.1197657    3.4864594    2.8287920 *  5.0233355    1.0858352 *
  14 H       4.5088321    3.2751976    4.1742799    2.8618227 *  3.4968625  
  15 H       4.4387537    3.1617585    4.5489790    2.6901193 *  2.9237233 *
  16 H       5.5067022    2.1479599 *  2.1384825 *  4.9959705    3.5090686  
  17 H       3.1072637    4.3763236    2.8625915 *  4.5372957    2.2349802 *
  18 H       2.1534790 *  5.4494325    4.7844583    2.8717707 *  3.4978472  
  19 H       1.0953076 *  6.2550469    5.8407882    3.2146370    3.0504654  
  20 H       1.0939478 *  7.0331870    6.6416203    2.7266667 *  4.2597060  
  21 H       1.0949774 *  6.8397279    5.8520925    4.0001014    3.8012613  
  22 H       6.3593778    1.0970878 *  2.8129370 *  5.8448003    3.1813608  
  23 H       7.2750432    1.0960162 *  2.7361535 *  6.5701094    4.3862631  
  24 H       6.3847265    1.0951127 *  3.4903496    5.1437324    3.7868839  
  25 H       5.3330070    3.4942855    1.0948970 *  6.1354415    3.3178324  
  26 H       6.7696164    2.7428797 *  1.0953219 *  7.0266422    4.1811925  
  27 H       5.8143281    2.7968041 *  1.0964693 *  6.4564445    2.9187718 *

                6 C          7 C          8 C          9 C         10 C     

   1 C       3.8029970    1.5315827 *  2.5654347 *  5.2125556    2.6035880 *
   2 C       3.1526420    5.0149611    4.6087509    1.5408095 *  3.9557525  
   3 C       3.9681164    4.5405715    4.9370545    1.5368055 *  3.1226522  
   4 O       2.4415329 *  2.4477624 *  1.2145307 *  4.9490756    3.5696558  
   5 C       2.5497973 *  2.6008258 *  2.8962051 *  2.6650474 *  1.5151781 *
   6 C       0.0000000    2.5085065 *  1.5308202 *  2.6073694 *  2.4557945 *
   7 C       2.5085065 *  0.0000000    1.5379394 *  3.8621849    1.5222269 *
   8 C       1.5308202 *  1.5379394 *  0.0000000    3.8224901    2.4084181 *
   9 C       2.6073694 *  3.8621849    3.8224901    0.0000000    2.7079396 *
  10 C       2.4557945 *  1.5222269 *  2.4084181 *  2.7079396 *  0.0000000  
  11 C       1.5280100 *  2.5051316 *  2.4449033 *  1.5317338 *  1.5265289 *
  12 H       2.7056197 *  2.7916214 *  2.7873274 *  3.5397448    2.2568615 *
  13 H       3.5100973    3.5289070    3.9758509    2.8625999 *  2.2291391 *
  14 H       1.1007803 *  3.0930045    2.1405519 *  2.7382525 *  3.1267375  
  15 H       1.0953986 *  3.3653047    2.1632730 *  3.1363545    3.3018262  
  16 H       2.7560837 *  4.0304931    3.9275899    1.1018245 *  3.1441880  
  17 H       3.4137199    2.2445276 *  3.3944228    2.9676379 *  1.0862968 *
  18 H       3.0051243    1.1031826 *  2.1128478 *  4.1600452    2.1420487 *
  19 H       3.9514848    2.1774134 *  2.8743322 *  5.3508557    2.8509148 *
  20 H       4.2353021    2.1704428 *  2.7767153 *  5.9973582    3.5271524  
  21 H       4.6236189    2.1763049 *  3.5103975    5.6182413    2.9194232 *
  22 H       3.5592520    5.2574209    4.9045777    2.1844957 *  4.1133266  
  23 H       4.1339592    5.9473189    5.6005623    2.1855388 *  4.8327857  
  24 H       2.8246264 *  5.0798165    4.3500955    2.1984916 *  4.3030756  
  25 H       4.2380232    4.2271804    4.9236017    2.1985065 *  2.8692661 *
  26 H       4.7616244    5.5400117    5.8524599    2.1697223 *  4.1755446  
  27 H       4.3704078    4.8418341    5.2801214    2.1931543 *  3.3338950  

               11 C         12 H         13 H         14 H         15 H     

   1 C       3.7917857    3.1830191    4.1197657    4.5088321    4.4387537  
   2 C       2.5285179 *  4.0085874    3.4864594    3.2751976    3.1617585  
   3 C       2.5812640 *  4.1680208    2.8287920 *  4.1742799    4.5489790  
   4 O       3.6049032    3.5761447    5.0233355    2.8618227 *  2.6901193 *
   5 C       1.5151068 *  1.0894251 *  1.0858352 *  3.4968625    2.9237233 *
   6 C       1.5280100 *  2.7056197 *  3.5100973    1.1007803 *  1.0953986 *
   7 C       2.5051316 *  2.7916214 *  3.5289070    3.0930045    3.3653047  
   8 C       2.4449033 *  2.7873274 *  3.9758509    2.1405519 *  2.1632730 *
   9 C       1.5317338 *  3.5397448    2.8625999 *  2.7382525 *  3.1363545  
  10 C       1.5265289 *  2.2568615 *  2.2291391 *  3.1267375    3.3018262  
  11 C       0.0000000    2.2518948 *  2.2414643 *  2.1799399 *  2.2251322 *
  12 H       2.2518948 *  0.0000000    1.8191577 *  3.7869956    2.7732728 *
  13 H       2.2414643 *  1.8191577 *  0.0000000    4.3785187    3.8115562  
  14 H       2.1799399 *  3.7869956    4.3785187    0.0000000    1.7647672 *
  15 H       2.2251322 *  2.7732728 *  3.8115562    1.7647672 *  0.0000000  
  16 H       2.1229739 *  4.3478608    3.8533948    2.4468423 *  3.4304881  
  17 H       2.2794982 *  3.1206311    2.5099996 *  3.9104822    4.3064469  
  18 H       3.0644724    3.8450683    4.3501590    3.2237033    3.9956811  
  19 H       3.8795163    2.6172935 *  3.7615115    4.8428769    4.3635871  
  20 H       4.5560773    3.9855421    5.1283631    4.8251668    4.8038448  
  21 H       4.3387910    3.8440338    4.3877156    5.2691810    5.3546597  
  22 H       2.8073260 *  3.6570623    3.0460591    3.9650027    3.3879899  
  23 H       3.4857286    5.0595973    4.3258700    4.0697554    4.1768328  
  24 H       2.7782229 *  4.1718270    4.1135279    2.8105728 *  2.5879338 *
  25 H       2.8503901 *  4.4066134    3.0908412    4.4164534    5.0086305  
  26 H       3.5140089    5.1931483    3.8405002    4.7888966    5.2841052  
  27 H       2.8998978 *  3.8920673    2.2697792 *  4.8003087    4.7982848  

               16 H         17 H         18 H         19 H         20 H     

   1 C       5.5067022    3.1072637    2.1534790 *  1.0953076 *  1.0939478 *
   2 C       2.1479599 *  4.3763236    5.4494325    6.2550469    7.0331870  
   3 C       2.1384825 *  2.8625915 *  4.7844583    5.8407882    6.6416203  
   4 O       4.9959705    4.5372957    2.8717707 *  3.2146370    2.7266667 *
   5 C       3.5090686    2.2349802 *  3.4978472    3.0504654    4.2597060  
   6 C       2.7560837 *  3.4137199    3.0051243    3.9514848    4.2353021  
   7 C       4.0304931    2.2445276 *  1.1031826 *  2.1774134 *  2.1704428 *
   8 C       3.9275899    3.3944228    2.1128478 *  2.8743322 *  2.7767153 *
   9 C       1.1018245 *  2.9676379 *  4.1600452    5.3508557    5.9973582  
  10 C       3.1441880    1.0862968 *  2.1420487 *  2.8509148 *  3.5271524  
  11 C       2.1229739 *  2.2794982 *  3.0644724    3.8795163    4.5560773  
  12 H       4.3478608    3.1206311    3.8450683    2.6172935 *  3.9855421  
  13 H       3.8533948    2.5099996 *  4.3501590    3.7615115    5.1283631  
  14 H       2.4468423 *  3.9104822    3.2237033    4.8428769    4.8251668  
  15 H       3.4304881    4.3064469    3.9956811    4.3635871    4.8038448  
  16 H       0.0000000    3.3324963    4.0514683    5.8340482    6.1753364  
  17 H       3.3324963    0.0000000    2.4972395 *  3.4626204    4.0789521  
  18 H       4.0514683    2.4972395 *  0.0000000    3.0734699    2.5050849 *
  19 H       5.8340482    3.4626204    3.0734699    0.0000000    1.7708028 *
  20 H       6.1753364    4.0789521    2.5050849 *  1.7708028 *  0.0000000  
  21 H       5.9027885    3.0373121    2.4836689 *  1.7722291 *  1.7782624 *
  22 H       3.0700605    4.5595768    5.8694338    6.1324107    7.1552775  
  23 H       2.5001485 *  5.0903287    6.2718904    7.2805679    8.0233844  
  24 H       2.4967157 *  4.9135101    5.5081349    6.3496937    6.9810578  
  25 H       2.5028655 *  2.2678173 *  4.3071452    5.6023377    6.2675379  
  26 H       2.4582896 *  3.8711704    5.6837867    6.9280398    7.6707798  
  27 H       3.0705399    3.1042835    5.2800848    5.7505738    6.8134924  

               21 H         22 H         23 H         24 H         25 H     

   1 C       1.0949774 *  6.3593778    7.2750432    6.3847265    5.3330070  
   2 C       6.8397279    1.0970878 *  1.0960162 *  1.0951127 *  3.4942855  
   3 C       5.8520925    2.8129370 *  2.7361535 *  3.4903496    1.0948970 *
   4 O       4.0001014    5.8448003    6.5701094    5.1437324    6.1354415  
   5 C       3.8012613    3.1813608    4.3862631    3.7868839    3.3178324  
   6 C       4.6236189    3.5592520    4.1339592    2.8246264 *  4.2380232  
   7 C       2.1763049 *  5.2574209    5.9473189    5.0798165    4.2271804  
   8 C       3.5103975    4.9045777    5.6005623    4.3500955    4.9236017  
   9 C       5.6182413    2.1844957 *  2.1855388 *  2.1984916 *  2.1985065 *
  10 C       2.9194232 *  4.1133266    4.8327857    4.3030756    2.8692661 *
  11 C       4.3387910    2.8073260 *  3.4857286    2.7782229 *  2.8503901 *
  12 H       3.8440338    3.6570623    5.0595973    4.1718270    4.4066134  
  13 H       4.3877156    3.0460591    4.3258700    4.1135279    3.0908412  
  14 H       5.2691810    3.9650027    4.0697554    2.8105728 *  4.4164534  
  15 H       5.3546597    3.3879899    4.1768328    2.5879338 *  5.0086305  
  16 H       5.9027885    3.0700605    2.5001485 *  2.4967157 *  2.5028655 *
  17 H       3.0373121    4.5595768    5.0903287    4.9135101    2.2678173 *
  18 H       2.4836689 *  5.8694338    6.2718904    5.5081349    4.3071452  
  19 H       1.7722291 *  6.1324107    7.2805679    6.3496937    5.6023377  
  20 H       1.7782624 *  7.1552775    8.0233844    6.9810578    6.2675379  
  21 H       0.0000000    6.8964297    7.7493348    7.0650611    5.2971514  
  22 H       6.8964297    0.0000000    1.7723074 *  1.7709372 *  3.8280764  
  23 H       7.7493348    1.7723074 *  0.0000000    1.7685172 *  3.7486965  
  24 H       7.0650611    1.7709372 *  1.7685172 *  0.0000000    4.3575513  
  25 H       5.2971514    3.8280764    3.7486965    4.3575513    0.0000000  
  26 H       6.8918941    3.1479345    2.4985555 *  3.7362997    1.7660003 *
  27 H       5.9290039    2.6414299 *  3.0875094    3.8263527    1.7745723 *

               26 H         27 H     

   1 C       6.7696164    5.8143281  
   2 C       2.7428797 *  2.7968041 *
   3 C       1.0953219 *  1.0964693 *
   4 O       7.0266422    6.4564445  
   5 C       4.1811925    2.9187718 *
   6 C       4.7616244    4.3704078  
   7 C       5.5400117    4.8418341  
   8 C       5.8524599    5.2801214  
   9 C       2.1697223 *  2.1931543 *
  10 C       4.1755446    3.3338950  
  11 C       3.5140089    2.8998978 *
  12 H       5.1931483    3.8920673  
  13 H       3.8405002    2.2697792 *
  14 H       4.7888966    4.8003087  
  15 H       5.2841052    4.7982848  
  16 H       2.4582896 *  3.0705399  
  17 H       3.8711704    3.1042835  
  18 H       5.6837867    5.2800848  
  19 H       6.9280398    5.7505738  
  20 H       7.6707798    6.8134924  
  21 H       6.8918941    5.9290039  
  22 H       3.1479345    2.6414299 *
  23 H       2.4985555 *  3.0875094  
  24 H       3.7362997    3.8263527  
  25 H       1.7660003 *  1.7745723 *
  26 H       0.0000000    1.7638000 *
  27 H       1.7638000 *  0.0000000  

  * ... LESS THAN  3.000


     ATOMIC BASIS SET
     ----------------
 THE CONTRACTED PRIMITIVE FUNCTIONS HAVE BEEN UNNORMALIZED
 THE CONTRACTED BASIS FUNCTIONS ARE NOW NORMALIZED TO UNITY

  SHELL TYPE  PRIMITIVE        EXPONENT          CONTRACTION COEFFICIENT(S)

 C         

      1   S       1           172.2560000    0.061766907377
      1   S       2            25.9109000    0.358794042852
      1   S       3             5.5333500    0.700713083689

      2   L       4             3.6649800   -0.395895162119    0.236459946619
      2   L       5             0.7705450    1.215834355681    0.860618805716

      3   L       6             0.1958570    1.000000000000    1.000000000000

 C         

      4   S       7           172.2560000    0.061766907377
      4   S       8            25.9109000    0.358794042852
      4   S       9             5.5333500    0.700713083689

      5   L      10             3.6649800   -0.395895162119    0.236459946619
      5   L      11             0.7705450    1.215834355681    0.860618805716

      6   L      12             0.1958570    1.000000000000    1.000000000000

 C         

      7   S      13           172.2560000    0.061766907377
      7   S      14            25.9109000    0.358794042852
      7   S      15             5.5333500    0.700713083689

      8   L      16             3.6649800   -0.395895162119    0.236459946619
      8   L      17             0.7705450    1.215834355681    0.860618805716

      9   L      18             0.1958570    1.000000000000    1.000000000000

 O         

     10   S      19           322.0370000    0.059239393389
     10   S      20            48.4308000    0.351499960776
     10   S      21            10.4206000    0.707657921031

     11   L      22             7.4029400   -0.404453583190    0.244586106967
     11   L      23             1.5762000    1.221561761397    0.853955373466

     12   L      24             0.3736840    1.000000000000    1.000000000000

 C         

     13   S      25           172.2560000    0.061766907377
     13   S      26            25.9109000    0.358794042852
     13   S      27             5.5333500    0.700713083689

     14   L      28             3.6649800   -0.395895162119    0.236459946619
     14   L      29             0.7705450    1.215834355681    0.860618805716

     15   L      30             0.1958570    1.000000000000    1.000000000000

 C         

     16   S      31           172.2560000    0.061766907377
     16   S      32            25.9109000    0.358794042852
     16   S      33             5.5333500    0.700713083689

     17   L      34             3.6649800   -0.395895162119    0.236459946619
     17   L      35             0.7705450    1.215834355681    0.860618805716

     18   L      36             0.1958570    1.000000000000    1.000000000000

 C         

     19   S      37           172.2560000    0.061766907377
     19   S      38            25.9109000    0.358794042852
     19   S      39             5.5333500    0.700713083689

     20   L      40             3.6649800   -0.395895162119    0.236459946619
     20   L      41             0.7705450    1.215834355681    0.860618805716

     21   L      42             0.1958570    1.000000000000    1.000000000000

 C         

     22   S      43           172.2560000    0.061766907377
     22   S      44            25.9109000    0.358794042852
     22   S      45             5.5333500    0.700713083689

     23   L      46             3.6649800   -0.395895162119    0.236459946619
     23   L      47             0.7705450    1.215834355681    0.860618805716

     24   L      48             0.1958570    1.000000000000    1.000000000000

 C         

     25   S      49           172.2560000    0.061766907377
     25   S      50            25.9109000    0.358794042852
     25   S      51             5.5333500    0.700713083689

     26   L      52             3.6649800   -0.395895162119    0.236459946619
     26   L      53             0.7705450    1.215834355681    0.860618805716

     27   L      54             0.1958570    1.000000000000    1.000000000000

 C         

     28   S      55           172.2560000    0.061766907377
     28   S      56            25.9109000    0.358794042852
     28   S      57             5.5333500    0.700713083689

     29   L      58             3.6649800   -0.395895162119    0.236459946619
     29   L      59             0.7705450    1.215834355681    0.860618805716

     30   L      60             0.1958570    1.000000000000    1.000000000000

 C         

     31   S      61           172.2560000    0.061766907377
     31   S      62            25.9109000    0.358794042852
     31   S      63             5.5333500    0.700713083689

     32   L      64             3.6649800   -0.395895162119    0.236459946619
     32   L      65             0.7705450    1.215834355681    0.860618805716

     33   L      66             0.1958570    1.000000000000    1.000000000000

 H         

     34   S      67             5.4471780    0.156284978695
     34   S      68             0.8245472    0.904690876670

     35   S      69             0.1831916    1.000000000000

 H         

     36   S      70             5.4471780    0.156284978695
     36   S      71             0.8245472    0.904690876670

     37   S      72             0.1831916    1.000000000000

 H         

     38   S      73             5.4471780    0.156284978695
     38   S      74             0.8245472    0.904690876670

     39   S      75             0.1831916    1.000000000000

 H         

     40   S      76             5.4471780    0.156284978695
     40   S      77             0.8245472    0.904690876670

     41   S      78             0.1831916    1.000000000000

 H         

     42   S      79             5.4471780    0.156284978695
     42   S      80             0.8245472    0.904690876670

     43   S      81             0.1831916    1.000000000000

 H         

     44   S      82             5.4471780    0.156284978695
     44   S      83             0.8245472    0.904690876670

     45   S      84             0.1831916    1.000000000000

 H         

     46   S      85             5.4471780    0.156284978695
     46   S      86             0.8245472    0.904690876670

     47   S      87             0.1831916    1.000000000000

 H         

     48   S      88             5.4471780    0.156284978695
     48   S      89             0.8245472    0.904690876670

     49   S      90             0.1831916    1.000000000000

 H         

     50   S      91             5.4471780    0.156284978695
     50   S      92             0.8245472    0.904690876670

     51   S      93             0.1831916    1.000000000000

 H         

     52   S      94             5.4471780    0.156284978695
     52   S      95             0.8245472    0.904690876670

     53   S      96             0.1831916    1.000000000000

 H         

     54   S      97             5.4471780    0.156284978695
     54   S      98             0.8245472    0.904690876670

     55   S      99             0.1831916    1.000000000000

 H         

     56   S     100             5.4471780    0.156284978695
     56   S     101             0.8245472    0.904690876670

     57   S     102             0.1831916    1.000000000000

 H         

     58   S     103             5.4471780    0.156284978695
     58   S     104             0.8245472    0.904690876670

     59   S     105             0.1831916    1.000000000000

 H         

     60   S     106             5.4471780    0.156284978695
     60   S     107             0.8245472    0.904690876670

     61   S     108             0.1831916    1.000000000000

 H         

     62   S     109             5.4471780    0.156284978695
     62   S     110             0.8245472    0.904690876670

     63   S     111             0.1831916    1.000000000000

 H         

     64   S     112             5.4471780    0.156284978695
     64   S     113             0.8245472    0.904690876670

     65   S     114             0.1831916    1.000000000000

 TOTAL NUMBER OF BASIS SET SHELLS             =   65
 NUMBER OF CARTESIAN GAUSSIAN BASIS FUNCTIONS =  131
 NUMBER OF ELECTRONS                          =   85
 CHARGE OF MOLECULE                           =   -1
 SPIN MULTIPLICITY                            =    2
 NUMBER OF OCCUPIED ORBITALS (ALPHA)          =   43
 NUMBER OF OCCUPIED ORBITALS (BETA )          =   42
 TOTAL NUMBER OF ATOMS                        =   27
 THE NUCLEAR REPULSION ENERGY IS      642.9155848114

     $CONTRL OPTIONS
     ---------------
 SCFTYP=UHF          RUNTYP=ENERGY       EXETYP=RUN     
 MPLEVL=       0     CITYP =NONE         CCTYP =NONE         VBTYP =NONE    
 DFTTYP=NONE         TDDFT =NONE    
 MULT  =       2     ICHARG=      -1     NZVAR =       0     COORD =UNIQUE  
 PP    =NONE         RELWFN=NONE         LOCAL =NONE         NUMGRD=       F
 ISPHER=      -1     NOSYM =       0     MAXIT =      60     UNITS =ANGS    
 PLTORB=       F     MOLPLT=       F     AIMPAC=       F     FRIEND=        
 NPRINT=       7     IREST =       0     GEOM  =INPUT   
 NORMF =       0     NORMP =       0     ITOL  =      20     ICUT  =       9
 INTTYP=BEST         GRDTYP=BEST         QMTTOL= 1.0E-06

     $SYSTEM OPTIONS
     ---------------
  REPLICATED MEMORY=    30000000 WORDS (ON EVERY NODE).
 DISTRIBUTED MEMDDI=        1000 MILLION WORDS IN AGGREGATE,
 MEMDDI DISTRIBUTED OVER   6 PROCESSORS IS   166666666 WORDS/PROCESSOR.
 TOTAL MEMORY REQUESTED ON EACH PROCESSOR=   196666666 WORDS.
 TIMLIM=      525600.00 MINUTES, OR     365.0 DAYS.
 PARALL= T  BALTYP=  DLB     KDIAG=    0  COREFL= F
 MXSEQ2=     300 MXSEQ3=     150  mem10=         0

          ----------------
          PROPERTIES INPUT
          ----------------

     MOMENTS            FIELD           POTENTIAL          DENSITY
 IEMOM =       1   IEFLD =       0   IEPOT =       0   IEDEN =       0
 WHERE =COMASS     WHERE =NUCLEI     WHERE =NUCLEI     WHERE =NUCLEI  
 OUTPUT=BOTH       OUTPUT=BOTH       OUTPUT=BOTH       OUTPUT=BOTH    
 IEMINT=       0   IEFINT=       0                     IEDINT=       0
                                                       MORB  =       0
          EXTRAPOLATION IN EFFECT
          SOSCF IN EFFECT
          DIIS or SOSCF will be reset if energy rises
 ORBITAL PRINTING OPTION: NPREO=     1   131     2     1

     -------------------------------
     INTEGRAL TRANSFORMATION OPTIONS
     -------------------------------
     NWORD  =            0
     CUTOFF = 1.0E-09     MPTRAN =       0
     DIRTRF =       T     AOINTS =DUP     

          ----------------------
          INTEGRAL INPUT OPTIONS
          ----------------------
 NOPK  =       1 NORDER=       0 SCHWRZ=       T

     ------------------------------------------
     THE POINT GROUP IS C1 , NAXIS= 0, ORDER= 1
     ------------------------------------------

     DIMENSIONS OF THE SYMMETRY SUBSPACES ARE
 A   =  131

 ..... DONE SETTING UP THE RUN .....
 CPU     0: STEP CPU TIME=     0.03 TOTAL CPU TIME=          0.0 (      0.0 MIN)
 TOTAL WALL CLOCK TIME=          0.1 SECONDS, CPU UTILIZATION IS    50.00%

          ********************
          1 ELECTRON INTEGRALS
          ********************
 ...... END OF ONE-ELECTRON INTEGRALS ......
 CPU     0: STEP CPU TIME=     0.02 TOTAL CPU TIME=          0.0 (      0.0 MIN)
 TOTAL WALL CLOCK TIME=          0.1 SECONDS, CPU UTILIZATION IS    62.50%

          -------------
          GUESS OPTIONS
          -------------
          GUESS =HUCKEL            NORB  =       0          NORDER=       0
          MIX   =       F          PRTMO =       F          PUNMO =       F
          TOLZ  = 1.0E-08          TOLE  = 1.0E-05
          SYMDEN=       F          PURIFY=       F

 INITIAL GUESS ORBITALS GENERATED BY HUCKEL   ROUTINE.
 HUCKEL GUESS REQUIRES    164328 WORDS.

 SYMMETRIES FOR INITIAL GUESS ORBITALS FOLLOW.  ALPHA SET(S).
    43 ORBITALS ARE OCCUPIED (   11 CORE ORBITALS).
    12=A       13=A       14=A       15=A       16=A       17=A       18=A   
    19=A       20=A       21=A       22=A       23=A       24=A       25=A   
    26=A       27=A       28=A       29=A       30=A       31=A       32=A   
    33=A       34=A       35=A       36=A       37=A       38=A       39=A   
    40=A       41=A       42=A       43=A       44=A       45=A       46=A   
    47=A       48=A       49=A       50=A       51=A       52=A       53=A   

 SYMMETRIES FOR INITIAL GUESS ORBITALS FOLLOW.   BETA SET(S).
    42 ORBITALS ARE OCCUPIED (   11 CORE ORBITALS).
    12=A       13=A       14=A       15=A       16=A       17=A       18=A   
    19=A       20=A       21=A       22=A       23=A       24=A       25=A   
    26=A       27=A       28=A       29=A       30=A       31=A       32=A   
    33=A       34=A       35=A       36=A       37=A       38=A       39=A   
    40=A       41=A       42=A       43=A       44=A       45=A       46=A   
    47=A       48=A       49=A       50=A       51=A       52=A   
 ...... END OF INITIAL ORBITAL SELECTION ......
 CPU     0: STEP CPU TIME=     0.05 TOTAL CPU TIME=          0.1 (      0.0 MIN)
 TOTAL WALL CLOCK TIME=          0.1 SECONDS, CPU UTILIZATION IS    71.43%

                    ----------------------
                    AO INTEGRAL TECHNOLOGY
                    ----------------------
     S,P,L SHELL ROTATED AXIS INTEGRALS, REPROGRAMMED BY
        KAZUYA ISHIMURA (IMS) AND JOSE SIERRA (SYNSTAR).
     S,P,D,L SHELL ROTATED AXIS INTEGRALS PROGRAMMED BY
        KAZUYA ISHIMURA (INSTITUTE FOR MOLECULAR SCIENCE).
     S,P,D,F,G SHELL TO TOTAL QUARTET ANGULAR MOMENTUM SUM 5,
        ERIC PROGRAM BY GRAHAM FLETCHER (ELORET AND NASA ADVANCED
        SUPERCOMPUTING DIVISION, AMES RESEARCH CENTER).
     S,P,D,F,G,L SHELL GENERAL RYS QUADRATURE PROGRAMMED BY
        MICHEL DUPUIS (PACIFIC NORTHWEST NATIONAL LABORATORY).

          --------------------
          2 ELECTRON INTEGRALS
          --------------------

 DIRECT SCF METHOD SKIPS INTEGRAL STORAGE ON DISK.
 DIRECT TRANSFORMATION SKIPS AO INTEGRAL STORAGE ON DISK.
  ...... END OF TWO-ELECTRON INTEGRALS .....
 CPU     0: STEP CPU TIME=     0.02 TOTAL CPU TIME=          0.1 (      0.0 MIN)
 TOTAL WALL CLOCK TIME=          0.2 SECONDS, CPU UTILIZATION IS    70.59%

          ---------------------------
                  UHF SCF CALCULATION
          ---------------------------

     NUCLEAR ENERGY =       642.9155848114
     MAXIT = 60     NPUNCH=  2     MULT=  2
     EXTRAP=T  DAMP=F  SHIFT=F  RSTRCT=F  DIIS=F  SOSCF=T
     DENSITY MATRIX CONV=  2.00E-05
     SOSCF WILL OPTIMIZE    3784 ALPHA AND    3738 BETA ROTATION ANGLES.
     SOGTOL= 2.500E-01
     MEMORY REQUIRED FOR UHF/ROHF ITERS=    275006 WORDS.

 DIRECT SCF CALCULATION, SCHWRZ=T   FDIFF=T
 SCHWARZ INEQUALITY OVERHEAD:      8161 INTEGRALS, T=        0.00

                                                                                NONZERO     BLOCKS
 ITER EX      TOTAL ENERGY        E CHANGE  DENSITY CHANGE    ORB. GRAD       INTEGRALS    SKIPPED
   1  0     -459.1078206728  -459.1078206728   0.944405472   0.000000000       23387439    1158908
          ---------------START SECOND ORDER SCF---------------
   2  1     -460.0682629360    -0.9604422632   0.189309302   0.091580340       23316774    1179032
   3  2     -460.1240232397    -0.0557603037   0.165342159   0.071433758       23045529    1227562
   4  3     -460.1600959984    -0.0360727587   0.035091735   0.003578663       22701304    1270358
   5  4     -460.1610985858    -0.0010025875   0.010080254   0.002215902       22230900    1312859
   6  5     -460.1612498864    -0.0001513005   0.004421828   0.001221877       21375921    1383417
   7  6     -460.1612807414    -0.0000308550   0.003869203   0.000633710       20698844    1425970
   8  7     -460.1612904246    -0.0000096832   0.001877086   0.000358195       20182998    1461949
   9  8     -460.1612926749    -0.0000022503   0.000669428   0.000118132       19612397    1502314
  10  9     -460.1612931337    -0.0000004588   0.000226231   0.000046196       19054631    1533710
  11 10     -460.1612932223    -0.0000000887   0.000112159   0.000023126       18187876    1585646
  12 11     -460.1612932376    -0.0000000153   0.000050351   0.000007049       17150900    1644467
  13 12     -460.1612932401    -0.0000000025   0.000035234   0.000003667       16068354    1705444
  14 13     -460.1612932413    -0.0000000011   0.000015031   0.000002826       15412218    1736564
  15 14     -460.1612932421    -0.0000000008   0.000003397   0.000000872       14616070    1777620

          -----------------
          DENSITY CONVERGED
          -----------------
     TIME TO FORM FOCK OPERATORS=       5.9 SECONDS (       0.4 SEC/ITER)
     FOCK TIME ON FIRST ITERATION=       0.4, LAST ITERATION=       0.3
     TIME TO SOLVE SCF EQUATIONS=       0.2 SECONDS (       0.0 SEC/ITER)

 FINAL UHF ENERGY IS     -460.1612932421 AFTER  15 ITERATIONS

          --------------------
          SPIN SZ   =    0.500
          S-SQUARED =    0.763
          --------------------

  ----- ALPHA SET ----- 

          ------------
          EIGENVECTORS
          ------------

                      1          2          3          4          5
                  -20.1177   -11.0502   -11.0450   -11.0397   -11.0247
                     A          A          A          A          A   
    1  C  1  S   -0.000009   0.000255   0.000017  -0.000033  -0.001028
    2  C  1  S    0.000198   0.000098   0.000031  -0.000039  -0.000467
    3  C  1  X   -0.000294  -0.000186  -0.000003   0.000013   0.000326
    4  C  1  Y   -0.000752  -0.000009   0.000014  -0.000026  -0.000175
    5  C  1  Z    0.000143   0.000008   0.000030  -0.000023   0.000120
    6  C  1  S    0.004069   0.000357   0.000003   0.000069   0.000337
    7  C  1  X   -0.001016   0.000197   0.000148  -0.000134  -0.001627
    8  C  1  Y    0.001535  -0.000203  -0.000056  -0.000099   0.001057
    9  C  1  Z   -0.003267   0.000028  -0.000238   0.000285  -0.000729
   10  C  2  S   -0.000020  -0.005304  -0.039520   0.986624   0.013748
   11  C  2  S   -0.000209  -0.002943  -0.005881   0.101747  -0.000449
   12  C  2  X   -0.000188   0.000552   0.000250   0.000069  -0.000917
   13  C  2  Y   -0.000132   0.000841  -0.001102   0.000172  -0.000239
   14  C  2  Z    0.000018  -0.000468   0.000031   0.000078  -0.000082
   15  C  2  S    0.000006   0.024696   0.007409  -0.079362   0.005038
   16  C  2  X    0.000361   0.006659  -0.000598  -0.002237   0.003855
   17  C  2  Y    0.000261   0.009959   0.003655  -0.002749   0.001258
   18  C  2  Z    0.000118  -0.005436   0.000337   0.001386  -0.001275
   19  C  3  S    0.000034  -0.012098   0.986666   0.038974   0.005816
   20  C  3  S    0.000175  -0.003730   0.101802   0.002201   0.000071
   21  C  3  X    0.000014   0.000464  -0.000158   0.000238  -0.000884
   22  C  3  Y    0.000057  -0.000980  -0.000119   0.000977   0.000379
   23  C  3  Z    0.000071  -0.000007   0.000128  -0.000509  -0.000247
   24  C  3  S   -0.000715   0.025903  -0.080087   0.000971  -0.002902
   25  C  3  X   -0.000811   0.007172  -0.001323  -0.000580   0.000121
   26  C  3  Y    0.000093  -0.011616   0.003610  -0.002906   0.001485
   27  C  3  Z   -0.000417   0.000012   0.000102   0.002065   0.001634
   28  O  4  S    0.983695  -0.000032   0.000011  -0.000021  -0.000088
   29  O  4  S    0.101886  -0.000288   0.000088  -0.000184  -0.000830
   30  O  4  X   -0.003747   0.000012  -0.000000   0.000026   0.000221
   31  O  4  Y    0.002654   0.000006  -0.000016   0.000028   0.000063
   32  O  4  Z   -0.000001   0.000059   0.000023  -0.000004  -0.000029
   33  O  4  S   -0.061840   0.001366  -0.000591   0.000939   0.003200
   34  O  4  X    0.013962  -0.000270   0.000168  -0.000350  -0.001574
   35  O  4  Y   -0.009909   0.000137   0.000057  -0.000112  -0.000020
   36  O  4  Z   -0.000103  -0.000256  -0.000103   0.000028   0.000257
   37  C  5  S    0.000047  -0.003695  -0.001490   0.002696  -0.005019
   38  C  5  S   -0.000018  -0.001079  -0.000358   0.001167  -0.002202
   39  C  5  X   -0.000163   0.000737   0.000394  -0.000222  -0.000442
   40  C  5  Y    0.000247   0.000254  -0.000217  -0.000132  -0.000899
   41  C  5  Z    0.000445   0.000527   0.000274   0.000018  -0.001093
   42  C  5  S   -0.005872   0.000835  -0.000715  -0.003576   0.025581
   43  C  5  X    0.000116   0.001134  -0.000217   0.001528  -0.004321
   44  C  5  Y    0.000479  -0.001085   0.000686   0.000254  -0.008657
   45  C  5  Z    0.003255  -0.001289   0.000250   0.001311  -0.008328
   46  C  6  S   -0.000040  -0.001722  -0.001263  -0.000191  -0.003133
   47  C  6  S   -0.000316  -0.001160  -0.001142   0.000096  -0.003381
   48  C  6  X    0.000934   0.000380   0.000265  -0.000169  -0.000726
   49  C  6  Y   -0.000221   0.000122  -0.000034   0.000011   0.000413
   50  C  6  Z    0.000260   0.000106  -0.000001  -0.000129   0.000176
   51  C  6  S    0.007937   0.004670   0.004811  -0.000512   0.024373
   52  C  6  X   -0.003563  -0.000766  -0.002567   0.002946  -0.001874
   53  C  6  Y    0.008138   0.000955   0.002113  -0.000376   0.012432
   54  C  6  Z   -0.003326   0.001360   0.000180   0.000065   0.004048
   55  C  7  S   -0.000002   0.000213  -0.000759   0.000131  -0.002356
   56  C  7  S   -0.000067   0.000268  -0.000622   0.000234  -0.000787
   57  C  7  X    0.000919   0.000078   0.000114   0.000074   0.000673
   58  C  7  Y   -0.000337   0.000102  -0.000041  -0.000020   0.000243
   59  C  7  Z    0.000132   0.000024  -0.000013   0.000005  -0.000365
   60  C  7  S    0.006376  -0.003484   0.002893  -0.002022  -0.003006
   61  C  7  X   -0.011034   0.001314  -0.001293   0.000400   0.000717
   62  C  7  Y   -0.002679  -0.000160  -0.000654   0.001437  -0.000339
   63  C  7  Z   -0.000474  -0.001279   0.000292  -0.000389   0.001285
   64  C  8  S    0.000363  -0.000703  -0.000066  -0.000395  -0.001721
   65  C  8  S    0.002657  -0.000773  -0.000004  -0.000355  -0.001042
   66  C  8  X    0.000791   0.000218   0.000067   0.000120   0.000756
   67  C  8  Y   -0.000853   0.000048   0.000059  -0.000047  -0.000062
   68  C  8  Z   -0.000030  -0.000150  -0.000055   0.000000   0.000091
   69  C  8  S    0.016475   0.001438  -0.000456   0.000199  -0.004657
   70  C  8  X    0.027930  -0.002023   0.000393  -0.000207   0.000146
   71  C  8  Y   -0.019279   0.001423  -0.001562   0.002305   0.003129
   72  C  8  Z    0.000889   0.000627   0.000310  -0.000188  -0.001325
   73  C  9  S   -0.000140   0.988518   0.011175   0.005085   0.003399
   74  C  9  S   -0.000751   0.108399  -0.000079  -0.000478  -0.001227
   75  C  9  X    0.000283  -0.000484  -0.000028  -0.000382   0.000120
   76  C  9  Y   -0.000120   0.000141   0.000191  -0.000195  -0.000724
   77  C  9  Z   -0.000016   0.000508   0.000055   0.000122  -0.000007
   78  C  9  S    0.006531  -0.110793   0.013374   0.010768   0.010490
   79  C  9  X    0.003277  -0.002240  -0.004872  -0.006836   0.008254
   80  C  9  Y    0.000139  -0.002635   0.010308  -0.008362   0.007921
   81  C  9  Z    0.000538  -0.007783  -0.001200   0.003575   0.001217
   82  C 10  S   -0.000139  -0.001485  -0.001292  -0.003406  -0.002762
   83  C 10  S   -0.001356  -0.000216  -0.000283  -0.001365  -0.001890
   84  C 10  X   -0.000400   0.000187   0.000375   0.000216  -0.000741
   85  C 10  Y    0.001229   0.000276  -0.000186   0.000041  -0.001409
   86  C 10  Z   -0.000189   0.000001  -0.000173   0.000120   0.000196
   87  C 10  S   -0.004053   0.000250  -0.000697   0.006317   0.025454
   88  C 10  X   -0.001317   0.004665  -0.000995  -0.002015  -0.007978
   89  C 10  Y   -0.003141  -0.002476   0.001177  -0.002708  -0.010543
   90  C 10  Z    0.004189   0.000122   0.000573   0.000527  -0.004317
   91  C 11  S   -0.000072  -0.003939  -0.005318  -0.014383   0.988330
   92  C 11  S   -0.000887  -0.002663  -0.001101  -0.003244   0.107825
   93  C 11  X   -0.001520   0.000232   0.000712   0.001302   0.001763
   94  C 11  Y   -0.000267  -0.000660  -0.000863   0.000757   0.001921
   95  C 11  Z   -0.000305  -0.000137  -0.000190  -0.000242   0.000991
   96  C 11  S   -0.004383   0.023818  -0.000563   0.005041  -0.105018
   97  C 11  X    0.006759  -0.021576  -0.002336  -0.006229  -0.016253
   98  C 11  Y    0.005002   0.004117   0.003517  -0.003916  -0.011652
   99  C 11  Z    0.005175  -0.003844   0.001693   0.001098  -0.005968
  100  H 12  S    0.000374  -0.000104  -0.000024   0.000086  -0.001286
  101  H 12  S   -0.000763  -0.000023   0.000520  -0.000257  -0.001137
  102  H 13  S    0.000098   0.000052   0.000112   0.000518  -0.001262
  103  H 13  S   -0.000147   0.000843  -0.001261   0.000176   0.000273
  104  H 14  S   -0.000194  -0.000092  -0.000408   0.000397  -0.001126
  105  H 14  S   -0.001435  -0.000410  -0.000071  -0.000289   0.001412
  106  H 15  S    0.000896  -0.000061  -0.000117   0.000250  -0.001539
  107  H 15  S    0.001898  -0.001304  -0.000231  -0.000728   0.001291
  108  H 16  S   -0.000262   0.002007  -0.001087  -0.001136  -0.000868
  109  H 16  S   -0.000230   0.014271   0.000673   0.001266   0.001507
  110  H 17  S    0.000462   0.000667   0.000138  -0.000189  -0.001467
  111  H 17  S    0.002605   0.001263  -0.001642  -0.000118  -0.000443
  112  H 18  S    0.000136   0.000056  -0.000177   0.000059   0.000603
  113  H 18  S   -0.000722  -0.000337   0.000036  -0.000126  -0.000331
  114  H 19  S    0.000414   0.000075   0.000070  -0.000009  -0.000139
  115  H 19  S    0.000989  -0.000247   0.000023  -0.000237   0.000700
  116  H 20  S   -0.000103  -0.000057  -0.000029   0.000001   0.000050
  117  H 20  S   -0.000254  -0.000191  -0.000046   0.000100   0.000876
  118  H 21  S   -0.000479   0.000009  -0.000016  -0.000026  -0.000434
  119  H 21  S   -0.001452   0.000090   0.000097   0.000088  -0.000146
  120  H 22  S   -0.000054  -0.001591  -0.000504   0.000335  -0.000510
  121  H 22  S   -0.000108   0.000038  -0.002093   0.014436  -0.000034
  122  H 23  S   -0.000011  -0.001145  -0.000394   0.000218  -0.000245
  123  H 23  S    0.000451  -0.000301  -0.001843   0.013624   0.002019
  124  H 24  S   -0.000051  -0.001245  -0.000060   0.000114  -0.000544
  125  H 24  S    0.000117   0.000018   0.001508   0.014554  -0.001195
  126  H 25  S    0.000175  -0.001386   0.000119  -0.000096   0.000210
  127  H 25  S   -0.000227   0.000031   0.014118   0.002764  -0.000645
  128  H 26  S   -0.000066  -0.001160   0.000351  -0.000307   0.000084
  129  H 26  S   -0.000156  -0.000168   0.014336  -0.000795   0.001625
  130  H 27  S    0.000094  -0.001596   0.000205  -0.000609  -0.000007
  131  H 27  S    0.000297  -0.000127   0.014689  -0.000642  -0.001321

                      6          7          8          9         10
                  -11.0142   -11.0133   -10.9889   -10.9761   -10.9678
                     A          A          A          A          A   
    1  C  1  S    0.001596  -0.008112   0.987457   0.005848   0.003266
    2  C  1  S    0.000585  -0.002142   0.101709  -0.001935  -0.000434
    3  C  1  X   -0.000173   0.001180   0.000077  -0.000631   0.000121
    4  C  1  Y   -0.000029   0.000007   0.000060  -0.000517   0.000325
    5  C  1  Z    0.000039   0.000136   0.000081  -0.000457   0.000035
    6  C  1  S   -0.000434   0.002528  -0.080733   0.023185   0.001860
    7  C  1  X    0.000864  -0.002281   0.003627  -0.010932  -0.001447
    8  C  1  Y    0.000251   0.001600   0.002411  -0.006538  -0.001793
    9  C  1  Z   -0.001202  -0.002506   0.001589  -0.003136   0.000435
   10  C  2  S   -0.002767   0.002872   0.000060  -0.000083   0.000239
   11  C  2  S    0.000397  -0.000483  -0.000043  -0.000004   0.000074
   12  C  2  X    0.000352  -0.000590  -0.000030   0.000065  -0.000163
   13  C  2  Y    0.000098  -0.000137   0.000012   0.000064   0.000052
   14  C  2  Z    0.000048   0.000052  -0.000007   0.000000   0.000153
   15  C  2  S   -0.000373   0.000492   0.000163   0.000464  -0.000752
   16  C  2  X   -0.001597   0.003147   0.000236  -0.000094  -0.000236
   17  C  2  Y    0.000282  -0.000158   0.000109   0.000262  -0.000947
   18  C  2  Z   -0.001331  -0.000443   0.000061  -0.000137  -0.000511
   19  C  3  S    0.001221   0.001502  -0.000003   0.000621   0.001035
   20  C  3  S   -0.000038  -0.000187  -0.000020  -0.000403  -0.000741
   21  C  3  X   -0.000181  -0.000332  -0.000045  -0.000300  -0.000395
   22  C  3  Y    0.000026  -0.000073  -0.000013  -0.000074   0.000176
   23  C  3  Z   -0.000363   0.000116  -0.000024  -0.000109  -0.000081
   24  C  3  S    0.000208   0.000656   0.000048   0.001295   0.001610
   25  C  3  X   -0.000382   0.001168   0.000311   0.001502   0.002058
   26  C  3  Y    0.000262   0.000749  -0.000154   0.000001  -0.000366
   27  C  3  Z    0.001772  -0.001315   0.000161   0.000756   0.000202
   28  O  4  S   -0.000014  -0.000126   0.000036   0.000026   0.000007
   29  O  4  S   -0.000160  -0.001160   0.000323   0.000008  -0.000167
   30  O  4  X    0.000091   0.000036   0.000100   0.000341  -0.000094
   31  O  4  Y    0.000016  -0.000251   0.000163   0.000316  -0.000326
   32  O  4  Z    0.000077   0.000045  -0.000077   0.000059   0.000048
   33  O  4  S    0.000485   0.004727  -0.001283  -0.000558   0.000256
   34  O  4  X   -0.000556  -0.000828  -0.000488  -0.001452   0.002243
   35  O  4  Y   -0.000094   0.001868  -0.001261  -0.003580   0.002096
   36  O  4  Z   -0.000273  -0.000061   0.000197  -0.000069  -0.000388
   37  C  5  S    0.983348   0.090681  -0.000781   0.004971   0.004825
   38  C  5  S    0.101886   0.007375   0.000311  -0.000785  -0.001491
   39  C  5  X   -0.000298   0.000298   0.000045  -0.000912  -0.000206
   40  C  5  Y   -0.000169   0.000559  -0.000075  -0.000147   0.000905
   41  C  5  Z   -0.001617  -0.001401  -0.000096   0.001111   0.000906
   42  C  5  S   -0.083457   0.019743  -0.001118   0.000024   0.003729
   43  C  5  X    0.001029   0.008524  -0.000700  -0.000454  -0.000843
   44  C  5  Y   -0.000136   0.002287  -0.000115  -0.000296  -0.001117
   45  C  5  Z    0.013932  -0.008932   0.001597  -0.002640  -0.003980
   46  C  6  S   -0.004951  -0.003311  -0.003418  -0.018103   0.988065
   47  C  6  S   -0.002584  -0.001351  -0.001225  -0.003182   0.105901
   48  C  6  X   -0.000143   0.000104  -0.000011  -0.000846  -0.000153
   49  C  6  Y   -0.000776  -0.000787  -0.000129  -0.000136   0.000352
   50  C  6  Z   -0.000555  -0.000389   0.000221   0.000413  -0.000135
   51  C  6  S    0.007257  -0.002139   0.004532   0.006023  -0.102582
   52  C  6  X    0.002671  -0.000366   0.002187   0.003990  -0.006254
   53  C  6  Y    0.005015  -0.000736   0.001254  -0.001601  -0.011354
   54  C  6  Z    0.000544   0.003078  -0.001215  -0.001583   0.000347
   55  C  7  S   -0.004859  -0.005464  -0.006631   0.988536   0.017819
   56  C  7  S   -0.001802  -0.003764  -0.002067   0.109036   0.000871
   57  C  7  X    0.000970  -0.000677   0.000202  -0.000224   0.000082
   58  C  7  Y    0.000261   0.000995   0.000022  -0.000051   0.000812
   59  C  7  Z   -0.000887  -0.000469  -0.000212   0.000512   0.000391
   60  C  7  S    0.001675   0.025352   0.015052  -0.115011  -0.000154
   61  C  7  X   -0.002212  -0.014142   0.009247   0.003967   0.001183
   62  C  7  Y   -0.002068  -0.005672   0.006846   0.008860  -0.002021
   63  C  7  Z    0.001659   0.009533   0.005471  -0.008510  -0.002611
   64  C  8  S   -0.000413  -0.002670  -0.002547  -0.001860  -0.003947
   65  C  8  S    0.000275  -0.001602  -0.001074  -0.002402  -0.002810
   66  C  8  X    0.000345   0.000371  -0.000583   0.000019  -0.000107
   67  C  8  Y   -0.000313  -0.000918  -0.000955   0.000510   0.000092
   68  C  8  Z   -0.000407   0.000088  -0.000321  -0.000025   0.000119
   69  C  8  S   -0.006283  -0.005625   0.000511   0.026507   0.026379
   70  C  8  X    0.002622  -0.004978   0.003681   0.003699  -0.018343
   71  C  8  Y    0.000207  -0.001195   0.003481   0.021984  -0.007460
   72  C  8  Z    0.000473  -0.000665   0.000001  -0.000819   0.001997
   73  C  9  S    0.003496   0.002034  -0.000214  -0.000097   0.001620
   74  C  9  S   -0.000303   0.000438   0.000185   0.000264  -0.000708
   75  C  9  X   -0.000828  -0.000389  -0.000003  -0.000133  -0.000449
   76  C  9  Y   -0.000576  -0.000484   0.000005  -0.000015   0.000394
   77  C  9  Z   -0.000587  -0.000523   0.000011   0.000022  -0.000105
   78  C  9  S   -0.001657  -0.004606  -0.001269  -0.003265   0.002137
   79  C  9  X    0.000936  -0.002500  -0.000494  -0.000827   0.000837
   80  C  9  Y    0.001847   0.000338  -0.000169  -0.000118  -0.000185
   81  C  9  Z   -0.000741   0.003060  -0.000324  -0.001035   0.001985
   82  C 10  S   -0.091267   0.983995   0.007938   0.003926   0.002841
   83  C 10  S   -0.011113   0.106119  -0.000623  -0.002906  -0.000576
   84  C 10  X   -0.000455  -0.000378  -0.000881   0.000514   0.000376
   85  C 10  Y   -0.000345  -0.002799  -0.000210   0.000365   0.000808
   86  C 10  Z    0.000196   0.001514  -0.000193  -0.000601  -0.000065
   87  C 10  S    0.027604  -0.099342   0.003205   0.028672  -0.001676
   88  C 10  X   -0.003845  -0.001490   0.001057   0.015144   0.000153
   89  C 10  Y   -0.002182   0.025059  -0.000680  -0.010366   0.001822
   90  C 10  Z    0.011645  -0.009296   0.000731  -0.002699  -0.000988
   91  C 11  S    0.004497   0.002540   0.000935   0.002368   0.002266
   92  C 11  S    0.000036  -0.001215  -0.000198  -0.000275  -0.002312
   93  C 11  X    0.000877   0.001044  -0.000014  -0.000474  -0.000168
   94  C 11  Y    0.000650   0.000798   0.000013  -0.000542  -0.000064
   95  C 11  Z    0.000019   0.000525   0.000235   0.000166   0.000001
   96  C 11  S    0.010497   0.026135   0.000939  -0.003120   0.021970
   97  C 11  X   -0.004510   0.007428  -0.000921  -0.005169   0.012538
   98  C 11  Y    0.001383   0.010562   0.000255  -0.002039  -0.012881
   99  C 11  Z    0.012160  -0.008949  -0.000175  -0.000840  -0.005893
  100  H 12  S   -0.000277  -0.001850   0.000445  -0.000156  -0.000453
  101  H 12  S    0.011593  -0.001336  -0.001235   0.001281   0.001398
  102  H 13  S   -0.000206  -0.000912  -0.000032  -0.000104  -0.000185
  103  H 13  S    0.013630   0.002627  -0.000386   0.001415   0.001147
  104  H 14  S   -0.000409   0.000536  -0.000379  -0.000361   0.001491
  105  H 14  S    0.001828   0.000508  -0.000351  -0.001394   0.014375
  106  H 15  S   -0.000157  -0.000324  -0.000156  -0.000420   0.001009
  107  H 15  S    0.000236  -0.000599   0.000653   0.000193   0.013665
  108  H 16  S   -0.000259   0.000862   0.000057   0.000047   0.000184
  109  H 16  S    0.001403   0.001016  -0.000076  -0.000164  -0.000367
  110  H 17  S   -0.001306  -0.001410   0.000058  -0.000476  -0.000135
  111  H 17  S   -0.001030   0.007176  -0.000503   0.002825  -0.000411
  112  H 18  S   -0.000145  -0.000711  -0.000914   0.002117  -0.000336
  113  H 18  S    0.001988   0.003117   0.001436   0.013603  -0.001238
  114  H 19  S    0.000175  -0.000079   0.000208  -0.001677  -0.000230
  115  H 19  S    0.000590   0.000797   0.014689  -0.000625  -0.000669
  116  H 20  S   -0.000047  -0.000313   0.000289  -0.001156  -0.000400
  117  H 20  S   -0.000445   0.002040   0.014094   0.000491   0.000834
  118  H 21  S    0.000068  -0.000389   0.000174  -0.001172  -0.000016
  119  H 21  S   -0.000142  -0.001565   0.013871   0.000386   0.000892
  120  H 22  S    0.000071  -0.000423   0.000002   0.000015   0.000223
  121  H 22  S    0.001036   0.000843  -0.000127  -0.000058   0.000257
  122  H 23  S   -0.000102   0.000155   0.000021  -0.000026  -0.000048
  123  H 23  S   -0.001020   0.001430   0.000061  -0.000209   0.000043
  124  H 24  S    0.000184  -0.000499  -0.000078  -0.000048   0.000030
  125  H 24  S    0.000582  -0.000411   0.000159   0.000230  -0.000773
  126  H 25  S    0.000187  -0.000254  -0.000108  -0.000269  -0.000325
  127  H 25  S    0.000115  -0.001408   0.000298   0.000013  -0.000255
  128  H 26  S   -0.000085  -0.000068   0.000034   0.000047  -0.000007
  129  H 26  S    0.000407   0.000401   0.000121   0.000728   0.001027
  130  H 27  S   -0.000029   0.000149  -0.000042  -0.000128  -0.000189
  131  H 27  S   -0.001937   0.000072   0.000007  -0.000749  -0.000302

                     11         12         13         14         15
                  -10.9344    -1.1042    -1.0196    -0.9346    -0.8470
                     A          A          A          A          A   
    1  C  1  S    0.002339  -0.008393  -0.012836   0.023033  -0.144809
    2  C  1  S   -0.001046   0.010092   0.015829  -0.024650   0.143743
    3  C  1  X    0.000157  -0.003887  -0.011201   0.012759  -0.034723
    4  C  1  Y    0.000543  -0.003456  -0.003561   0.005091  -0.016989
    5  C  1  Z   -0.000003  -0.002892  -0.002712   0.004158  -0.019362
    6  C  1  S    0.005756  -0.006838   0.018817  -0.048687   0.375655
    7  C  1  X   -0.002214   0.005570   0.007697  -0.003585   0.004591
    8  C  1  Y   -0.002138  -0.006249   0.001134  -0.001560   0.011612
    9  C  1  Z   -0.002084   0.013021   0.006596  -0.003080  -0.009258
   10  C  2  S    0.000372  -0.001264  -0.032152  -0.105067  -0.029737
   11  C  2  S   -0.000223   0.002111   0.036344   0.106371   0.028302
   12  C  2  X   -0.000404   0.001537   0.012805   0.015061  -0.004183
   13  C  2  Y   -0.000177   0.000990   0.015172   0.035814   0.003840
   14  C  2  Z    0.000042  -0.000480  -0.008065  -0.020844  -0.003176
   15  C  2  S   -0.000533   0.002184   0.052445   0.247107   0.087634
   16  C  2  X    0.000800  -0.002306  -0.010425  -0.004598  -0.002805
   17  C  2  Y    0.000658  -0.001357  -0.006354  -0.006911  -0.000140
   18  C  2  Z    0.000362   0.000419   0.007406  -0.002300  -0.004587
   19  C  3  S    0.000100  -0.001465  -0.036740  -0.106675  -0.026638
   20  C  3  S   -0.000061   0.001582   0.039410   0.107378   0.026116
   21  C  3  X    0.000050   0.000938   0.015611   0.012807  -0.005888
   22  C  3  Y    0.000034  -0.000924  -0.017615  -0.041522  -0.004845
   23  C  3  Z    0.000105  -0.000072   0.001407  -0.001516  -0.002021
   24  C  3  S    0.000793   0.002765   0.080248   0.254033   0.069398
   25  C  3  X   -0.000641   0.001687  -0.004783  -0.005875  -0.006482
   26  C  3  Y   -0.000379   0.000082  -0.001621   0.005797   0.003043
   27  C  3  Z   -0.000468   0.001173  -0.005623  -0.004584  -0.000318
   28  O  4  S    0.000335  -0.211449   0.041405  -0.019354   0.033445
   29  O  4  S    0.002676   0.193087  -0.036634   0.018072  -0.032453
   30  O  4  X    0.000463  -0.090671   0.012997  -0.004659   0.008482
   31  O  4  Y   -0.000305   0.064068  -0.009205   0.001411   0.007536
   32  O  4  Z    0.000004  -0.000683   0.000511  -0.000364  -0.000285
   33  O  4  S   -0.010609   0.689375  -0.143375   0.064194  -0.108536
   34  O  4  X    0.005122  -0.098656   0.018163  -0.006181   0.010765
   35  O  4  Y   -0.003721   0.070014  -0.011857   0.002102   0.010296
   36  O  4  Z    0.000001  -0.000897   0.000143   0.000206   0.000331
   37  C  5  S    0.000843  -0.010018  -0.101730   0.046935   0.059998
   38  C  5  S    0.000018   0.011329   0.108221  -0.049577  -0.059071
   39  C  5  X   -0.000591   0.002442  -0.002647  -0.016240   0.018722
   40  C  5  Y    0.000582  -0.003128  -0.011417  -0.001161   0.009322
   41  C  5  Z    0.001024  -0.010444  -0.080695   0.034117   0.027868
   42  C  5  S   -0.006567   0.030990   0.158135  -0.085669  -0.147606
   43  C  5  X    0.001050  -0.003092  -0.016181   0.000474   0.008591
   44  C  5  Y   -0.000793   0.001945   0.016199  -0.003705  -0.003342
   45  C  5  Z   -0.000421  -0.006147  -0.002524   0.003480   0.017313
   46  C  6  S    0.003145  -0.024727  -0.046639   0.012735   0.008695
   47  C  6  S   -0.001750   0.025009   0.052719  -0.013117  -0.006300
   48  C  6  X    0.000414   0.016688  -0.012786  -0.011184   0.017074
   49  C  6  Y   -0.000373   0.007535   0.036911  -0.013914  -0.002740
   50  C  6  Z    0.000123  -0.001165   0.009344  -0.003676  -0.009569
   51  C  6  S    0.022949   0.008142   0.075520  -0.031482  -0.035228
   52  C  6  X    0.008300   0.008506  -0.013197   0.003198  -0.006745
   53  C  6  Y    0.011249  -0.035887  -0.010206  -0.004770   0.006495
   54  C  6  Z   -0.002783   0.008608  -0.013958   0.001715   0.005863
   55  C  7  S    0.001244  -0.026410  -0.043247   0.046753  -0.138906
   56  C  7  S   -0.001140   0.024326   0.045753  -0.045315   0.122443
   57  C  7  X    0.000706  -0.000841  -0.031371   0.016841   0.035324
   58  C  7  Y   -0.000301  -0.018857  -0.002416  -0.000709   0.021529
   59  C  7  Z    0.000018   0.003474   0.015159  -0.011828   0.014668
   60  C  7  S    0.017841   0.023032   0.085118  -0.102708   0.395115
   61  C  7  X   -0.009444   0.042539   0.006327  -0.003620  -0.009976
   62  C  7  Y   -0.013507   0.015387   0.013594  -0.007552  -0.009938
   63  C  7  Z    0.000127  -0.000675  -0.011673   0.005919   0.014292
   64  C  8  S    0.986818  -0.123874  -0.005433   0.012527  -0.026511
   65  C  8  S    0.100100   0.122606   0.010589  -0.013825   0.031733
   66  C  8  X   -0.000491   0.108629  -0.046447   0.022068  -0.014189
   67  C  8  Y    0.000380  -0.075428   0.032939  -0.026014   0.068182
   68  C  8  Z    0.000110   0.000543   0.004373  -0.002073  -0.004749
   69  C  8  S   -0.061728   0.159278   0.028873  -0.031450   0.032596
   70  C  8  X    0.024568  -0.090378   0.005360   0.009990  -0.026690
   71  C  8  Y   -0.016870   0.062051  -0.006917  -0.002470  -0.010648
   72  C  8  Z    0.000260  -0.001473   0.004257  -0.003172  -0.001727
   73  C  9  S    0.000478  -0.003719  -0.072515  -0.135290  -0.011359
   74  C  9  S   -0.000953   0.006039   0.065550   0.122274   0.008756
   75  C  9  X    0.000106   0.002428   0.024180  -0.040021  -0.034701
   76  C  9  Y    0.000115   0.000476   0.008845   0.001017  -0.003904
   77  C  9  Z   -0.000007   0.001081   0.014684   0.012785  -0.004045
   78  C  9  S    0.006113  -0.008937   0.210016   0.369544   0.035304
   79  C  9  X    0.003812  -0.010883   0.015549  -0.010811  -0.007895
   80  C  9  Y   -0.001225  -0.000715  -0.017830   0.004013   0.011077
   81  C  9  Z   -0.000074  -0.002546   0.006301   0.017407   0.001441
   82  C 10  S    0.002425  -0.014406  -0.112447   0.064728  -0.008379
   83  C 10  S   -0.001438   0.019114   0.110056  -0.060539   0.012033
   84  C 10  X   -0.000761   0.003219  -0.032114  -0.006824   0.083121
   85  C 10  Y    0.001326  -0.013061  -0.055971   0.024844   0.016940
   86  C 10  Z   -0.000351   0.002650   0.036439  -0.019340  -0.045945
   87  C 10  S   -0.004173   0.040663   0.216909  -0.163424   0.013345
   88  C 10  X    0.000149   0.002208   0.000174  -0.000785  -0.005188
   89  C 10  Y   -0.002549   0.006361  -0.039061   0.037396   0.008759
   90  C 10  Z    0.003627  -0.010138   0.027380  -0.016706  -0.006859
   91  C 11  S    0.001684  -0.015054  -0.130876   0.008359   0.052243
   92  C 11  S   -0.000805   0.017522   0.125548  -0.003229  -0.045203
   93  C 11  X   -0.001633   0.013231   0.027993  -0.081038  -0.009618
   94  C 11  Y   -0.000126   0.002355   0.046173  -0.028430  -0.022459
   95  C 11  Z   -0.000382   0.001340   0.021388  -0.022398  -0.031586
   96  C 11  S   -0.006001   0.046898   0.270807  -0.029895  -0.151549
   97  C 11  X    0.004846  -0.014358   0.071198   0.005903  -0.006924
   98  C 11  Y    0.004664  -0.013549   0.035342  -0.009042  -0.024110
   99  C 11  Z    0.004441  -0.011598   0.034385  -0.015946  -0.012039
  100  H 12  S   -0.000572   0.004578   0.038773  -0.022356  -0.024114
  101  H 12  S    0.002254   0.000325   0.003124  -0.003717  -0.003054
  102  H 13  S    0.000313   0.002577   0.037666  -0.015507  -0.032251
  103  H 13  S    0.001925  -0.004317  -0.012948   0.007249  -0.005750
  104  H 14  S   -0.001690   0.009009   0.016129  -0.001339  -0.001930
  105  H 14  S    0.002114  -0.001520  -0.011604   0.006670   0.005297
  106  H 15  S   -0.000505   0.006570   0.017394  -0.004144  -0.005721
  107  H 15  S    0.003090  -0.009384  -0.003766   0.004225  -0.003257
  108  H 16  S   -0.000237   0.001917   0.027338   0.064074   0.008092
  109  H 16  S   -0.001062   0.000387  -0.010497  -0.000735   0.004348
  110  H 17  S    0.000368   0.003237   0.041881  -0.024197   0.005179
  111  H 17  S    0.003034  -0.010176   0.010812  -0.006276   0.000623
  112  H 18  S   -0.001505   0.008851   0.014044  -0.018355   0.068854
  113  H 18  S    0.002659  -0.005088  -0.011183   0.007063   0.006560
  114  H 19  S   -0.000370   0.003017   0.006581  -0.011539   0.074075
  115  H 19  S    0.000270  -0.003889  -0.002165   0.001139   0.008896
  116  H 20  S   -0.000363   0.003622   0.005113  -0.009790   0.073151
  117  H 20  S   -0.000718   0.006962  -0.006728   0.003666   0.001423
  118  H 21  S   -0.000387   0.004081   0.006268  -0.010762   0.075147
  119  H 21  S    0.001261   0.005142  -0.000085  -0.000316   0.004480
  120  H 22  S   -0.000065   0.000726   0.016036   0.051843   0.015618
  121  H 22  S   -0.000239  -0.000042  -0.002128   0.003868   0.003286
  122  H 23  S    0.000048   0.000517   0.013486   0.053456   0.019062
  123  H 23  S    0.000829  -0.002340  -0.003401   0.004598   0.004163
  124  H 24  S   -0.000215   0.001016   0.015534   0.047702   0.014805
  125  H 24  S    0.000859  -0.000705  -0.000162  -0.004221  -0.000951
  126  H 25  S    0.000103   0.000409   0.017406   0.048311   0.013665
  127  H 25  S   -0.000276   0.001177   0.001319  -0.004694  -0.000851
  128  H 26  S   -0.000163   0.000772   0.014500   0.055258   0.018389
  129  H 26  S   -0.000255  -0.000070  -0.006311   0.005274   0.005261
  130  H 27  S    0.000124   0.000446   0.017896   0.053008   0.013740
  131  H 27  S   -0.000079   0.000004   0.006154   0.001594  -0.000055

                     16         17         18         19         20
                   -0.8200    -0.7916    -0.7237    -0.6963    -0.6215
                     A          A          A          A          A   
    1  C  1  S   -0.007695   0.027945  -0.120483   0.058817   0.044026
    2  C  1  S    0.006891  -0.025316   0.109961  -0.053113  -0.038330
    3  C  1  X   -0.001253   0.001544   0.039571  -0.030906  -0.041471
    4  C  1  Y    0.001224  -0.004746   0.021576  -0.012399  -0.046247
    5  C  1  Z   -0.000112  -0.001291   0.015782  -0.018365  -0.028216
    6  C  1  S    0.021688  -0.084099   0.394607  -0.198270  -0.169829
    7  C  1  X   -0.002657   0.006051   0.007838  -0.007959  -0.015637
    8  C  1  Y   -0.001473   0.003215   0.010914  -0.009415  -0.017405
    9  C  1  Z    0.002559  -0.003920   0.002315  -0.007477  -0.017457
   10  C  2  S    0.126858   0.080097   0.064625   0.049340   0.027803
   11  C  2  S   -0.117126  -0.073057  -0.056785  -0.041647  -0.023699
   12  C  2  X   -0.005766   0.013989   0.043736   0.040241   0.028469
   13  C  2  Y    0.018022   0.009521   0.029200   0.038129   0.052503
   14  C  2  Z   -0.001052  -0.009077  -0.024367  -0.039925  -0.039713
   15  C  2  S   -0.384309  -0.252755  -0.236828  -0.190709  -0.121322
   16  C  2  X    0.001813   0.006348   0.017735   0.008501   0.018924
   17  C  2  Y    0.001896   0.001340   0.003325   0.006916   0.019628
   18  C  2  Z   -0.000095  -0.003164  -0.005327  -0.017147  -0.021161
   19  C  3  S   -0.146000  -0.041751   0.048530   0.057931   0.020523
   20  C  3  S    0.134015   0.038320  -0.043185  -0.050331  -0.016486
   21  C  3  X   -0.002964  -0.000392   0.038799   0.051166   0.016218
   22  C  3  Y    0.021156   0.008529  -0.034065  -0.057501  -0.063409
   23  C  3  Z   -0.004684  -0.007623  -0.005773  -0.021835  -0.004637
   24  C  3  S    0.450135   0.129807  -0.172971  -0.221537  -0.099142
   25  C  3  X   -0.002087  -0.004926   0.016321   0.020977   0.006879
   26  C  3  Y    0.002276   0.003175  -0.009619  -0.018305  -0.024950
   27  C  3  Z    0.000814  -0.002978  -0.007160  -0.011528  -0.007029
   28  O  4  S   -0.015979   0.041370  -0.022075  -0.011619   0.032963
   29  O  4  S    0.014966  -0.039621   0.021072   0.011175  -0.031647
   30  O  4  X    0.003012  -0.010872   0.007765   0.010619  -0.012795
   31  O  4  Y    0.003235  -0.006581  -0.005976   0.007811   0.030967
   32  O  4  Z   -0.000341   0.000328   0.002728  -0.004980  -0.003181
   33  O  4  S    0.055278  -0.139226   0.076439   0.039587  -0.116162
   34  O  4  X    0.001485  -0.008781   0.006913   0.008127  -0.010941
   35  O  4  Y    0.003530  -0.008189  -0.002694   0.006585   0.028333
   36  O  4  Z   -0.000253   0.000570   0.002048  -0.003644  -0.002457
   37  C  5  S   -0.025782   0.080497  -0.021766   0.089620  -0.096928
   38  C  5  S    0.024645  -0.073347   0.019041  -0.080627   0.084108
   39  C  5  X   -0.003397   0.002590  -0.036979  -0.002768   0.002248
   40  C  5  Y    0.017396  -0.029527  -0.021628   0.014328  -0.010882
   41  C  5  Z   -0.009382   0.020311   0.008342  -0.043452   0.129547
   42  C  5  S    0.073357  -0.241640   0.076793  -0.321999   0.398337
   43  C  5  X   -0.004470   0.012263  -0.002919  -0.004107   0.004027
   44  C  5  Y    0.003070  -0.004859  -0.001397   0.009194  -0.011618
   45  C  5  Z   -0.013261   0.032099  -0.008386   0.011278   0.029865
   46  C  6  S    0.065936  -0.152194  -0.002065   0.071314   0.025658
   47  C  6  S   -0.059500   0.138623   0.002380  -0.063713  -0.020407
   48  C  6  X    0.006938   0.004839  -0.051495  -0.018955   0.041954
   49  C  6  Y   -0.008821   0.017175  -0.003886   0.023085   0.003527
   50  C  6  Z   -0.000129  -0.008614   0.009380  -0.015567   0.001470
   51  C  6  S   -0.187664   0.433872   0.006747  -0.227004  -0.107188
   52  C  6  X    0.011165   0.005340  -0.016737  -0.000575   0.012898
   53  C  6  Y   -0.009879   0.018413  -0.005565   0.007886  -0.004331
   54  C  6  Z    0.000289  -0.004556   0.002428  -0.011854   0.014031
   55  C  7  S    0.000455  -0.006304   0.063117  -0.052406  -0.071513
   56  C  7  S   -0.000063   0.006309  -0.055631   0.043324   0.058566
   57  C  7  X    0.001291  -0.009636   0.090528  -0.052839   0.027838
   58  C  7  Y    0.013963  -0.040357   0.039312   0.005360  -0.069683
   59  C  7  Z    0.003935  -0.013758   0.019687  -0.024311  -0.025625
   60  C  7  S   -0.005698   0.016207  -0.192016   0.182251   0.264728
   61  C  7  X    0.005963  -0.009425   0.017559  -0.022657   0.011790
   62  C  7  Y    0.006578  -0.007810  -0.002644   0.003039  -0.038784
   63  C  7  Z   -0.003995   0.006091   0.007019  -0.013753   0.007321
   64  C  8  S    0.018826  -0.054541   0.044581   0.011011  -0.057622
   65  C  8  S   -0.020648   0.057945  -0.043975  -0.010402   0.057170
   66  C  8  X    0.036282  -0.094507   0.036330   0.037385  -0.007038
   67  C  8  Y   -0.001255   0.004947  -0.043137   0.034658   0.073740
   68  C  8  Z   -0.000618  -0.000825   0.008789  -0.017403  -0.007881
   69  C  8  S   -0.033934   0.105173  -0.115862  -0.035248   0.154926
   70  C  8  X    0.007713  -0.027891   0.032347   0.017062  -0.048251
   71  C  8  Y   -0.005063   0.030219  -0.028795  -0.003532   0.038916
   72  C  8  Z    0.000126  -0.002592   0.002803  -0.006715  -0.003274
   73  C  9  S    0.007857  -0.010405  -0.068483  -0.093671  -0.060892
   74  C  9  S   -0.006177   0.009659   0.059597   0.078887   0.049322
   75  C  9  X   -0.016311   0.030190   0.082393   0.057835  -0.031008
   76  C  9  Y    0.111371   0.029894  -0.003026  -0.006549  -0.012225
   77  C  9  Z   -0.022363  -0.026326  -0.015452  -0.045511  -0.024732
   78  C  9  S   -0.034470   0.034299   0.247660   0.349489   0.241160
   79  C  9  X   -0.008683   0.009731   0.024355   0.020265  -0.032014
   80  C  9  Y    0.024046   0.000796  -0.013504  -0.000241   0.000663
   81  C  9  Z   -0.004898  -0.009260   0.001177  -0.022621   0.001492
   82  C 10  S   -0.025222   0.050450   0.069553  -0.063503   0.086132
   83  C 10  S    0.021905  -0.046588  -0.060461   0.056166  -0.072668
   84  C 10  X   -0.013657   0.023336  -0.056022   0.012722   0.080886
   85  C 10  Y    0.010667  -0.020614  -0.002792   0.010470  -0.022497
   86  C 10  Z    0.014754  -0.049841   0.028489  -0.072054   0.035284
   87  C 10  S    0.082728  -0.138215  -0.246263   0.218438  -0.335875
   88  C 10  X   -0.012276   0.011361  -0.008254  -0.015315   0.038579
   89  C 10  Y   -0.011430   0.004222   0.036688  -0.009040   0.017614
   90  C 10  Z    0.005055  -0.014992  -0.005607  -0.008283  -0.010110
   91  C 11  S    0.022819  -0.036713  -0.068445  -0.028352   0.043498
   92  C 11  S   -0.022332   0.033592   0.060221   0.025447  -0.036555
   93  C 11  X   -0.004579   0.020997  -0.076840  -0.072913  -0.056638
   94  C 11  Y    0.061079  -0.099233  -0.022503   0.038555  -0.035656
   95  C 11  Z    0.015902  -0.059069   0.005704  -0.077078   0.047855
   96  C 11  S   -0.064043   0.117625   0.223410   0.088478  -0.156311
   97  C 11  X   -0.014356   0.009153  -0.013166  -0.017938  -0.020237
   98  C 11  Y   -0.002274  -0.013043   0.015379   0.008270  -0.032511
   99  C 11  Z   -0.003191  -0.004467   0.003545  -0.018128  -0.004535
  100  H 12  S    0.008613  -0.035210   0.008573  -0.076043   0.113741
  101  H 12  S    0.002274  -0.011606   0.004415  -0.032560   0.057787
  102  H 13  S    0.020354  -0.051987   0.021117  -0.068453   0.102079
  103  H 13  S    0.011373  -0.016338   0.010472  -0.035345   0.060389
  104  H 14  S   -0.035240   0.085185   0.006336  -0.038803  -0.021952
  105  H 14  S   -0.006467   0.016029   0.003596  -0.007970  -0.008294
  106  H 15  S   -0.034113   0.078319   0.006350  -0.057210  -0.019277
  107  H 15  S   -0.006469   0.010410   0.003433  -0.021283  -0.012748
  108  H 16  S   -0.006746   0.014594   0.048971   0.079317   0.055986
  109  H 16  S   -0.002478   0.009388   0.013837   0.027670   0.028776
  110  H 17  S    0.020537  -0.034992  -0.043316   0.055749  -0.096838
  111  H 17  S    0.013121  -0.011952  -0.023701   0.025184  -0.064337
  112  H 18  S   -0.000503   0.005894  -0.040361   0.040825   0.054344
  113  H 18  S   -0.002693   0.006425  -0.008462   0.014860   0.026126
  114  H 19  S    0.004102  -0.016301   0.077707  -0.044642  -0.038142
  115  H 19  S   -0.000509  -0.001771   0.021866  -0.017829  -0.012077
  116  H 20  S    0.003591  -0.014148   0.081045  -0.043139  -0.033108
  117  H 20  S    0.002018  -0.005593   0.025515  -0.015106  -0.015014
  118  H 21  S    0.004667  -0.017421   0.081683  -0.040863  -0.051330
  119  H 21  S    0.002824  -0.008641   0.025143  -0.012025  -0.033285
  120  H 22  S   -0.071335  -0.050941  -0.048997  -0.048168  -0.034219
  121  H 22  S   -0.010300  -0.011186  -0.017892  -0.024930  -0.015963
  122  H 23  S   -0.070889  -0.052460  -0.059088  -0.046876  -0.029946
  123  H 23  S   -0.010309  -0.014561  -0.026866  -0.027380  -0.015915
  124  H 24  S   -0.081722  -0.045723  -0.041968  -0.038488  -0.036680
  125  H 24  S   -0.021501  -0.005895  -0.012006  -0.016477  -0.025325
  126  H 25  S    0.092354   0.028582  -0.034319  -0.040091  -0.038338
  127  H 25  S    0.023399   0.008073  -0.013482  -0.012807  -0.031246
  128  H 26  S    0.085518   0.025513  -0.046879  -0.056130  -0.018638
  129  H 26  S    0.015581   0.003498  -0.024102  -0.028504  -0.010762
  130  H 27  S    0.085569   0.021327  -0.039123  -0.060183  -0.025118
  131  H 27  S    0.014716   0.000350  -0.013930  -0.031713  -0.010504

                     21         22         23         24         25
                   -0.5711    -0.5358    -0.5056    -0.4881    -0.4600
                     A          A          A          A          A   
    1  C  1  S    0.005064   0.018189  -0.013192   0.005209   0.001164
    2  C  1  S   -0.004222  -0.015466   0.011483  -0.003904   0.000527
    3  C  1  X    0.004707  -0.046332   0.061676  -0.051530  -0.055164
    4  C  1  Y   -0.035277  -0.004087  -0.003716   0.027322  -0.016669
    5  C  1  Z   -0.020009  -0.066621   0.033227   0.001920   0.129658
    6  C  1  S   -0.021912  -0.075274   0.052884  -0.023463  -0.007699
    7  C  1  X    0.009340  -0.026910   0.044210  -0.035874  -0.040252
    8  C  1  Y   -0.020877  -0.001554   0.000928   0.016055  -0.008634
    9  C  1  Z   -0.013729  -0.049587   0.027676   0.000219   0.097751
   10  C  2  S   -0.011249  -0.001543  -0.000376   0.012115  -0.003812
   11  C  2  S    0.010132   0.001315   0.001198  -0.007740   0.004211
   12  C  2  X    0.005660   0.071178  -0.016534   0.010408   0.161665
   13  C  2  Y   -0.019762  -0.022666   0.095875   0.190824  -0.031062
   14  C  2  Z    0.070523   0.081532   0.062182   0.025188   0.061477
   15  C  2  S    0.048868   0.013152  -0.003408  -0.064778   0.015583
   16  C  2  X    0.001826   0.049632  -0.017633   0.004587   0.119334
   17  C  2  Y   -0.010068  -0.013426   0.067913   0.143168  -0.032117
[...]
             15  C  2  S      1.10218     0.58053
             16  C  2  X      0.48785     0.57708
             17  C  2  Y      0.48707     0.57757
             18  C  2  Z      0.51592     0.59479
             19  C  3  S      1.98835     1.97650
             20  C  3  S      0.35291     0.41653
             21  C  3  X      0.53149     0.50210
             22  C  3  Y      0.54011     0.52119
             23  C  3  Z      0.53551     0.50270
             24  C  3  S      1.10543     0.57948
             25  C  3  X      0.49987     0.58342
             26  C  3  Y      0.44280     0.56481
             27  C  3  Z      0.55189     0.60392
             28  O  4  S      1.98691     1.98096
             29  O  4  S      0.41068     0.56698
             30  O  4  X      0.69129     0.68984
             31  O  4  Y      0.73986     0.74174
             32  O  4  Z      0.68309     0.69188
             33  O  4  S      1.55085     1.03783
             34  O  4  X      0.87952     0.90870
             35  O  4  Y      0.93785     0.97411
             36  O  4  Z      0.89089     0.90030
             37  C  5  S      1.98829     1.97590
             38  C  5  S      0.35268     0.40343
             39  C  5  X      0.54514     0.52581
             40  C  5  Y      0.54197     0.53214
             41  C  5  Z      0.52650     0.49843
             42  C  5  S      1.03509     0.55507
             43  C  5  X      0.53026     0.59560
             44  C  5  Y      0.50649     0.60325
             45  C  5  Z      0.33141     0.51036
             46  C  6  S      1.98998     1.97625
             47  C  6  S      0.34478     0.41922
             48  C  6  X      0.55779     0.55119
             49  C  6  Y      0.51881     0.49913
             50  C  6  Z      0.51674     0.48435
             51  C  6  S      1.11396     0.56184
             52  C  6  X      0.45449     0.56400
             53  C  6  Y      0.38267     0.54064
             54  C  6  Z      0.52810     0.58462
             55  C  7  S      1.99093     1.97599
             56  C  7  S      0.33468     0.41361
             57  C  7  X      0.50374     0.49088
             58  C  7  Y      0.56668     0.56291
             59  C  7  Z      0.51439     0.48765
             60  C  7  S      1.12005     0.54809
             61  C  7  X      0.30365     0.49938
             62  C  7  Y      0.47222     0.57223
             63  C  7  Z      0.49059     0.56362
             64  C  8  S      1.98741     1.97519
             65  C  8  S      0.36976     0.40685
             66  C  8  X      0.53671     0.51848
             67  C  8  Y      0.50018     0.48539
             68  C  8  Z      0.57147     0.58569
             69  C  8  S      0.64454     0.51609
             70  C  8  X      0.11673     0.44149
             71  C  8  Y      0.19381     0.46789
             72  C  8  Z      0.71602     0.70880
             73  C  9  S      1.99053     1.97596
             74  C  9  S      0.33587     0.40653
             75  C  9  X      0.53452     0.52432
             76  C  9  Y      0.51200     0.49515
             77  C  9  Z      0.53401     0.50891
             78  C  9  S      1.14187     0.54572
             79  C  9  X      0.37272     0.52176
             80  C  9  Y      0.35725     0.52118
             81  C  9  Z      0.51670     0.56309
             82  C 10  S      1.99002     1.97594
             83  C 10  S      0.34387     0.40912
             84  C 10  X      0.54813     0.53939
             85  C 10  Y      0.53137     0.51532
             86  C 10  Z      0.51691     0.50404
             87  C 10  S      1.05992     0.53906
             88  C 10  X      0.39775     0.53013
             89  C 10  Y      0.44329     0.54051
             90  C 10  Z      0.40922     0.55647
             91  C 11  S      1.99035     1.97554
             92  C 11  S      0.33804     0.40339
             93  C 11  X      0.53163     0.53045
             94  C 11  Y      0.53458     0.52603
             95  C 11  Z      0.52268     0.51522
             96  C 11  S      1.01987     0.52255
             97  C 11  X      0.37033     0.50352
             98  C 11  Y      0.38335     0.51862
             99  C 11  Z      0.41575     0.56065
            100  H 12  S      0.46325     0.46455
            101  H 12  S      0.32150     0.43968
            102  H 13  S      0.47418     0.47805
            103  H 13  S      0.36074     0.45725
            104  H 14  S      0.47191     0.48915
            105  H 14  S      0.39878     0.47911
            106  H 15  S      0.47151     0.48383
            107  H 15  S      0.37878     0.46643
            108  H 16  S      0.46780     0.48856
            109  H 16  S      0.33113     0.43766
            110  H 17  S      0.47540     0.48233
            111  H 17  S      0.36103     0.45449
            112  H 18  S      0.47047     0.49546
            113  H 18  S      0.38801     0.46962
            114  H 19  S      0.46975     0.47375
            115  H 19  S      0.36447     0.45738
            116  H 20  S      0.46733     0.47005
            117  H 20  S      0.33920     0.44556
            118  H 21  S      0.47618     0.48278
            119  H 21  S      0.40259     0.47537
            120  H 22  S      0.46722     0.47100
            121  H 22  S      0.35076     0.45126
            122  H 23  S      0.47269     0.47769
            123  H 23  S      0.37413     0.46210
            124  H 24  S      0.46672     0.46944
            125  H 24  S      0.32432     0.43984
            126  H 25  S      0.46869     0.47208
            127  H 25  S      0.33770     0.44514
            128  H 26  S      0.47178     0.47719
            129  H 26  S      0.36498     0.45716
            130  H 27  S      0.46857     0.47241
            131  H 27  S      0.35086     0.45116

          ----- MULLIKEN ATOMIC OVERLAP POPULATIONS -----
          (OFF-DIAGONAL ELEMENTS NEED TO BE MULTIPLIED BY 2)

             1           2           3           4           5

    1    5.4104370
    2    0.0000005   5.3778491
    3   -0.0000014  -0.0896200   5.3638575
    4    0.0044175  -0.0000000   0.0000000   8.4585827
    5   -0.0049565  -0.0034046  -0.0008894  -0.0000231   5.6299255
    6    0.0052103  -0.0021577   0.0019846  -0.0852074  -0.0523324
    7    0.2238991  -0.0000532   0.0000194  -0.0957180  -0.0536042
    8   -0.0808023   0.0000212  -0.0000381   0.4700578   0.0127226
    9   -0.0000369   0.2698811   0.2703333  -0.0000128  -0.0406698
   10   -0.0497418   0.0033739  -0.0041925   0.0023558   0.0500508
   11    0.0053466  -0.0907698  -0.0723395   0.0020007   0.0680554
   12   -0.0004399   0.0000935   0.0000135  -0.0002520   0.3800844
   13   -0.0001522   0.0004895  -0.0008457  -0.0000003   0.3827510
   14   -0.0002752  -0.0005481   0.0001381   0.0027319   0.0050735
   15    0.0001493   0.0006568  -0.0000559   0.0028716  -0.0060761
   16   -0.0000022  -0.0494974  -0.0460045   0.0000002   0.0039322
   17   -0.0011867  -0.0000285  -0.0006165  -0.0000149  -0.0232788
   18   -0.0768445  -0.0000013   0.0000063   0.0024534   0.0053127
   19    0.3616031  -0.0000000   0.0000000  -0.0003159   0.0021507
   20    0.3772007  -0.0000000  -0.0000000   0.0069701   0.0000434
   21    0.3548222  -0.0000000  -0.0000000   0.0000386   0.0001835
   22   -0.0000000   0.3722319  -0.0008126   0.0000000   0.0021195
   23   -0.0000000   0.3685201  -0.0018258   0.0000000   0.0000418
   24   -0.0000000   0.3803284   0.0033228   0.0000001   0.0000554
   25    0.0000004   0.0035829   0.3789040   0.0000000  -0.0003818
   26   -0.0000000  -0.0014018   0.3744985  -0.0000000  -0.0000470
   27    0.0000001  -0.0011334   0.3725085  -0.0000000   0.0009775

             6           7           8           9          10

    6    5.7886158
    7   -0.2574716   5.9825600
    8    0.2185956   0.1673670   5.1512939
    9   -0.0414484   0.0016935   0.0012494   5.4699523
   10   -0.0283757   0.1387295  -0.0721750  -0.0254016   5.8585567
   11    0.1452174  -0.0219969  -0.0614793   0.2561318   0.0990012
   12   -0.0021153  -0.0016146   0.0083650   0.0012402  -0.0240807
   13    0.0019861   0.0019099   0.0003386  -0.0027983  -0.0333328
   14    0.3504751   0.0024826  -0.0659439  -0.0014531  -0.0019627
   15    0.3565216   0.0056478  -0.0544742  -0.0014266   0.0054587
   16   -0.0005402   0.0000971  -0.0000452   0.3976225  -0.0029731
   17    0.0021169  -0.0216577   0.0019482  -0.0022806   0.3932901
   18    0.0035103   0.3583487  -0.0705229   0.0000992  -0.0659709
   19    0.0002308  -0.0390519   0.0043282   0.0000015  -0.0041773
   20    0.0005390  -0.0478181   0.0015132   0.0000004   0.0042181
   21   -0.0000632  -0.0468226   0.0043168   0.0000005  -0.0025527
   22    0.0001998   0.0000033  -0.0000023  -0.0450866  -0.0002038
   23   -0.0000059   0.0000006  -0.0000003  -0.0447763  -0.0000514
   24    0.0019226   0.0000042  -0.0000043  -0.0366066   0.0000096
   25   -0.0000289  -0.0000275  -0.0000005  -0.0397140   0.0009999
   26   -0.0000317   0.0000002   0.0000003  -0.0465004   0.0000390
   27   -0.0000234  -0.0000002  -0.0000003  -0.0445039  -0.0004053

            11          12          13          14          15

   11    6.0168073
   12   -0.0258338   0.4646054
   13   -0.0352323  -0.0180615   0.5385237
   14   -0.0667793   0.0002595   0.0000096   0.6979766
   15   -0.0302223  -0.0002316  -0.0001121  -0.0595144   0.6314382
   16   -0.0543106  -0.0000264   0.0000146   0.0047371  -0.0002138
   17   -0.0277475   0.0010283  -0.0022702   0.0001358  -0.0000715
   18   -0.0021285   0.0002227   0.0000163   0.0026155  -0.0004575
   19   -0.0003276   0.0015682   0.0000283   0.0000091  -0.0000403
   20   -0.0001673  -0.0000593  -0.0000003  -0.0000058  -0.0000029
   21   -0.0000689   0.0000500   0.0000002   0.0000032  -0.0000006
   22   -0.0016551  -0.0000627   0.0001988   0.0000299   0.0000406
   23    0.0045427  -0.0000008  -0.0000154  -0.0000254   0.0000234
   24   -0.0020348   0.0000020   0.0000011   0.0005161   0.0003741
   25   -0.0006044   0.0000035   0.0001198   0.0000063  -0.0000002
   26    0.0039167   0.0000005   0.0000287   0.0000011   0.0000000
   27   -0.0007458  -0.0000119   0.0013286  -0.0000009   0.0000022

            16          17          18          19          20

   16    0.5450894
   17    0.0005144   0.5132859
   18    0.0000320   0.0003299   0.6972137
   19    0.0000000   0.0001175   0.0045843   0.5602630
   20   -0.0000000  -0.0000408  -0.0012184  -0.0260446   0.5240951
   21    0.0000000   0.0008743   0.0008829  -0.0307129  -0.0326981
   22    0.0034274   0.0000058  -0.0000000  -0.0000000  -0.0000000
   23   -0.0012215   0.0000006  -0.0000000  -0.0000000   0.0000000
   24   -0.0014931  -0.0000003  -0.0000001  -0.0000000  -0.0000000
   25   -0.0012305   0.0018126  -0.0000052  -0.0000000  -0.0000000
   26   -0.0023162   0.0000110   0.0000001   0.0000000   0.0000000
   27    0.0033396   0.0001544  -0.0000005  -0.0000000  -0.0000000

            21          22          23          24          25

   21    0.6305125
   22    0.0000000   0.5402823
   23    0.0000000  -0.0299196   0.5777821
   24    0.0000000  -0.0252337  -0.0284111   0.4984129
   25   -0.0000001  -0.0000443  -0.0000427  -0.0000503   0.5180006
   26    0.0000000  -0.0000268   0.0021759  -0.0000327  -0.0287042
   27   -0.0000000   0.0024829   0.0000236  -0.0000387  -0.0262138

            26          27

   26    0.5657288
   27   -0.0305728   0.5422690

          TOTAL MULLIKEN AND LOWDIN ATOMIC POPULATIONS
       ATOM         MULL.POP.    CHARGE          LOW.POP.     CHARGE
    1 C             6.528647   -0.528647         6.242720   -0.242720
    2 C             6.538413   -0.538413         6.246730   -0.246730
    3 C             6.548344   -0.548344         6.250653   -0.250653
    4 O             8.770936   -0.770936         8.492346   -0.492346
    5 C             6.357816   -0.357816         6.199986   -0.199986
    6 C             6.407324   -0.407324         6.181234   -0.181234
    7 C             6.296926   -0.296926         6.114356   -0.114356
    8 C             5.636629    0.363371         6.105852   -0.105852
    9 C             6.295490   -0.295490         6.062620   -0.062620
   10 C             6.240486   -0.240486         6.109971   -0.109971
   11 C             6.106576   -0.106576         6.055976   -0.055976
   12 H             0.784746    0.215254         0.904226    0.095774
   13 H             0.834924    0.165076         0.935309    0.064691
   14 H             0.870692    0.129308         0.968255    0.031745
   15 H             0.850285    0.149715         0.950262    0.049738
   16 H             0.798932    0.201068         0.926219    0.073781
   17 H             0.836432    0.163568         0.936829    0.063171
   18 H             0.858478    0.141522         0.965077    0.034923
   19 H             0.834214    0.165786         0.931128    0.068872
   20 H             0.806525    0.193475         0.915610    0.084390
   21 H             0.878766    0.121234         0.958149    0.041851
   22 H             0.817975    0.182025         0.922260    0.077740
   23 H             0.846815    0.153185         0.939796    0.060204
   24 H             0.791044    0.208956         0.909283    0.090717
   25 H             0.806382    0.193618         0.917227    0.082773
   26 H             0.836767    0.163233         0.934346    0.065654
   27 H             0.819436    0.180564         0.923575    0.076425

          -------------------------------
          BOND ORDER AND VALENCE ANALYSIS     BOND ORDER THRESHOLD=0.050
          -------------------------------

                   BOND                       BOND                       BOND
  ATOM PAIR DIST  ORDER      ATOM PAIR DIST  ORDER      ATOM PAIR DIST  ORDER
    1   7  1.532  0.904        1  19  1.095  0.938        1  20  1.094  0.928
    1  21  1.095  0.941        2   9  1.541  0.912        2  22  1.097  0.932
    2  23  1.096  0.938        2  24  1.095  0.928        3   9  1.537  0.924
    3  25  1.095  0.931        3  26  1.095  0.938        3  27  1.096  0.930
    4   8  1.215  1.541        5  10  1.515  0.871        5  11  1.515  0.881
    5  12  1.089  0.927        5  13  1.086  0.939        6   8  1.531  0.856
    6  11  1.528  0.887        6  14  1.101  0.906        6  15  1.095  0.919
    7   8  1.538  0.829        7  10  1.522  0.884        7  18  1.103  0.905
    9  11  1.532  0.906        9  16  1.102  0.918       10  11  1.527  0.906
   10  17  1.086  0.950

                       TOTAL       BONDED        FREE
      ATOM            VALENCE     VALENCE     VALENCE
    1 C                 3.687       3.686       0.001
    2 C                 3.665       3.665       0.000
    3 C                 3.675       3.675       0.000
    4 O                 1.798       1.644       0.154
    5 C                 3.608       3.608       0.000
    6 C                 3.557       3.549       0.008
    7 C                 3.477       3.469       0.008
    8 C                 3.462       3.192       0.270
    9 C                 3.582       3.582       0.000
   10 C                 3.565       3.564       0.000
   11 C                 3.480       3.480       0.000
   12 H                 0.932       0.932       0.000
   13 H                 0.934       0.934       0.000
   14 H                 0.920       0.915       0.005
   15 H                 0.927       0.925       0.002
   16 H                 0.909       0.909       0.000
   17 H                 0.947       0.947       0.000
   18 H                 0.913       0.908       0.005
   19 H                 0.931       0.931       0.000
   20 H                 0.927       0.927       0.000
   21 H                 0.933       0.933       0.000
   22 H                 0.924       0.924       0.000
   23 H                 0.930       0.930       0.000
   24 H                 0.918       0.918       0.000
   25 H                 0.923       0.923       0.000
   26 H                 0.927       0.927       0.000
   27 H                 0.925       0.925       0.000

          -----------------------------------------
          ATOMIC SPIN DENSITY AT THE NUCLEUS (A.U.)
          -----------------------------------------
                            SPIN DENS    ALPHA DENS     BETA DENS
    1  C            6.0     0.0307182      47.01390      46.98318
    2  C            6.0     0.0000197      47.00022      47.00020
    3  C            6.0     0.0000755      46.99847      46.99839
    4  O            8.0     0.1581844     116.89230     116.73412
    5  C            6.0     0.0004874      46.99063      46.99014
    6  C            6.0    -0.0535451      47.04366      47.09720
    7  C            6.0    -0.0507868      47.07658      47.12737
    8  C            6.0     0.1311565      47.02703      46.89588
    9  C            6.0    -0.0015790      47.07401      47.07559
   10  C            6.0     0.0131543      47.07712      47.06396
   11  C            6.0     0.0087443      47.08463      47.07589
   12  H            1.0    -0.0003257       0.18098       0.18130
   13  H            1.0     0.0006570       0.18636       0.18571
   14  H            1.0     0.0181404       0.19542       0.17728
   15  H            1.0     0.0104721       0.19091       0.18044
   16  H            1.0    -0.0000303       0.18476       0.18479
   17  H            1.0    -0.0007642       0.18616       0.18693
   18  H            1.0     0.0170768       0.19498       0.17790
   19  H            1.0    -0.0010609       0.18379       0.18485
   20  H            1.0    -0.0009832       0.18273       0.18372
   21  H            1.0    -0.0009842       0.18672       0.18770
   22  H            1.0    -0.0000052       0.18321       0.18321
   23  H            1.0     0.0000060       0.18557       0.18556
   24  H            1.0     0.0000019       0.18289       0.18289
   25  H            1.0     0.0000045       0.18378       0.18378
   26  H            1.0     0.0001432       0.18538       0.18524
   27  H            1.0     0.0000699       0.18383       0.18376

          ---------------------
          ELECTROSTATIC MOMENTS
          ---------------------

 POINT   1           X           Y           Z (BOHR)    CHARGE
                 0.023390   -0.008838   -0.182823       -1.00 (A.U.)
         DX          DY          DZ         /D/  (DEBYE)
    -7.987728    3.869772    1.058414    8.938633
 ...... END OF PROPERTY EVALUATION ......
 CPU     0: STEP CPU TIME=     0.09 TOTAL CPU TIME=          6.5 (      0.1 MIN)
 TOTAL WALL CLOCK TIME=         12.8 SECONDS, CPU UTILIZATION IS    50.74%
               580000  WORDS OF DYNAMIC MEMORY USED
 EXECUTION OF GAMESS TERMINATED NORMALLY Mon May 25 19:53:56 2020
 DDI: 263640 bytes (0.3 MB / 0 MWords) used by master data server.
Note: The following floating-point exceptions are signalling: IEEE_DENORMALNote: The following floating-point exceptions are signalling: IEEE_DENORMALNote: The following floating-point exceptions are signalling: IEEE_DENORMAL
 ----------------------------------------
 CPU timing information for all processes
 ========================================
 0: 6.352 + 0.179 = 6.532
 1: 6.274 + 0.44 = 6.318
 2: 6.517 + 0.20 = 6.537
 3: 6.81 + 0.76 = 6.158
 4: 6.532 + 0.48 = 6.580
 5: 6.345 + 0.36 = 6.381
 ----------------------------------------

Note: The following floating-point exceptions are signalling:

Note: The following floating-point exceptions are signalling: IEEE_DENORMALNote: The following floating-point exceptions are signalling: IEEE_DENORMAL IEEE_DENORMAL


 ddikick.x: exited gracefully.
unset echo
----- accounting info -----
Files used on the master node pietdev were:
-rwxr-xr-x 1 piet piet     1215 mei 25 19:53 /home/piet/scr/tujone_fukui_acid.F05*
-rw-r--r-- 1 piet piet 68812800 mei 25 19:53 /home/piet/scr/tujone_fukui_acid.F10
ls: No match.
ls: No match.
ls: No match.
ma 25 mei 2020 19:54:00 CEST
0.131u 0.018s 0:16.02 0.8%	0+0k 0+8io 0pf+0w
