----- GAMESS execution script 'rungms' -----
This job is running on host pietdev
under operating system Linux at za 16 mei 2020 20:49:03 CEST
Available scratch disk space (Kbyte units) at beginning of the job is
Filesystem     1K-blocks     Used Available Use% Mounted on
/dev/sda2      244568380 30362360 201712964  14% /
GAMESS temporary binary files will be written to /home/piet/scr
GAMESS supplementary output files will be written to /home/piet/gamess/scr
Copying input file aspartate_minus1__fukui_neu.inp to your run's scratch directory...
cp aspartate_minus1__fukui_neu.inp /home/piet/scr/aspartate_minus1__fukui_neu.F05
unset echo
 
Assuming a single but multicore node.
 
/home/piet/gamess/ddikick.x /home/piet/gamess/gamess.03.x aspartate_minus1__fukui_neu -ddi 1 6 pietdev:cpus=6 -scr /home/piet/scr

 Distributed Data Interface kickoff program.
 Initiating 6 compute processes on 1 nodes to run the following command:
 /home/piet/gamess/gamess.03.x aspartate_minus1__fukui_neu 

          ******************************************************
          *         GAMESS VERSION = 30 SEP 2019 (R2)          *
          *             FROM IOWA STATE UNIVERSITY             *
          * M.W.SCHMIDT, K.K.BALDRIDGE, J.A.BOATZ, S.T.ELBERT, *
          *   M.S.GORDON, J.H.JENSEN, S.KOSEKI, N.MATSUNAGA,   *
          *          K.A.NGUYEN, S.J.SU, T.L.WINDUS,           *
          *       TOGETHER WITH M.DUPUIS, J.A.MONTGOMERY       *
          *         J.COMPUT.CHEM.  14, 1347-1363(1993)        *
          **************** 64 BIT LINUX VERSION ****************

  SINCE 1993, STUDENTS AND POSTDOCS WORKING AT IOWA STATE UNIVERSITY
  AND ALSO IN THEIR VARIOUS JOBS AFTER LEAVING ISU HAVE MADE IMPORTANT
  CONTRIBUTIONS TO THE CODE:
     IVANA ADAMOVIC, CHRISTINE AIKENS, YURI ALEXEEV, POOJA ARORA,
     ANDREY ASADCHEV, ROB BELL, PRADIPTA BANDYOPADHYAY, JONATHAN BENTZ,
     COLLEEN BERTONI, BRETT BODE, KURT BRORSEN, CALEB CARLIN, GALINA CHABAN,
     WEI CHEN, CHEOL HO CHOI, PAUL DAY, ALBERT DEFUSCO, NUWAN DESILVA,
     TIM DUDLEY, DMITRI FEDOROV, ALEX FINDLATER, GRAHAM FLETCHER, 
     MARK FREITAG, KURT GLAESEMANN, EMILIE B GUIDEZ, ANASTASIA GUNINA, 
     DAN KEMP, SAROM SOK LEANG, GRANT MERRILL,
     NORIYUKI MINEZAWA, JONATHAN MULLIN,
     TAKESHI NAGATA, SEAN NEDD, HEATHER NETZLOFF, BOSILJKA NJEGIC, RYAN OLSON,
     MIKE PAK, BUU PHAM, DAVID POOLE,
     SPENCER PRUITT, LUKE ROSKOP, TOSAPORN SATTASATHUCHANA,
     JIM SHOEMAKER, LYUDMILA SLIPCHENKO,
     TONY SMITH, JIE SONG, TETSUYA TAKETSUGU, SIMON WEBB,
     JORGE LUIS GALVEZ VALLEJO, PENG XU, SOOHAENG YOO,
     FEDERICO ZAHARIEV

  ADDITIONAL CODE HAS BEEN PROVIDED BY COLLABORATORS IN OTHER GROUPS:
     IOWA STATE UNIVERSITY:
          JOE IVANIC, AARON WEST, LAIMUTIS BYTAUTAS, KLAUS RUEDENBERG
     UNIVERSITY OF TOKYO: KIMIHIKO HIRAO, TAKAHITO NAKAJIMA,
          TAKAO TSUNEDA, MUNEAKI KAMIYA, SUSUMU YANAGISAWA,
          KIYOSHI YAGI, MAHITO CHIBA, SEIKEN TOKURA, NAOAKI KAWAKAMI
     UNIVERSITY OF AARHUS: FRANK JENSEN
     UNIVERSITY OF IOWA: VISVALDAS KAIRYS, HUI LI
     NATIONAL INST. OF STANDARDS AND TECHNOLOGY: WALT STEVENS, DAVID GARMER
     UNIVERSITY OF PISA: BENEDETTA MENNUCCI, JACOPO TOMASI
     UNIVERSITY OF MEMPHIS: HENRY KURTZ, PRAKASHAN KORAMBATH
     UNIVERSITY OF ALBERTA: TOBY ZENG, MARIUSZ KLOBUKOWSKI
     UNIVERSITY OF NEW ENGLAND: MARK SPACKMAN
     MIE UNIVERSITY: HIROAKI UMEDA
     NAT. INST. OF ADVANCED INDUSTRIAL SCIENCE AND TECHNOLOGY: KAZUO KITAURA
     MICHIGAN STATE UNIVERSITY:
          KAROL KOWALSKI, MARTA WLOCH, JEFFREY GOUR, JESSE LUTZ,
          WEI LI, JUN SHEN, J. EMILIANO DEUSTUA, PIOTR PIECUCH
     UNIVERSITY OF MINNESOTA:
          ANDREW SAND, PRACHI SHARMA, YINAN SHU
     UNIVERSITY OF SILESIA: MONIKA MUSIAL, STANISLAW KUCHARSKI
     FACULTES UNIVERSITAIRES NOTRE-DAME DE LA PAIX:
          OLIVIER QUINET, BENOIT CHAMPAGNE
     UNIVERSITY OF CALIFORNIA - SANTA BARBARA: BERNARD KIRTMAN
     INSTITUTE FOR MOLECULAR SCIENCE:
          KAZUYA ISHIMURA, MICHIO KATOUDA, AND SHIGERU NAGASE
     UNIVERSITY OF NOTRE DAME: ANNA POMOGAEVA, DAN CHIPMAN
     KYUSHU UNIVERSITY:
          HARUYUKI NAKANO,
          FENG LONG GU, JACEK KORCHOWIEC, MARCIN MAKOWSKI, AND YURIKO AOKI,
          HIROTOSHI MORI AND EISAKU MIYOSHI
     PENNSYLVANIA STATE UNIVERSITY:
          TZVETELIN IORDANOV, CHET SWALINA, JONATHAN SKONE,
          SHARON HAMMES-SCHIFFER
     WASEDA UNIVERSITY:
          MASATO KOBAYASHI, TOMOKO AKAMA, TSUGUKI TOUMA,
          TAKESHI YOSHIKAWA, YASUHIRO IKABATA, JUNJI SEINO,
          YUYA NAKAJIMA, HIROMI NAKAI
     NANJING UNIVERSITY: SHUHUA LI
     UNIVERSITY OF NEBRASKA:
          PEIFENG SU, DEJUN SI, NANDUN THELLAMUREGE, YALI WANG, HUI LI
     UNIVERSITY OF ZURICH: ROBERTO PEVERATI, KIM BALDRIDGE
     N. COPERNICUS UNIVERSITY AND JACKSON STATE UNIVERSITY:
          MARIA BARYSZ
     UNIVERSITY OF COPENHAGEN: Jimmy Kromann, CASPER STEINMANN
     TOKYO INSTITUTE OF TECHNOLOGY: HIROYA NAKATA
     NAGOYA UNIVERSITY: YOSHIO NISHIMOTO, STEPHAN IRLE
     MOSCOW STATE UNIVERSITY: VLADIMIR MIRONOV
     A.N.NESMEYANOV INSTITUTE OF ORGANOELEMENT COMPOUNDS OF RUSSIAN ACADEMY OF SCIENCES:
          IGOR S. GERASIMOV
     JOHANNES KEPLER UNIVERSITY LINZ:
          CHRISTIAN FRIEDL


 PARALLEL VERSION RUNNING ON        6 PROCESSORS IN        1 NODES.

 EXECUTION OF GAMESS BEGUN Sat May 16 20:49:04 2020

            ECHO OF THE FIRST FEW INPUT CARDS -
 INPUT CARD> $BASIS GBASIS=N21 NGAUSS=3 $END                                                
 INPUT CARD> $CONTRL SCFTYP=RHF MAXIT=60 MULT=1 ICHARG=-1 $END                              
 INPUT CARD> $SYSTEM MEMDDI=1000 MWORDS=30 $END                                             
 INPUT CARD> $SCF DIRSCF=.TRUE. $END                                                        
 INPUT CARD> $DATA                                                                          
 INPUT CARD>                                                                                
 INPUT CARD>C1                                                                              
 INPUT CARD>C 6.0000000 0.4551415410 0.3408957085 0.2100323971                              
 INPUT CARD>H 1.0000000 0.2684142964 0.5553983642 1.2748669859                              
 INPUT CARD>C 6.0000000 -0.5805120688 -0.6684355398 -0.3135699219                           
 INPUT CARD>C 6.0000000 1.9367202401 -0.2670780566 0.1106591076                             
 INPUT CARD>O 8.0000000 2.8699458607 0.5925748323 0.1199474209                              
 INPUT CARD>O 8.0000000 1.9962778316 -1.5430544152 0.0737562441                             
 INPUT CARD>H 1.0000000 -0.6669588297 -0.6088722435 -1.4079523709                           
 INPUT CARD>H 1.0000000 -0.1512903456 -1.6479703847 -0.0667222406                           
 INPUT CARD>H 1.0000000 0.4440172203 1.2984036810 -0.3223335455                             
 INPUT CARD>H 1.0000000 -1.5859657458 -0.5473119463 0.1168459233                            
 INPUT CARD> $END                                                                           
   30000000 WORDS OF MEMORY AVAILABLE

     BASIS OPTIONS
     -------------
     GBASIS=N21          IGAUSS=       3      POLAR=NONE    
     NDFUNC=       0     NFFUNC=       0     DIFFSP=       F
     NPFUNC=       0      DIFFS=       F     BASNAM=        


     RUN TITLE
     ---------
                                                                                 

 THE POINT GROUP OF THE MOLECULE IS C1      
 THE ORDER OF THE PRINCIPAL AXIS IS     0

 ATOM      ATOMIC                      COORDINATES (BOHR)
           CHARGE         X                   Y                   Z
 C           6.0     0.8600927981        0.6441994795        0.3969036791
 H           1.0     0.5072294714        1.0495507224        2.4091492741
 C           6.0    -1.0970087426       -1.2631600107       -0.5925612304
 C           6.0     3.6598705687       -0.5047043443        0.2091153914
 O           8.0     5.4234112763        1.1198040603        0.2266677584
 O           8.0     3.7724180971       -2.9159500289        0.1393790912
 H           1.0    -1.2603694332       -1.1506017017       -2.6606441848
 H           1.0    -0.2858972978       -3.1142124630       -0.1260867520
 H           1.0     0.8390708802        2.4536271785       -0.6091220776
 H           1.0    -2.9970406855       -1.0342696083        0.2208067778

          INTERNUCLEAR DISTANCES (ANGS.)
          ------------------------------

                1 C          2 H          3 C          4 C          5 O     

   1 C       0.0000000    1.1021575 *  1.5380141 *  1.6045506 *  2.4295550 *
   2 H       1.1021575 *  0.0000000    2.1775163 *  2.1943318 *  2.8466099 *
   3 C       1.5380141 *  2.1775163 *  0.0000000    2.5840891 *  3.6991545  
   4 C       1.6045506 *  2.1943318 *  2.5840891 *  0.0000000    1.2688575 *
   5 O       2.4295550 *  2.8466099 *  3.6991545    1.2688575 *  0.0000000  
   6 O       2.4378147 *  2.9718148 *  2.7486044 *  1.2778985 *  2.3078869 *
   7 H       2.1861023 *  3.0704997    1.0994061 *  3.0335044    4.0357958  
   8 H       2.0976037 *  2.6135890 *  1.0975671 *  2.5096047 *  3.7660001  
   9 H       1.0956089 *  1.7702946 *  2.2177001 *  2.2059869 *  2.5649438 *
  10 H       2.2279397 *  2.4486135 *  1.1003935 *  3.5338203    4.5994021  

                6 O          7 H          8 H          9 H         10 H     

   1 C       2.4378147 *  2.1861023 *  2.0976037 *  1.0956089 *  2.2279397 *
   2 H       2.9718148 *  3.0704997    2.6135890 *  1.7702946 *  2.4486135 *
   3 C       2.7486044 *  1.0994061 *  1.0975671 *  2.2177001 *  1.1003935 *
   4 C       1.2778985 *  3.0335044    2.5096047 *  2.2059869 *  3.5338203  
   5 O       2.3078869 *  4.0357958    3.7660001    2.5649438 *  4.5994021  
   6 O       0.0000000    3.1876302    2.1547136 *  3.2619449    3.7183099  
   7 H       3.1876302    0.0000000    1.7732843 *  2.4597840 *  1.7813964 *
   8 H       2.1547136 *  1.7732843 *  0.0000000    3.0167612    1.8175367 *
   9 H       3.2619449    2.4597840 *  3.0167612    0.0000000    2.7785564 *
  10 H       3.7183099    1.7813964 *  1.8175367 *  2.7785564 *  0.0000000  

  * ... LESS THAN  3.000


     ATOMIC BASIS SET
     ----------------
 THE CONTRACTED PRIMITIVE FUNCTIONS HAVE BEEN UNNORMALIZED
 THE CONTRACTED BASIS FUNCTIONS ARE NOW NORMALIZED TO UNITY

  SHELL TYPE  PRIMITIVE        EXPONENT          CONTRACTION COEFFICIENT(S)

 C         

      1   S       1           172.2560000    0.061766907377
      1   S       2            25.9109000    0.358794042852
      1   S       3             5.5333500    0.700713083689

      2   L       4             3.6649800   -0.395895162119    0.236459946619
      2   L       5             0.7705450    1.215834355681    0.860618805716

      3   L       6             0.1958570    1.000000000000    1.000000000000

 H         

      4   S       7             5.4471780    0.156284978695
      4   S       8             0.8245472    0.904690876670

      5   S       9             0.1831916    1.000000000000

 C         

      6   S      10           172.2560000    0.061766907377
      6   S      11            25.9109000    0.358794042852
      6   S      12             5.5333500    0.700713083689

      7   L      13             3.6649800   -0.395895162119    0.236459946619
      7   L      14             0.7705450    1.215834355681    0.860618805716

      8   L      15             0.1958570    1.000000000000    1.000000000000

 C         

      9   S      16           172.2560000    0.061766907377
      9   S      17            25.9109000    0.358794042852
      9   S      18             5.5333500    0.700713083689

     10   L      19             3.6649800   -0.395895162119    0.236459946619
     10   L      20             0.7705450    1.215834355681    0.860618805716

     11   L      21             0.1958570    1.000000000000    1.000000000000

 O         

     12   S      22           322.0370000    0.059239393389
     12   S      23            48.4308000    0.351499960776
     12   S      24            10.4206000    0.707657921031

     13   L      25             7.4029400   -0.404453583190    0.244586106967
     13   L      26             1.5762000    1.221561761397    0.853955373466

     14   L      27             0.3736840    1.000000000000    1.000000000000

 O         

     15   S      28           322.0370000    0.059239393389
     15   S      29            48.4308000    0.351499960776
     15   S      30            10.4206000    0.707657921031

     16   L      31             7.4029400   -0.404453583190    0.244586106967
     16   L      32             1.5762000    1.221561761397    0.853955373466

     17   L      33             0.3736840    1.000000000000    1.000000000000

 H         

     18   S      34             5.4471780    0.156284978695
     18   S      35             0.8245472    0.904690876670

     19   S      36             0.1831916    1.000000000000

 H         

     20   S      37             5.4471780    0.156284978695
     20   S      38             0.8245472    0.904690876670

     21   S      39             0.1831916    1.000000000000

 H         

     22   S      40             5.4471780    0.156284978695
     22   S      41             0.8245472    0.904690876670

     23   S      42             0.1831916    1.000000000000

 H         

     24   S      43             5.4471780    0.156284978695
     24   S      44             0.8245472    0.904690876670

     25   S      45             0.1831916    1.000000000000

 TOTAL NUMBER OF BASIS SET SHELLS             =   25
 NUMBER OF CARTESIAN GAUSSIAN BASIS FUNCTIONS =   55
 NUMBER OF ELECTRONS                          =   40
 CHARGE OF MOLECULE                           =   -1
 SPIN MULTIPLICITY                            =    1
 NUMBER OF OCCUPIED ORBITALS (ALPHA)          =   20
 NUMBER OF OCCUPIED ORBITALS (BETA )          =   20
 TOTAL NUMBER OF ATOMS                        =   10
 THE NUCLEAR REPULSION ENERGY IS      166.7478200826

     $CONTRL OPTIONS
     ---------------
 SCFTYP=RHF          RUNTYP=ENERGY       EXETYP=RUN     
 MPLEVL=       0     CITYP =NONE         CCTYP =NONE         VBTYP =NONE    
 DFTTYP=NONE         TDDFT =NONE    
 MULT  =       1     ICHARG=      -1     NZVAR =       0     COORD =UNIQUE  
 PP    =NONE         RELWFN=NONE         LOCAL =NONE         NUMGRD=       F
 ISPHER=      -1     NOSYM =       0     MAXIT =      60     UNITS =ANGS    
 PLTORB=       F     MOLPLT=       F     AIMPAC=       F     FRIEND=        
 NPRINT=       7     IREST =       0     GEOM  =INPUT   
 NORMF =       0     NORMP =       0     ITOL  =      20     ICUT  =       9
 INTTYP=BEST         GRDTYP=BEST         QMTTOL= 1.0E-06

     $SYSTEM OPTIONS
     ---------------
  REPLICATED MEMORY=    30000000 WORDS (ON EVERY NODE).
 DISTRIBUTED MEMDDI=        1000 MILLION WORDS IN AGGREGATE,
 MEMDDI DISTRIBUTED OVER   6 PROCESSORS IS   166666666 WORDS/PROCESSOR.
 TOTAL MEMORY REQUESTED ON EACH PROCESSOR=   196666666 WORDS.
 TIMLIM=      525600.00 MINUTES, OR     365.0 DAYS.
 PARALL= T  BALTYP=  DLB     KDIAG=    0  COREFL= F
 MXSEQ2=     300 MXSEQ3=     150  mem10=         0

          ----------------
          PROPERTIES INPUT
          ----------------

     MOMENTS            FIELD           POTENTIAL          DENSITY
 IEMOM =       1   IEFLD =       0   IEPOT =       0   IEDEN =       0
 WHERE =COMASS     WHERE =NUCLEI     WHERE =NUCLEI     WHERE =NUCLEI  
 OUTPUT=BOTH       OUTPUT=BOTH       OUTPUT=BOTH       OUTPUT=BOTH    
 IEMINT=       0   IEFINT=       0                     IEDINT=       0
                                                       MORB  =       0
          EXTRAPOLATION IN EFFECT
          SOSCF IN EFFECT
 ORBITAL PRINTING OPTION: NPREO=     1    55     2     1

     -------------------------------
     INTEGRAL TRANSFORMATION OPTIONS
     -------------------------------
     NWORD  =            0
     CUTOFF = 1.0E-09     MPTRAN =       0
     DIRTRF =       T     AOINTS =DUP     

          ----------------------
          INTEGRAL INPUT OPTIONS
          ----------------------
 NOPK  =       1 NORDER=       0 SCHWRZ=       T

     ------------------------------------------
     THE POINT GROUP IS C1 , NAXIS= 0, ORDER= 1
     ------------------------------------------

     DIMENSIONS OF THE SYMMETRY SUBSPACES ARE
 A   =   55

 ..... DONE SETTING UP THE RUN .....
 CPU     0: STEP CPU TIME=     0.02 TOTAL CPU TIME=          0.0 (      0.0 MIN)
 TOTAL WALL CLOCK TIME=          0.0 SECONDS, CPU UTILIZATION IS    66.67%

          ********************
          1 ELECTRON INTEGRALS
          ********************
 ...... END OF ONE-ELECTRON INTEGRALS ......
 CPU     0: STEP CPU TIME=     0.01 TOTAL CPU TIME=          0.0 (      0.0 MIN)
 TOTAL WALL CLOCK TIME=          0.0 SECONDS, CPU UTILIZATION IS    75.00%

          -------------
          GUESS OPTIONS
          -------------
          GUESS =HUCKEL            NORB  =       0          NORDER=       0
          MIX   =       F          PRTMO =       F          PUNMO =       F
          TOLZ  = 1.0E-08          TOLE  = 1.0E-05
          SYMDEN=       F          PURIFY=       F

 INITIAL GUESS ORBITALS GENERATED BY HUCKEL   ROUTINE.
 HUCKEL GUESS REQUIRES     32985 WORDS.

 SYMMETRIES FOR INITIAL GUESS ORBITALS FOLLOW.   BOTH SET(S).
    20 ORBITALS ARE OCCUPIED (    5 CORE ORBITALS).
     6=A        7=A        8=A        9=A       10=A       11=A       12=A   
    13=A       14=A       15=A       16=A       17=A       18=A       19=A   
    20=A       21=A       22=A       23=A       24=A       25=A       26=A   
    27=A       28=A       29=A       30=A   
 ...... END OF INITIAL ORBITAL SELECTION ......
 CPU     0: STEP CPU TIME=     0.01 TOTAL CPU TIME=          0.0 (      0.0 MIN)
 TOTAL WALL CLOCK TIME=          0.1 SECONDS, CPU UTILIZATION IS    80.00%

                    ----------------------
                    AO INTEGRAL TECHNOLOGY
                    ----------------------
     S,P,L SHELL ROTATED AXIS INTEGRALS, REPROGRAMMED BY
        KAZUYA ISHIMURA (IMS) AND JOSE SIERRA (SYNSTAR).
     S,P,D,L SHELL ROTATED AXIS INTEGRALS PROGRAMMED BY
        KAZUYA ISHIMURA (INSTITUTE FOR MOLECULAR SCIENCE).
     S,P,D,F,G SHELL TO TOTAL QUARTET ANGULAR MOMENTUM SUM 5,
        ERIC PROGRAM BY GRAHAM FLETCHER (ELORET AND NASA ADVANCED
        SUPERCOMPUTING DIVISION, AMES RESEARCH CENTER).
     S,P,D,F,G,L SHELL GENERAL RYS QUADRATURE PROGRAMMED BY
        MICHEL DUPUIS (PACIFIC NORTHWEST NATIONAL LABORATORY).

          --------------------
          2 ELECTRON INTEGRALS
          --------------------

 DIRECT SCF METHOD SKIPS INTEGRAL STORAGE ON DISK.
 DIRECT TRANSFORMATION SKIPS AO INTEGRAL STORAGE ON DISK.
  ...... END OF TWO-ELECTRON INTEGRALS .....
 CPU     0: STEP CPU TIME=     0.01 TOTAL CPU TIME=          0.0 (      0.0 MIN)
 TOTAL WALL CLOCK TIME=          0.1 SECONDS, CPU UTILIZATION IS    71.43%

          --------------------------
                 RHF SCF CALCULATION
          --------------------------

     NUCLEAR ENERGY =       166.7478200826
     MAXIT =   60     NPUNCH=    2
     EXTRAP=T  DAMP=F  SHIFT=F  RSTRCT=F  DIIS=F  DEM=F  SOSCF=T
     DENSITY MATRIX CONV=  2.00E-05
     SOSCF WILL OPTIMIZE     700 ORBITAL ROTATIONS, SOGTOL=   0.250
     MEMORY REQUIRED FOR RHF ITERS=     69751 WORDS.

 DIRECT SCF CALCULATION, SCHWRZ=T   FDIFF=T,  DIRTHR=  0.00E+00 NITDIR=10
 SCHWARZ INEQUALITY OVERHEAD:      1522 INTEGRALS, T=        0.00

                                                                                   NONZERO     BLOCKS
 ITER EX DEM     TOTAL ENERGY        E CHANGE  DENSITY CHANGE     ORB. GRAD      INTEGRALS    SKIPPED
   1  0  0     -264.0415630989  -264.0415630989   0.826809480   0.000000000        1015978      11256
          ---------------START SECOND ORDER SCF---------------
   2  1  0     -264.6708591044    -0.6292960055   0.109922601   0.093904641        1015164      11766
   3  2  0     -264.7216416745    -0.0507825701   0.134675271   0.058120979        1012680      12457
   4  3  0     -264.7543707515    -0.0327290770   0.034683907   0.003496463        1009214      13208
   5  4  0     -264.7548182835    -0.0004475319   0.011787963   0.001245230         998404      14350
   6  5  0     -264.7548701528    -0.0000518693   0.001564986   0.000637268         989187      15112
   7  6  0     -264.7548775510    -0.0000073982   0.001195976   0.000296341         970169      16725
   8  7  0     -264.7548790226    -0.0000014716   0.000246803   0.000055570         955937      17459
   9  8  0     -264.7548791254    -0.0000001027   0.000041430   0.000016399         927294      19329
  10  9  0     -264.7548791347    -0.0000000093   0.000012368   0.000003770         896014      21048
  11 10  0     -264.7548791350    -0.0000000003   0.000002940   0.000000975         858971      22928

          -----------------
          DENSITY CONVERGED
          -----------------
     TIME TO FORM FOCK OPERATORS=       0.1 SECONDS (       0.0 SEC/ITER)
     FOCK TIME ON FIRST ITERATION=       0.0, LAST ITERATION=       0.0
     TIME TO SOLVE SCF EQUATIONS=       0.1 SECONDS (       0.0 SEC/ITER)

 FINAL RHF ENERGY IS     -264.7548791350 AFTER  11 ITERATIONS

          ------------
          EIGENVECTORS
          ------------

                      1          2          3          4          5
                  -20.1497   -20.1454   -11.0643   -10.9919   -10.9844
                     A          A          A          A          A   
    1  C  1  S    0.000068   0.000036  -0.001683  -0.016090   0.987845
    2  C  1  S    0.000208  -0.000229  -0.002123  -0.003641   0.104208
    3  C  1  X   -0.000881   0.000063   0.000056  -0.000225  -0.000263
    4  C  1  Y   -0.000339   0.000465   0.000230  -0.000119  -0.000190
    5  C  1  Z    0.000083  -0.000308   0.000061  -0.000001   0.000180
    6  C  1  S   -0.000458   0.000218   0.015374   0.019240  -0.090698
    7  C  1  X    0.006336  -0.003319   0.012216  -0.008209  -0.001861
    8  C  1  Y    0.007541  -0.005899  -0.004569  -0.006798   0.007145
    9  C  1  Z   -0.000403   0.002204  -0.000039  -0.004295   0.001353
   10  H  2  S    0.000315   0.000090  -0.001518  -0.001146   0.001110
   11  H  2  S   -0.000273  -0.001463   0.002213   0.000808   0.014511
   12  C  3  S   -0.000014  -0.000070  -0.002644   0.987384   0.015341
   13  C  3  S    0.000139  -0.000719  -0.001687   0.101512  -0.000910
   14  C  3  X    0.000496  -0.000936  -0.001194   0.000074   0.000372
   15  C  3  Y    0.000044  -0.000125  -0.000277   0.000014   0.000250
   16  C  3  Z   -0.000178   0.000100   0.000122  -0.000166   0.000030
   17  C  3  S    0.003496  -0.001658   0.002023  -0.080258   0.020624
   18  C  3  X   -0.000489   0.002918   0.002971  -0.004806   0.009240
   19  C  3  Y    0.003107  -0.000917   0.001616  -0.002283   0.007628
   20  C  3  Z    0.003034  -0.002583  -0.001013  -0.000954   0.004868
   21  C  4  S   -0.000090  -0.000090   0.986634   0.002419   0.000843
   22  C  4  S    0.000244   0.000311   0.093706  -0.000883  -0.002596
   23  C  4  X    0.000121   0.001385  -0.000862   0.000758  -0.000564
   24  C  4  Y   -0.002041   0.001124   0.000305   0.000033   0.000164
   25  C  4  Z   -0.000033  -0.000054   0.000111   0.000193   0.000025
   26  C  4  S    0.014943   0.019120  -0.042829   0.000157   0.021748
   27  C  4  X   -0.001158   0.016461   0.016343  -0.002146  -0.013789
   28  C  4  Y   -0.025730   0.017373  -0.005846  -0.000879   0.003345
   29  C  4  Z   -0.000730   0.000063  -0.001214  -0.000165   0.000572
   30  O  5  S   -0.053076   0.982254   0.000115  -0.000062  -0.000010
   31  O  5  S   -0.006338   0.099243   0.001119  -0.000609  -0.000402
   32  O  5  X    0.000750  -0.003299   0.000391   0.000128   0.000125
   33  O  5  Y   -0.000447  -0.003015  -0.000393   0.000021   0.000208
   34  O  5  Z   -0.000006  -0.000047  -0.000046  -0.000087  -0.000016
   35  O  5  S    0.008649  -0.053518  -0.000563   0.002157   0.000459
   36  O  5  X   -0.004441   0.011268   0.000689  -0.000741   0.001078
   37  O  5  Y    0.002431   0.010243   0.005123  -0.000353  -0.001033
   38  O  5  Z    0.000088   0.000175   0.000308   0.000276   0.000002
   39  O  6  S    0.982256   0.052848   0.000101   0.000039   0.000048
   40  O  6  S    0.099236   0.004365   0.001035   0.000293   0.000099
   41  O  6  X   -0.000427   0.000746   0.000501  -0.000114  -0.000113
   42  O  6  Y    0.004368   0.000222   0.000045  -0.000221  -0.000247
   43  O  6  Z    0.000126  -0.000036  -0.000072   0.000119  -0.000102
   44  O  6  S   -0.053439   0.002928   0.000283  -0.001261  -0.001981
   45  O  6  X    0.001385  -0.004499  -0.003022   0.001035   0.001797
   46  O  6  Y   -0.014882  -0.000108  -0.003710   0.000488  -0.000622
   47  O  6  Z   -0.000421   0.000167   0.000224  -0.000290   0.000216
   48  H  7  S    0.000332  -0.000304  -0.000410   0.000303  -0.001329
   49  H  7  S    0.000711  -0.001045  -0.000880   0.014284   0.001367
   50  H  8  S   -0.000778  -0.000415  -0.000623   0.000321  -0.001541
   51  H  8  S    0.002434   0.000503   0.001161   0.015051   0.000553
   52  H  9  S   -0.001041   0.000775  -0.001212  -0.001188   0.000565
   53  H  9  S   -0.001631   0.002377   0.002121   0.000228   0.014108
   54  H 10  S   -0.000529   0.000493  -0.000016  -0.000053  -0.001092
   55  H 10  S   -0.001194   0.002034   0.001993   0.013331   0.000544

                      6          7          8          9         10
                   -1.1302    -1.0332    -0.8498    -0.6816    -0.4829
                     A          A          A          A          A   
    1  C  1  S   -0.025534  -0.002114  -0.150741   0.132579   0.037096
    2  C  1  S    0.024602   0.001798   0.140935  -0.116945  -0.029006
    3  C  1  X    0.021946  -0.003631  -0.036377  -0.075921   0.180725
    4  C  1  Y   -0.010330  -0.010596  -0.032001  -0.062588  -0.146663
    5  C  1  Z   -0.001798  -0.001183  -0.014663  -0.037922  -0.052481
    6  C  1  S    0.040000   0.003833   0.409962  -0.463183  -0.164109
    7  C  1  X   -0.009104  -0.021813  -0.001924  -0.013689   0.100354
    8  C  1  Y   -0.000691  -0.031267  -0.014836  -0.011991  -0.099852
    9  C  1  Z   -0.000481   0.005115  -0.002295  -0.009792  -0.043668
   10  H  2  S    0.008479   0.000238   0.075866  -0.100699  -0.096970
   11  H  2  S   -0.003384  -0.003331   0.005037  -0.037762  -0.082928
   12  C  3  S   -0.007750  -0.007414  -0.157039  -0.135583  -0.008674
   13  C  3  S    0.010683   0.006790   0.153987   0.119539   0.008696
   14  C  3  X    0.008475   0.002055   0.034894  -0.067469   0.073866
   15  C  3  Y    0.001585  -0.001406   0.030367  -0.063254  -0.109691
   16  C  3  Z    0.002139   0.002174   0.015725  -0.036746  -0.049247
   17  C  3  S    0.006506  -0.001180   0.407421   0.479324   0.054796
   18  C  3  X   -0.006871   0.011442  -0.003788  -0.012794   0.040245
   19  C  3  Y   -0.003244  -0.004375  -0.002074  -0.017724  -0.095366
   20  C  3  Z   -0.001447  -0.012872   0.000362  -0.010330  -0.029481
   21  C  4  S   -0.140717   0.000574  -0.012077   0.044017  -0.120014
   22  C  4  S    0.159651  -0.000874   0.021271  -0.054350   0.145367
   23  C  4  X    0.064852  -0.084370  -0.074245   0.099730  -0.108810
   24  C  4  Y   -0.023358  -0.199442   0.035914  -0.039406   0.031304
   25  C  4  Z   -0.001196  -0.004481   0.001939  -0.011899  -0.006295
   26  C  4  S    0.153835   0.004755  -0.000118  -0.084638   0.318286
   27  C  4  X   -0.043083   0.008691  -0.000407   0.046658  -0.156723
   28  C  4  Y    0.015533   0.028781   0.007267  -0.020515   0.052678
   29  C  4  Z    0.002089   0.000407   0.000727  -0.006389   0.000323
   30  O  5  S   -0.144018   0.163059   0.021536  -0.038312   0.059110
   31  O  5  S    0.131283  -0.149724  -0.018817   0.035203  -0.056132
   32  O  5  X   -0.058989   0.058527  -0.007950   0.032603  -0.113132
   33  O  5  Y   -0.056940   0.039240   0.012177  -0.011859  -0.041798
   34  O  5  Z   -0.000449   0.000041   0.000686  -0.003736  -0.004411
   35  O  5  S    0.444732  -0.534231  -0.077138   0.140739  -0.229922
   36  O  5  X   -0.059825   0.069754  -0.002587   0.022665  -0.102380
   37  O  5  Y   -0.070549   0.042000   0.012469  -0.008569  -0.060479
   38  O  5  Z   -0.001006  -0.000041  -0.000069  -0.002751  -0.005902
   39  O  6  S   -0.142115  -0.164167   0.035825  -0.023170   0.074633
   40  O  6  S    0.129495   0.150853  -0.033746   0.021375  -0.068733
   41  O  6  X   -0.002407  -0.015170  -0.018476   0.017940  -0.081285
   42  O  6  Y    0.079593   0.067701  -0.007300  -0.015836   0.124305
   43  O  6  Z    0.002511   0.002174  -0.000563  -0.005216  -0.002528
   44  O  6  S    0.438137   0.537957  -0.118207   0.085351  -0.299055
   45  O  6  X    0.005848  -0.020230  -0.016977   0.008775  -0.061761
   46  O  6  Y    0.090050   0.078498  -0.010843  -0.013504   0.125106
   47  O  6  Z    0.002240   0.002811  -0.000971  -0.003912  -0.004259
   48  H  7  S    0.003093   0.002037   0.080436   0.104109   0.030503
   49  H  7  S    0.000025  -0.004422   0.008258   0.043344   0.026117
   50  H  8  S    0.008611   0.007202   0.079624   0.090559   0.078645
   51  H  8  S    0.002658   0.012666  -0.005621   0.028519   0.022677
   52  H  9  S    0.009346   0.000919   0.073709  -0.100415  -0.092691
   53  H  9  S   -0.004103   0.003914   0.004430  -0.032490  -0.082964
   54  H 10  S    0.002223   0.003940   0.078845   0.106922  -0.056471
   55  H 10  S   -0.004393   0.008899   0.008542   0.050138  -0.062584

                     11         12         13         14         15
                   -0.4401    -0.4186    -0.3694    -0.3430    -0.3360
                     A          A          A          A          A   
    1  C  1  S    0.004388  -0.016339   0.021579  -0.001437   0.006986
    2  C  1  S   -0.004458   0.012449  -0.016576   0.003772  -0.004270
    3  C  1  X   -0.019888   0.004729   0.178482  -0.005037   0.087762
    4  C  1  Y   -0.121638  -0.067717   0.133787  -0.007558  -0.039659
    5  C  1  Z    0.228806  -0.056723   0.057914  -0.167223  -0.018065
    6  C  1  S   -0.020154   0.061676  -0.094974  -0.011180  -0.053120
    7  C  1  X   -0.015580   0.032807   0.157891  -0.002346   0.064863
    8  C  1  Y   -0.094390  -0.058318   0.131639   0.011689  -0.067225
    9  C  1  Z    0.178152  -0.028565   0.047633  -0.144302  -0.004589
   10  H  2  S    0.134458  -0.035948   0.019211  -0.126297  -0.036850
   11  H  2  S    0.123832  -0.042067   0.027837  -0.143150  -0.038602
   12  C  3  S   -0.002737   0.002742   0.010464  -0.002749   0.011304
   13  C  3  S    0.001974  -0.003680  -0.008742   0.002092  -0.011587
   14  C  3  X   -0.006438   0.220788  -0.184228  -0.042299  -0.172084
   15  C  3  Y   -0.096862  -0.090284  -0.140552   0.011595   0.119295
   16  C  3  Z    0.224729  -0.019452  -0.048752   0.249710  -0.019718
   17  C  3  S    0.016794  -0.009501  -0.034883   0.012889  -0.064839
   18  C  3  X   -0.000777   0.186685  -0.144605  -0.026041  -0.131615
   19  C  3  Y   -0.083139  -0.063257  -0.086707   0.007969   0.117526
   20  C  3  Z    0.172789  -0.018255  -0.031988   0.216453  -0.031292
   21  C  4  S    0.002903   0.084578   0.006110  -0.006192   0.001273
   22  C  4  S   -0.005271  -0.114367  -0.020397   0.005177  -0.017753
   23  C  4  X   -0.020480  -0.135356  -0.069160  -0.019199  -0.241099
   24  C  4  Y   -0.019179   0.034286   0.221989   0.051561  -0.147267
   25  C  4  Z    0.075364  -0.022143   0.049496  -0.165959   0.022977
   26  C  4  S   -0.003684  -0.198098   0.016020   0.024733   0.040913
   27  C  4  X   -0.012613  -0.020325  -0.101500  -0.040480  -0.140431
   28  C  4  Y   -0.002726   0.011881   0.067631   0.023733   0.024518
   29  C  4  Z    0.059963  -0.023664   0.041778  -0.170599   0.025961
   30  O  5  S   -0.012792  -0.068918   0.022792   0.006659  -0.059771
   31  O  5  S    0.010592   0.060945  -0.021628  -0.007047   0.049667
   32  O  5  X    0.024806   0.095878  -0.169756  -0.051183   0.136990
   33  O  5  Y    0.009600   0.167153   0.076043   0.015975   0.240107
   34  O  5  Z    0.046578  -0.013026   0.036644  -0.143520   0.022543
   35  O  5  S    0.055283   0.290632  -0.081672  -0.022035   0.263170
   36  O  5  X    0.024561   0.095012  -0.181650  -0.056177   0.155404
   37  O  5  Y    0.007800   0.179287   0.079200   0.013847   0.253263
   38  O  5  Z    0.046989  -0.012384   0.038609  -0.152715   0.023590
   39  O  6  S    0.009278  -0.046608  -0.057662  -0.007293   0.017964
   40  O  6  S   -0.007853   0.041279   0.048401   0.005584  -0.018118
   41  O  6  X   -0.035050  -0.102816  -0.038295  -0.024404  -0.150438
   42  O  6  Y    0.004712  -0.159528  -0.211939  -0.031112   0.110321
   43  O  6  Z    0.049874  -0.023845   0.025928  -0.136705   0.030457
   44  O  6  S   -0.037715   0.203454   0.250742   0.033546  -0.061234
   45  O  6  X   -0.035323  -0.113873  -0.030391  -0.022219  -0.163780
   46  O  6  Y    0.003185  -0.166833  -0.222509  -0.031820   0.125851
   47  O  6  Z    0.051477  -0.023606   0.027218  -0.143075   0.033080
   48  H  7  S   -0.156628  -0.004319   0.031073  -0.192872   0.019824
   49  H  7  S   -0.149289  -0.008961   0.041289  -0.213178   0.020955
   50  H  8  S    0.091254   0.108328   0.028766   0.027001  -0.129630
   51  H  8  S    0.066216   0.128906   0.089135   0.033187  -0.105369
   52  H  9  S   -0.150038  -0.007236   0.042263   0.062326  -0.026098
   53  H  9  S   -0.131825   0.011014   0.046510   0.063321  -0.001037
   54  H 10  S    0.061727  -0.161884   0.092666   0.118008   0.121507
   55  H 10  S    0.063462  -0.159822   0.106562   0.139344   0.154871

                     16         17         18         19         20
                   -0.3048    -0.2858    -0.1647    -0.1468    -0.1386
                     A          A          A          A          A   
    1  C  1  S   -0.009308  -0.002299  -0.006910  -0.047996   0.003169
    2  C  1  S    0.009675   0.001487   0.003126   0.022448  -0.005323
    3  C  1  X   -0.068950  -0.009367   0.022044   0.234825  -0.017677
    4  C  1  Y   -0.239157   0.057380  -0.053022  -0.085331   0.006652
    5  C  1  Z   -0.047712  -0.195886  -0.003700  -0.025698   0.009298
    6  C  1  S    0.013018   0.010610   0.055518   0.414960  -0.011445
    7  C  1  X   -0.022774  -0.008741   0.064674   0.299343  -0.028970
    8  C  1  Y   -0.187195   0.059502  -0.039951  -0.163208  -0.051804
    9  C  1  Z   -0.035128  -0.207892  -0.010964  -0.077029   0.009501
   10  H  2  S   -0.055653  -0.149932  -0.009899  -0.032464   0.008598
   11  H  2  S   -0.068293  -0.168989  -0.013593  -0.059671   0.006754
   12  C  3  S   -0.013501  -0.009053  -0.019070   0.008688  -0.000100
   13  C  3  S    0.014380   0.008371   0.010912   0.003053   0.008115
   14  C  3  X    0.054251   0.038031   0.051662  -0.054503   0.011146
   15  C  3  Y    0.266447  -0.031728  -0.033120  -0.039271  -0.005377
   16  C  3  Z    0.024612   0.112475   0.022459  -0.005222  -0.011783
   17  C  3  S    0.036867   0.042746   0.155184  -0.085554  -0.032460
   18  C  3  X    0.038661   0.018527   0.030117  -0.123811  -0.045081
   19  C  3  Y    0.276792  -0.037891  -0.069904  -0.065266  -0.004270
   20  C  3  Z    0.019798   0.121921   0.045069  -0.012344   0.008209
   21  C  4  S   -0.000345  -0.000018   0.003213   0.001322   0.000697
   22  C  4  S   -0.003529   0.002606  -0.003497  -0.010399   0.001357
   23  C  4  X   -0.005261   0.022038  -0.038860  -0.136964   0.011834
   24  C  4  Y    0.184831  -0.033689  -0.049188   0.066874  -0.005266
   25  C  4  Z    0.058307   0.197618   0.000253   0.002907  -0.007776
   26  C  4  S    0.008025  -0.008162  -0.015288   0.024475  -0.018162
   27  C  4  X   -0.031259   0.018180   0.096148   0.117351   0.006918
   28  C  4  Y    0.057963  -0.026269   0.123268  -0.080877   0.014834
   29  C  4  Z    0.064544   0.254589   0.003013  -0.007045  -0.008051
   30  O  5  S    0.018799   0.000243   0.001367   0.000211   0.000086
   31  O  5  S   -0.015879  -0.000799   0.010150   0.007574   0.000064
   32  O  5  X   -0.143330   0.023449  -0.114247   0.308317  -0.030883
   33  O  5  Y   -0.019667  -0.022090   0.292440  -0.170389   0.025951
   34  O  5  Z    0.052790   0.209664   0.015778  -0.038803  -0.347864
   35  O  5  S   -0.081988   0.002076  -0.081575  -0.038842  -0.002749
   36  O  5  X   -0.159927   0.024326  -0.111305   0.388991  -0.039243
   37  O  5  Y   -0.021923  -0.025051   0.375075  -0.183837   0.032827
   38  O  5  Z    0.056394   0.224958   0.019857  -0.050429  -0.464076
   39  O  6  S   -0.039368   0.007583  -0.002282  -0.000454  -0.000155
   40  O  6  S    0.032694  -0.005811  -0.005792   0.012843  -0.001580
   41  O  6  X    0.009296   0.006370   0.396228   0.217013  -0.003355
   42  O  6  Y   -0.187368   0.025421   0.091838  -0.137682   0.001008
   43  O  6  Z    0.051730   0.222302  -0.008942   0.014918   0.349427
   44  O  6  S    0.177946  -0.037412   0.067664  -0.063771   0.011339
   45  O  6  X    0.015813   0.006544   0.466772   0.261066  -0.004739
   46  O  6  Y   -0.206276   0.027858   0.133834  -0.208262   0.005529
   47  O  6  Z    0.056049   0.242104  -0.011142   0.019355   0.467403
   48  H  7  S    0.004339  -0.094036  -0.008694  -0.000760   0.013428
   49  H  7  S   -0.005362  -0.119784  -0.020219  -0.001825   0.021175
   50  H  8  S   -0.149477   0.060511   0.028260  -0.014244   0.007504
   51  H  8  S   -0.114408   0.055136  -0.096584  -0.053246   0.020593
   52  H  9  S   -0.140590   0.126325  -0.031249  -0.021730  -0.001584
   53  H  9  S   -0.165719   0.132531  -0.028325  -0.088491   0.055366
   54  H 10  S    0.008770   0.016564  -0.022765   0.045234  -0.012881
   55  H 10  S    0.001492   0.005815  -0.055313   0.060035  -0.048535

                     21         22         23         24         25
                    0.4269     0.4512     0.4872     0.4996     0.5252
                     A          A          A          A          A   
    1  C  1  S   -0.048926   0.055635  -0.053910  -0.118734   0.036456
    2  C  1  S    0.009468  -0.012566  -0.000157   0.019010  -0.020221
    3  C  1  X   -0.006503   0.018189  -0.053814  -0.058903  -0.011414
    4  C  1  Y    0.047897  -0.117656   0.021395   0.085333   0.058562
    5  C  1  Z    0.102397   0.059966   0.100419   0.036555  -0.080441
    6  C  1  S    0.696345  -0.786289   0.812970   1.657842  -0.367568
    7  C  1  X    0.067060   0.051057  -0.208011  -0.388066  -0.120429
    8  C  1  Y    0.139652  -0.603088  -0.008245   0.461360   0.099190
    9  C  1  Z    0.638779   0.295715   0.172247   0.243825  -0.424858
   10  H  2  S   -0.061946  -0.065105   0.012457  -0.013964  -0.019293
   11  H  2  S   -1.090567  -0.080444  -0.669987  -1.073661   0.561339
   12  C  3  S   -0.085913   0.075310   0.024891   0.117574   0.046308
   13  C  3  S    0.019853  -0.011993  -0.002010  -0.019891  -0.012050
   14  C  3  X   -0.095631   0.060915  -0.135630   0.109124  -0.118172
   15  C  3  Y    0.029178   0.018494  -0.029519   0.006993   0.188167
   16  C  3  Z    0.006101   0.132531   0.181768  -0.035451  -0.010849
   17  C  3  S    1.167469  -1.108665  -0.348932  -1.635786  -0.710316
   18  C  3  X   -0.448202   0.133656  -0.639537   0.391528  -0.759780
   19  C  3  Y    0.135717   0.180113  -0.197600  -0.129082   0.945580
   20  C  3  Z   -0.125337   0.564726   0.823530  -0.280380  -0.018873
   21  C  4  S    0.002001  -0.001212  -0.008936   0.009278  -0.051350
   22  C  4  S    0.022410  -0.009446   0.020010   0.007572   0.013942
   23  C  4  X   -0.007786   0.004598  -0.034467   0.025806  -0.083192
   24  C  4  Y    0.000570  -0.013494   0.019538  -0.006843   0.030851
   25  C  4  Z    0.225348   0.190758  -0.224332   0.076815   0.019491
   26  C  4  S   -0.131577   0.025718   0.011760  -0.057480   0.539667
   27  C  4  X    0.016098   0.063159  -0.057683  -0.020470  -0.085770
   28  C  4  Y   -0.033569   0.015277   0.037195  -0.035175   0.099786
   29  C  4  Z    0.306122   0.268062  -0.405713   0.080618   0.115618
   30  O  5  S   -0.001842   0.003862  -0.002259  -0.008383   0.018017
   31  O  5  S   -0.002376  -0.000469   0.000763   0.006888  -0.006640
   32  O  5  X    0.005957  -0.004876   0.007113  -0.028148   0.052086
   33  O  5  Y   -0.005094  -0.003204  -0.004514   0.019354   0.034192
   34  O  5  Z   -0.145257  -0.101915   0.140562  -0.042051  -0.020083
   35  O  5  S    0.035942  -0.047960   0.020757   0.065774  -0.176617
   36  O  5  X   -0.007616   0.000183   0.008077  -0.048390   0.129125
   37  O  5  Y   -0.017285   0.014809  -0.019716   0.006795   0.076977
   38  O  5  Z   -0.242195  -0.177688   0.242904  -0.066481  -0.043148
   39  O  6  S   -0.008085   0.010194  -0.005296   0.003956   0.029268
   40  O  6  S    0.005839  -0.009112   0.004047  -0.004272  -0.021540
   41  O  6  X   -0.024201   0.028317  -0.008868   0.021906   0.071027
   42  O  6  Y    0.014326  -0.010524  -0.005152   0.026692  -0.005777
   43  O  6  Z   -0.149442  -0.123666   0.116736  -0.022304  -0.026153
   44  O  6  S    0.050909  -0.051492   0.036397  -0.019436  -0.194155
   45  O  6  X   -0.039710   0.041196  -0.004774   0.041237   0.139027
   46  O  6  Y    0.037662  -0.024771   0.001743   0.042097  -0.056809
   47  O  6  Z   -0.242934  -0.199024   0.214520  -0.043228  -0.046353
   48  H  7  S    0.011679   0.031167   0.034388  -0.014106  -0.036344
   49  H  7  S   -0.522292   1.173487   1.174180   0.382249   0.012743
   50  H  8  S    0.008593  -0.004674  -0.021708   0.019536   0.097295
   51  H  8  S   -0.071712   0.237004  -0.044508   0.483912   1.736928
   52  H  9  S    0.036362   0.048422  -0.004902  -0.008896  -0.049274
   53  H  9  S   -0.008930   1.182324  -0.182703  -0.994306  -0.352438
   54  H 10  S   -0.015790  -0.019092  -0.034007  -0.008873  -0.050960
   55  H 10  S   -0.961497   0.280539  -0.992370   1.213530  -0.679000

                     26         27         28         29         30
                    0.5677     0.5985     0.6505     0.8036     0.8920
                     A          A          A          A          A   
    1  C  1  S    0.005157   0.056374   0.110933  -0.030200  -0.011718
    2  C  1  S   -0.011423  -0.003531  -0.032708  -0.010014  -0.009535
    3  C  1  X   -0.063447   0.194013  -0.147057  -0.088688  -0.100450
    4  C  1  Y   -0.160961   0.132401   0.138829   0.023307  -0.090802
    5  C  1  Z    0.203515   0.165889   0.058892   0.009497   0.017453
    6  C  1  S   -0.007746  -0.880164  -1.402098   0.736643   0.303566
    7  C  1  X   -0.493363   1.174266  -1.108466   0.429715  -0.411475
    8  C  1  Y   -0.821602   0.853782   0.995402  -0.235511  -0.737286
    9  C  1  Z    0.966987   0.843322   0.329271  -0.032185  -0.120501
   10  H  2  S    0.029183  -0.004401  -0.080799   0.010817   0.000685
   11  H  2  S   -0.896585  -0.545559  -0.221526  -0.089322   0.008892
   12  C  3  S    0.026779  -0.066406  -0.037367  -0.003550   0.008543
   13  C  3  S   -0.005834   0.004910   0.004740   0.011733   0.038548
   14  C  3  X   -0.015517   0.119476   0.077426  -0.010299   0.217277
   15  C  3  Y    0.017996   0.161585  -0.093378   0.004566   0.042188
   16  C  3  Z   -0.166426   0.049670   0.036870   0.020661  -0.018035
   17  C  3  S   -0.398421   1.024205   0.550563   0.023896  -0.595506
   18  C  3  X   -0.248649   1.032113   0.759282  -0.030089  -0.410624
   19  C  3  Y    0.166338   1.162257  -0.227815  -0.122600  -0.322167
   20  C  3  Z   -1.064429   0.378520   0.152004  -0.027023  -0.239279
   21  C  4  S   -0.021722   0.027030  -0.148964  -0.084302  -0.002008
   22  C  4  S    0.008118  -0.016614   0.023107  -0.059056   0.018146
   23  C  4  X   -0.049378   0.061069  -0.271993   0.271361   0.036415
   24  C  4  Y    0.000243   0.007854   0.120639  -0.120455   0.192023
   25  C  4  Z   -0.156162  -0.114359   0.043094  -0.006435   0.013792
   26  C  4  S    0.262557  -0.347180   1.979268   1.131872  -0.018346
   27  C  4  X   -0.081788   0.232413  -0.953606   1.372307   0.849939
   28  C  4  Y    0.065024  -0.077043   0.255932  -0.447332   2.133233
   29  C  4  Z   -0.378578  -0.310806   0.046171  -0.049873   0.065050
   30  O  5  S    0.000873   0.013619   0.028125   0.091471   0.091949
   31  O  5  S    0.001932  -0.015911  -0.020587  -0.049207  -0.016279
   32  O  5  X   -0.007741   0.045485   0.125522   0.032963   0.143283
   33  O  5  Y   -0.000786  -0.017448   0.024521   0.216892  -0.016691
   34  O  5  Z    0.102986   0.048328  -0.015980   0.006233   0.003805
   35  O  5  S   -0.031845  -0.067158  -0.214114  -0.932933  -1.307403
   36  O  5  X    0.006704   0.050740   0.312564   0.200812   0.582889
   37  O  5  Y    0.004821   0.003587   0.032586   0.641568   0.216211
   38  O  5  Z    0.183985   0.111189  -0.020885   0.017607  -0.003931
   39  O  6  S    0.019510  -0.003270   0.025710   0.083685  -0.095856
   40  O  6  S   -0.017385  -0.000504  -0.007965  -0.050155   0.020190
   41  O  6  X    0.058446  -0.005796   0.050945  -0.141105  -0.102893
   42  O  6  Y   -0.033346   0.048738  -0.109721  -0.182758   0.101028
   43  O  6  Z    0.078077   0.072574   0.000520  -0.002993  -0.005030
   44  O  6  S   -0.116284   0.031010  -0.287297  -0.804894   1.331465
   45  O  6  X    0.103864  -0.041721   0.164459  -0.330795  -0.243797
   46  O  6  Y   -0.075959   0.082297  -0.279839  -0.561881   0.595746
   47  O  6  Z    0.156218   0.134698  -0.013520  -0.008542   0.011726
   48  H  7  S   -0.026371   0.048409   0.021287  -0.007769   0.011500
   49  H  7  S   -1.006769   0.078088   0.090629  -0.003882  -0.118875
   50  H  8  S    0.024221   0.065643   0.051889  -0.060189   0.009505
   51  H  8  S    0.602222   0.325289  -0.722888  -0.115501   0.124915
   52  H  9  S   -0.020594  -0.036128  -0.048913   0.024338  -0.143099
   53  H  9  S    1.347838  -0.007335  -0.151470  -0.044961   0.350018
   54  H 10  S   -0.022920   0.052795  -0.038525   0.036827  -0.192463
   55  H 10  S    0.366800   0.309050   0.335505  -0.002619   0.208879

                     31         32         33         34         35
                    1.0814     1.1486     1.1924     1.2162     1.2364
                     A          A          A          A          A   
    1  C  1  S    0.000718  -0.041449  -0.020639  -0.013129  -0.029972
    2  C  1  S   -0.009357   0.091094   0.091620   0.040927   0.116704
    3  C  1  X    0.004054   0.530219  -0.020842   0.518017  -0.317181
    4  C  1  Y    0.119390  -0.001992   0.003951  -0.550324  -0.385058
    5  C  1  Z   -0.240281  -0.013396   0.089759  -0.222987  -0.217935
    6  C  1  S    0.125859  -0.143169  -0.522001  -0.181154  -0.410674
    7  C  1  X    0.054863  -0.482101  -0.180772  -0.985772   0.175267
    8  C  1  Y   -0.164013  -0.202100   0.055995   1.292993   0.770763
    9  C  1  Z    0.259755  -0.063351  -0.142784   0.568782   0.435072
   10  H  2  S   -0.357684  -0.083897   0.053327  -0.349949  -0.233291
   11  H  2  S    0.120686  -0.007498   0.004750  -0.194305  -0.130213
   12  C  3  S   -0.001312   0.009408   0.032837  -0.018905   0.039555
   13  C  3  S    0.009464  -0.022163  -0.063092  -0.051328  -0.101638
   14  C  3  X    0.128622   0.053872  -0.586449  -0.054610  -0.399114
   15  C  3  Y    0.242685  -0.707227  -0.187358   0.346983  -0.216889
   16  C  3  Z   -0.471893  -0.180037  -0.497759   0.146195   0.097158
   17  C  3  S   -0.029869  -0.280055  -0.223177   0.448877   0.267583
   18  C  3  X   -0.160533  -0.379318   0.847346   0.359185   0.857479
   19  C  3  Y   -0.319122   0.894765   0.110750  -0.704719   0.260308
   20  C  3  Z    0.745259   0.214468   0.775148  -0.195519  -0.224152
   21  C  4  S   -0.002848   0.002213   0.003511  -0.012668   0.003489
   22  C  4  S    0.042980   0.007192  -0.071474  -0.017145  -0.098959
   23  C  4  X   -0.106652   0.189031   0.183998   0.398782   0.247587
   24  C  4  Y    0.010667  -0.122731   0.204769  -0.152070   0.322163
   25  C  4  Z   -0.367424  -0.191974   0.560025   0.230671  -0.618618
   26  C  4  S   -0.106682   0.250441   0.232299   0.870881   0.234939
   27  C  4  X    0.143321  -0.084854  -0.031882  -0.903476  -0.316320
   28  C  4  Y   -0.065887   0.112143   0.440738  -0.017306  -0.085774
   29  C  4  Z    0.206950   0.196677  -0.491723  -0.333744   0.626189
   30  O  5  S   -0.003744   0.000626   0.027824  -0.001527   0.021358
   31  O  5  S    0.004190   0.014574  -0.019471  -0.002739  -0.038793
   32  O  5  X   -0.014517  -0.045579   0.048320   0.034810   0.104927
   33  O  5  Y    0.001733   0.049715   0.022210   0.032511   0.012495
   34  O  5  Z    0.011391   0.005222   0.016999   0.005751  -0.052226
   35  O  5  S    0.010542  -0.062331  -0.281665   0.151443  -0.010835
   36  O  5  X   -0.040551   0.028030   0.189319   0.066895   0.125556
   37  O  5  Y    0.000388   0.038160   0.091622  -0.020910   0.064399
   38  O  5  Z   -0.020164  -0.025751   0.064959   0.053391  -0.081037
   39  O  6  S    0.006260  -0.000499  -0.019208   0.011791  -0.014206
   40  O  6  S   -0.012016   0.016556   0.002767   0.007750   0.018146
   41  O  6  X    0.013702  -0.077207   0.036499  -0.027015   0.025402
   42  O  6  Y   -0.012349  -0.032833   0.060490  -0.023730   0.089698
   43  O  6  Z   -0.018579  -0.028404   0.014331   0.044092  -0.004079
   44  O  6  S   -0.031390  -0.012683   0.241140  -0.181567   0.013541
   45  O  6  X   -0.002714  -0.016013  -0.007126   0.101300   0.023852
   46  O  6  Y   -0.010815  -0.064461   0.163890  -0.140845   0.109167
   47  O  6  Z   -0.018338  -0.028949   0.077255   0.045756  -0.082863
   48  H  7  S    0.523485   0.085668   0.353798  -0.047386  -0.019525
   49  H  7  S   -0.088481   0.023508   0.137713  -0.092804   0.017506
   50  H  8  S   -0.266670   0.407237  -0.099719  -0.257870   0.022372
   51  H  8  S    0.054310   0.055550   0.041805  -0.207411   0.011428
   52  H  9  S    0.333003  -0.087676  -0.004586  -0.235763  -0.080627
   53  H  9  S   -0.121174   0.042292  -0.030107  -0.253725  -0.125813
   54  H 10  S   -0.274793  -0.304589   0.206721  -0.166694   0.360219
   55  H 10  S    0.075213  -0.003535   0.107502   0.175743   0.149286

                     36         37         38         39         40
                    1.2893     1.3174     1.3774     1.4452     1.4681
                     A          A          A          A          A   
    1  C  1  S   -0.034342   0.006320   0.012703   0.037466  -0.005950
    2  C  1  S    0.055847   0.069372   0.020446  -0.011276   0.038081
    3  C  1  X   -0.433154  -0.154517  -0.351291   0.300637   0.301305
    4  C  1  Y   -0.381982   0.176389   0.156775  -0.441911   0.544267
    5  C  1  Z   -0.265168   0.279363  -0.648081  -0.122837  -0.342319
    6  C  1  S    0.175871  -0.791835  -0.235994   0.215776  -0.143841
    7  C  1  X    0.909675  -0.360092   0.620873  -0.610508  -1.061008
    8  C  1  Y    0.659278  -0.171897  -0.528569   0.315909  -1.304917
    9  C  1  Z    0.449595  -0.585683   1.395713  -0.158502   0.826140
   10  H  2  S   -0.166850   0.118882  -0.006293   0.617971   0.013160
   11  H  2  S   -0.118198   0.171602  -0.434583  -0.418634  -0.371206
   12  C  3  S    0.025451   0.008270   0.017717   0.064034   0.006479
   13  C  3  S   -0.076260   0.004021  -0.055790   0.014599   0.048359
   14  C  3  X   -0.057835  -0.062643   0.297856   0.088686  -0.527753
   15  C  3  Y   -0.221445   0.115622  -0.242589   0.204299   0.043163
   16  C  3  Z   -0.067257  -0.161695   0.239561   0.112373   0.608212
   17  C  3  S    0.424568  -0.225894   0.340913  -0.347935  -0.736523
   18  C  3  X    0.185392   0.085463  -0.564643   0.107939   0.792152
   19  C  3  Y    0.511398  -0.246647   0.823096  -0.300056  -0.296274
   20  C  3  Z    0.228815   0.295117  -0.585816   0.011307  -1.362535
   21  C  4  S    0.028076  -0.056037  -0.033531  -0.033679   0.017051
   22  C  4  S   -0.138698   0.326530   0.334940   0.363710  -0.275306
   23  C  4  X   -0.528237   0.513237   0.455809  -0.169255  -0.161346
   24  C  4  Y   -0.655668  -0.777194   0.085503  -0.046706  -0.257346
   25  C  4  Z    0.180542  -0.230063   0.345372  -0.066135  -0.082705
   26  C  4  S   -0.312891   0.096188  -0.554514   0.052027   0.541924
   27  C  4  X    0.567869  -1.000065  -0.559244   0.116050   0.458737
   28  C  4  Y   -0.053391   1.186071  -0.075782   0.271920   1.376300
   29  C  4  Z   -0.335474   0.438815  -0.749448   0.177116   0.026741
   30  O  5  S   -0.029135   0.000761   0.005352   0.005743   0.024071
   31  O  5  S    0.017152   0.002818  -0.023582   0.003227   0.000540
   32  O  5  X   -0.102556   0.080797   0.144675  -0.031944  -0.119652
   33  O  5  Y   -0.150853  -0.042303   0.044635   0.061550  -0.070260
   34  O  5  Z    0.007273  -0.027205   0.070688  -0.014898   0.005815
   35  O  5  S    0.049829  -0.031759   0.258472  -0.130426  -0.698343
   36  O  5  X   -0.257260   0.155501   0.052109   0.055615   0.209127
   37  O  5  Y   -0.159924  -0.155424  -0.020602   0.004555   0.065228
   38  O  5  Z    0.047058  -0.063370   0.096983  -0.023660   0.000779
   39  O  6  S    0.026867   0.009306  -0.000660  -0.007648  -0.019417
   40  O  6  S   -0.029883  -0.037588  -0.005906   0.019123  -0.007843
   41  O  6  X   -0.012078   0.111775   0.058262  -0.066403   0.086763
   42  O  6  Y   -0.085614  -0.224157  -0.040879  -0.053967  -0.025295
   43  O  6  Z    0.018938  -0.040966   0.047266  -0.018716   0.024596
   44  O  6  S   -0.120926   0.455452   0.064608   0.133872   0.543629
   45  O  6  X   -0.068249   0.138264   0.089655  -0.027796  -0.101635
   46  O  6  Y   -0.200767  -0.086582   0.037080   0.007749   0.148045
   47  O  6  Z    0.042537  -0.057935   0.101974  -0.020752  -0.001889
   48  H  7  S    0.154048   0.014489   0.096024   0.573588   0.337526
   49  H  7  S    0.005635   0.158888  -0.385704  -0.238422  -0.894589
   50  H  8  S    0.106443  -0.022189   0.151515   0.391281  -0.075448
   51  H  8  S    0.157652  -0.054557   0.364934  -0.209593   0.049172
   52  H  9  S   -0.260168  -0.021974   0.307228   0.356795  -0.033550
   53  H  9  S   -0.078280  -0.002122   0.366433  -0.363414   0.829058
   54  H 10  S   -0.058521   0.152597  -0.018978   0.477405  -0.101084
   55  H 10  S    0.073581  -0.086130  -0.186643  -0.144133   0.915970

                     41         42         43         44         45
                    1.5114     1.5251     1.5550     1.5859     1.8446
                     A          A          A          A          A   
    1  C  1  S   -0.012144  -0.013397  -0.017602   0.058687   0.052930
    2  C  1  S    0.010655   0.069082   0.130929  -0.281508  -0.491525
    3  C  1  X    0.253101   0.101885   0.143452   0.149658  -0.034664
    4  C  1  Y    0.308565   0.014314   0.104263  -0.274354  -0.092582
    5  C  1  Z   -0.582435   0.361880   0.083381  -0.161743  -0.026851
    6  C  1  S    0.056477  -0.074324  -0.083319   0.106600   0.028645
    7  C  1  X   -0.558428  -0.337114  -0.676453  -0.286637  -0.593427
    8  C  1  Y   -0.319577  -0.100657  -0.740996   0.182867   0.460566
    9  C  1  Z    0.781133  -0.472839   0.455375   0.555175  -0.040995
   10  H  2  S    0.275972  -0.405727  -0.744185   0.262510   0.345022
   11  H  2  S   -0.769213   0.636037   0.514027  -0.546743  -0.529064
   12  C  3  S    0.005744   0.023606   0.035637  -0.063854   0.014052
   13  C  3  S   -0.017615  -0.096104  -0.058888   0.322426  -0.416396
   14  C  3  X    0.277978   0.492005  -0.014853  -0.176694   0.206809
   15  C  3  Y    0.015797  -0.418197   0.225050  -0.377642   0.061956
   16  C  3  Z   -0.437782   0.317993  -0.136061  -0.117412  -0.064240
   17  C  3  S   -0.132364  -0.088294  -0.316963  -0.536733   0.761352
   18  C  3  X   -0.146048  -0.615263   0.015789   0.542897  -0.457116
   19  C  3  Y   -0.228740   0.359624  -0.295573   0.527929  -0.210261
   20  C  3  Z    0.360465  -0.455070  -0.465182  -0.109463   0.225151
   21  C  4  S    0.000490   0.008115   0.008368  -0.008443   0.022037
   22  C  4  S   -0.075096  -0.108559  -0.190016   0.064698  -1.372642
   23  C  4  X   -0.086960  -0.028262  -0.093613  -0.145807   0.328816
   24  C  4  Y   -0.033138  -0.063371  -0.137481  -0.205840  -0.102854
   25  C  4  Z   -0.070518   0.068664   0.124353  -0.031232  -0.020683
   26  C  4  S    0.323530   0.242668   0.400684   0.154981   2.255948
   27  C  4  X    0.064485  -0.014385   0.250186   0.267061  -0.900792
   28  C  4  Y    0.211854   0.247323   0.857420   0.871444   0.147804
   29  C  4  Z    0.004152  -0.041017  -0.319655  -0.031537   0.075042
   30  O  5  S    0.004696   0.000657   0.015380   0.019557   0.007310
   31  O  5  S   -0.004071   0.009045  -0.001905  -0.024519  -0.014196
   32  O  5  X   -0.028001  -0.030256  -0.093117  -0.029304   0.011524
   33  O  5  Y   -0.021916  -0.019634  -0.021060  -0.027760  -0.252711
   34  O  5  Z    0.014138   0.012384   0.049954  -0.018938  -0.026269
   35  O  5  S   -0.136403  -0.109876  -0.433031  -0.397717  -0.184540
   36  O  5  X    0.029002   0.036485   0.154460   0.135199   0.107888
   37  O  5  Y    0.024075   0.001793   0.038026   0.022493   0.168229
   38  O  5  Z   -0.003863   0.002394   0.033118   0.016806   0.007188
   39  O  6  S    0.000516   0.003323  -0.027402  -0.008547   0.010782
   40  O  6  S   -0.004553  -0.010284   0.050442  -0.007053  -0.005210
   41  O  6  X    0.001276   0.034101  -0.027419   0.071480   0.101223
   42  O  6  Y    0.004735   0.068642  -0.037263   0.000071   0.142663
   43  O  6  Z   -0.029848   0.008297   0.072216   0.043310  -0.057325
   44  O  6  S    0.033350   0.037135   0.349498   0.356775  -0.345956
   45  O  6  X   -0.010260   0.020781  -0.070722  -0.061681   0.026700
   46  O  6  Y   -0.006350  -0.010901   0.108941   0.081003  -0.229840
   47  O  6  Z    0.012743   0.007492   0.020903  -0.007815   0.027116
   48  H  7  S   -0.363908   0.459893  -0.430947  -0.565471   0.100419
   49  H  7  S    0.602007  -0.715342   0.283880   0.479390  -0.102608
   50  H  8  S   -0.185435  -0.663051   0.604526  -0.608297   0.160620
   51  H  8  S    0.019281   1.065461  -0.554404   0.803917  -0.436035
   52  H  9  S   -0.601875   0.057394   0.563943   0.747873   0.230261
   53  H  9  S    0.871677  -0.213581  -0.084510  -0.643663  -0.531270
   54  H 10  S    0.674067   0.615061   0.513426  -0.030952  -0.022119
   55  H 10  S   -0.742779  -0.766899  -0.273322   0.273882  -0.443402

                     46         47         48         49         50
                    2.0959     2.1360     2.2031     2.2541     2.2677
                     A          A          A          A          A   
    1  C  1  S    0.001379  -0.006124   0.001768   0.000346  -0.005999
    2  C  1  S   -0.358450  -0.719058   0.126663  -0.199441  -0.150450
    3  C  1  X    0.027028   0.034180  -0.080889   0.045523   0.037746
    4  C  1  Y    0.060250  -0.002058  -0.111811   0.035804   0.062914
    5  C  1  Z    0.003210   0.011556   0.007564   0.046009  -0.043838
    6  C  1  S    0.479980   1.217243  -0.244727   0.268463   0.334534
    7  C  1  X    0.297974   0.347123   0.242664   0.372879   0.243373
    8  C  1  Y   -0.053003   0.095474   0.328269   0.119533  -0.178285
    9  C  1  Z    0.078170   0.133518  -0.055325  -0.110372   0.430320
   10  H  2  S    0.006220  -0.091343   0.020885   0.029693  -0.138867
   11  H  2  S   -0.148649  -0.241726   0.046639  -0.022549  -0.079279
   12  C  3  S   -0.002993  -0.002048  -0.006767  -0.012204  -0.004832
   13  C  3  S   -0.793203  -0.834235   0.016618  -0.737572  -0.365962
   14  C  3  X   -0.001930  -0.090555   0.094312  -0.084987  -0.063246
   15  C  3  Y   -0.036396  -0.055109   0.002282  -0.024323  -0.023027
   16  C  3  Z   -0.023806   0.030266  -0.026132  -0.002590   0.044510
   17  C  3  S    1.364152   1.326034   0.275300   1.343105   0.629654
   18  C  3  X   -0.069774   0.114045  -0.090474   0.194851   0.120655
   19  C  3  Y    0.047894   0.015351   0.077136   0.043664   0.129320
   20  C  3  Z    0.007051  -0.173208   0.206149   0.033575  -0.260392
   21  C  4  S    0.000735   0.000102   0.004713   0.014808   0.011010
   22  C  4  S    0.080199   0.026144   0.088822   0.518117   0.371801
   23  C  4  X   -0.060947  -0.113609   0.123154  -0.003802  -0.032253
   24  C  4  Y    0.030624   0.045803   0.202095   0.077480   0.028514
   25  C  4  Z   -0.006889  -0.011133   0.014493  -0.050617   0.068380
   26  C  4  S   -0.652636  -1.090743   0.139946  -0.489845  -0.525276
   27  C  4  X    0.227639   0.353470   0.045324   0.369776   0.322229
   28  C  4  Y    0.003190   0.073993   0.067633  -0.304939  -0.112671
   29  C  4  Z   -0.001653  -0.010405  -0.045125   0.327639  -0.604768
   30  O  5  S   -0.005687  -0.014933   0.042192   0.025475   0.012487
   31  O  5  S    0.004937   0.030136  -0.183801  -0.132219  -0.069617
   32  O  5  X    0.032859   0.117793  -0.801937  -0.143648  -0.020566
   33  O  5  Y    0.164340   0.358710  -0.128448  -0.673469  -0.361597
   34  O  5  Z   -0.611772   0.388749  -0.059967   0.440732  -0.604086
   35  O  5  S    0.064243   0.101255  -0.063829   0.079289   0.045561
   36  O  5  X   -0.083343  -0.212500   0.945105   0.151479   0.006034
   37  O  5  Y   -0.188347  -0.428466   0.232453   0.794458   0.424010
   38  O  5  Z    0.562881  -0.368511   0.068134  -0.507938   0.728730
   39  O  6  S   -0.018448  -0.038120  -0.021800   0.014228   0.006329
   40  O  6  S    0.056304   0.123374   0.109674  -0.064616  -0.037270
   41  O  6  X   -0.031331  -0.000686   0.495923  -0.315856  -0.270180
   42  O  6  Y   -0.284776  -0.530783  -0.317283  -0.008013   0.012645
   43  O  6  Z    0.623924  -0.390608  -0.073963   0.301644  -0.660353
   44  O  6  S    0.134813   0.255396  -0.010725  -0.034592   0.038855
   45  O  6  X   -0.008107  -0.058039  -0.528957   0.273807   0.242144
   46  O  6  Y    0.369593   0.724516   0.379972  -0.047656  -0.024165
   47  O  6  Z   -0.575148   0.379145   0.084090  -0.370007   0.785324
   48  H  7  S   -0.038120  -0.070999  -0.001475  -0.066989  -0.077450
   49  H  7  S   -0.300203  -0.369667   0.088811  -0.249572  -0.237265
   50  H  8  S   -0.078652  -0.120696   0.019614  -0.126506  -0.055037
   51  H  8  S   -0.193951  -0.154318  -0.067081  -0.178459   0.021303
   52  H  9  S   -0.030243  -0.024412  -0.066762  -0.009702   0.070190
   53  H  9  S   -0.023523  -0.301139  -0.061251  -0.141264   0.058249
   54  H 10  S   -0.045066  -0.016688  -0.052831  -0.063032  -0.001477
   55  H 10  S   -0.325639  -0.201974  -0.093667  -0.155901  -0.033920

                     51         52         53         54         55
                    2.2928     2.3674     2.6185     3.7239     3.9119
                     A          A          A          A          A   
    1  C  1  S    0.006094  -0.009462  -0.108692  -0.002555   0.000073
    2  C  1  S   -0.452332   0.200299  -1.913505   0.063419   0.033669
    3  C  1  X   -0.087277   0.176994   0.008951   0.039225  -0.049879
    4  C  1  Y    0.058073  -0.022437   0.033182  -0.009858  -0.023445
    5  C  1  Z   -0.019246   0.037388   0.026517   0.015699   0.024761
    6  C  1  S    0.340861   0.090306   5.289518  -0.173102  -0.038425
    7  C  1  X    0.218156   0.501701   0.133449  -0.189244   0.411730
    8  C  1  Y    0.065286  -0.024504  -0.871565  -0.041920   0.552956
    9  C  1  Z    0.205072  -0.040194  -0.331428  -0.085529  -0.150083
   10  H  2  S   -0.024805  -0.018661  -0.438068  -0.014781   0.020036
   11  H  2  S   -0.225160   0.163207  -0.355001   0.104980   0.064163
   12  C  3  S   -0.008233  -0.023348   0.071209   0.004509   0.001479
   13  C  3  S   -0.667457  -0.826131   1.004174   0.072512   0.083155
   14  C  3  X   -0.071694  -0.008677  -0.066487   0.031317   0.073426
   15  C  3  Y    0.012636   0.023314  -0.033997   0.006612   0.012134
   16  C  3  Z   -0.011784  -0.011129  -0.007728   0.006795  -0.012854
   17  C  3  S    1.253625   1.817101  -3.129915  -0.165377   0.132547
   18  C  3  X    0.148533   0.112257  -0.720558  -0.113353  -0.176256
   19  C  3  Y   -0.061614  -0.093709  -0.569396  -0.065370   0.160574
   20  C  3  Z   -0.030808   0.064571  -0.354209  -0.018436   0.257560
   21  C  4  S    0.018179   0.002842   0.049198   0.022847   0.000168
   22  C  4  S    0.345437   0.432144   0.499836  -0.149168  -0.016815
   23  C  4  X    0.053755  -0.226469   0.030419  -0.101834  -0.086471
   24  C  4  Y   -0.180345   0.007357   0.033680   0.051744  -0.231459
   25  C  4  Z   -0.017268   0.000477   0.021421   0.006279   0.000572
   26  C  4  S   -0.194497  -0.641619  -1.905028  -1.359726  -0.119105
   27  C  4  X   -0.133226   1.182321   1.298117  -0.802858  -0.741860
   28  C  4  Y    0.259801  -0.439762  -0.527708   0.366179  -1.842766
   29  C  4  Z   -0.011718  -0.046470  -0.082470   0.033343  -0.025193
   30  O  5  S    0.006986   0.014461   0.004445   0.041330   0.033146
   31  O  5  S   -0.032131  -0.073742  -0.057121  -1.182336  -1.297849
   32  O  5  X   -0.441442   0.390609   0.080014   0.083584   0.187318
   33  O  5  Y    0.438187  -0.150794  -0.153174   0.197871   0.073380
   34  O  5  Z    0.044624   0.003162  -0.035360   0.003562   0.003170
   35  O  5  S    0.002473  -0.106623   0.116200   1.747553   2.298457
   36  O  5  X    0.526089  -0.522638  -0.269110  -0.323679  -0.748683
   37  O  5  Y   -0.490966   0.329726   0.292087  -0.682128  -0.338784
   38  O  5  Z   -0.045117   0.005672   0.054687  -0.014243  -0.006906
   39  O  6  S    0.018099   0.019922   0.004929   0.043585  -0.031762
   40  O  6  S   -0.099982  -0.100038  -0.064090  -1.241451   1.237576
   41  O  6  X   -0.114142   0.757734   0.200926  -0.067523  -0.082965
   42  O  6  Y    0.689671   0.280093   0.063989  -0.202716   0.175647
   43  O  6  Z   -0.037705  -0.055736   0.069022  -0.000487   0.012000
   44  O  6  S    0.164874  -0.062253   0.110296   1.832633  -2.189229
   45  O  6  X    0.142504  -1.042732  -0.418062   0.222152   0.297640
   46  O  6  Y   -0.787005  -0.400229  -0.020562   0.730781  -0.723785
   47  O  6  Z    0.039448   0.062130  -0.073274   0.008924  -0.036256
   48  H  7  S   -0.069540  -0.138740   0.239079   0.003194   0.047668
   49  H  7  S   -0.235816  -0.214148   0.200766   0.030241   0.080753
   50  H  8  S   -0.016063   0.054750   0.325767   0.055632  -0.019953
   51  H  8  S   -0.376069  -0.723204   0.159153  -0.061801   0.102093
   52  H  9  S   -0.025095   0.021466  -0.359153   0.021841  -0.100265
   53  H  9  S   -0.055053   0.018318  -0.454669  -0.018813  -0.145684
   54  H 10  S   -0.052916  -0.109307   0.201762   0.009085  -0.058122
   55  H 10  S   -0.140932  -0.236758   0.262889  -0.032712  -0.121404
 ...... END OF RHF CALCULATION ......
 CPU     0: STEP CPU TIME=     0.19 TOTAL CPU TIME=          0.2 (      0.0 MIN)
 TOTAL WALL CLOCK TIME=          0.4 SECONDS, CPU UTILIZATION IS    61.54%

     ----------------------------------------------------------------
     PROPERTY VALUES FOR THE RHF   SELF-CONSISTENT FIELD WAVEFUNCTION
     ----------------------------------------------------------------

          -----------------
          ENERGY COMPONENTS
          -----------------

         WAVEFUNCTION NORMALIZATION =       1.0000000000

                ONE ELECTRON ENERGY =    -702.0829489179
                TWO ELECTRON ENERGY =     270.5802497003
           NUCLEAR REPULSION ENERGY =     166.7478200826
                                      ------------------
                       TOTAL ENERGY =    -264.7548791350

 ELECTRON-ELECTRON POTENTIAL ENERGY =     270.5802497003
  NUCLEUS-ELECTRON POTENTIAL ENERGY =    -966.2246120453
   NUCLEUS-NUCLEUS POTENTIAL ENERGY =     166.7478200826
                                      ------------------
             TOTAL POTENTIAL ENERGY =    -528.8965422625
               TOTAL KINETIC ENERGY =     264.1416631274
                 VIRIAL RATIO (V/T) =       2.0023215422

          ---------------------------------------
          MULLIKEN AND LOWDIN POPULATION ANALYSES
          ---------------------------------------

     ATOMIC MULLIKEN POPULATION IN EACH MOLECULAR ORBITAL

                      1          2          3          4          5

                  2.000000   2.000000   2.000000   2.000000   2.000000

    1            -0.000047  -0.000079   0.003821   0.004687   1.984265
    2            -0.000000  -0.000002   0.000046   0.000016   0.002914
    3            -0.000002   0.000001   0.000087   1.986802   0.005368
    4             0.006651   0.006562   1.997878   0.000056   0.004571
    5             0.005684   1.987635  -0.001042   0.000001  -0.000003
    6             1.987678   0.005873  -0.000839  -0.000001  -0.000006
    7             0.000000  -0.000000  -0.000001   0.002829   0.000033
    8             0.000035   0.000000   0.000009   0.002986   0.000015
    9            -0.000000   0.000010   0.000043   0.000005   0.002831
   10            -0.000000   0.000000  -0.000001   0.002619   0.000011

                      6          7          8          9         10

                  2.000000   2.000000   2.000000   2.000000   2.000000

    1             0.022608   0.013736   0.826022   0.636745   0.487292
    2            -0.000181   0.000004   0.043219   0.093622   0.096555
    3             0.000420   0.001940   0.861256   0.664691   0.183226
    4             0.439511   0.195926   0.038726   0.154183   0.483972
    5             0.779282   0.886001   0.014967   0.049820   0.227846
    6             0.757748   0.899249   0.038814   0.020384   0.344960
    7             0.000068  -0.000212   0.050722   0.103974   0.009155
    8             0.001041   0.003277   0.036509   0.074281   0.041129
    9            -0.000318  -0.000330   0.040276   0.088548   0.090251
   10            -0.000179   0.000410   0.049489   0.113752   0.035614

                     11         12         13         14         15

                  2.000000   2.000000   2.000000   2.000000   2.000000

    1             0.594195   0.072571   0.417696   0.207616   0.065221
    2             0.176777   0.014400   0.005217   0.151074   0.011593
    3             0.523655   0.479208   0.378587   0.464825   0.309602
    4             0.067893   0.196903   0.275859   0.301285   0.340372
    5             0.029988   0.457032   0.309801   0.199338   0.702485
    6             0.035593   0.387354   0.470831   0.168372   0.289759
    7             0.242120   0.000295   0.011358   0.337135   0.003821
    8             0.074092   0.139489   0.025374   0.007648   0.131525
    9             0.216561  -0.000100   0.019510   0.034286   0.003594
   10             0.039127   0.252847   0.085768   0.128421   0.142028

                     16         17         18         19         20

                  2.000000   2.000000   2.000000   2.000000   2.000000

    1             0.394450   0.294223   0.022030   0.485241   0.002941
    2             0.030394   0.192314   0.000877   0.012395   0.000347
    3             0.554527   0.106686   0.027739   0.042109   0.001043
    4             0.144358   0.392355   0.045104   0.069745   0.001145
    5             0.191999   0.362900   0.704424   0.883510   0.999305
    6             0.334269   0.408673   1.174935   0.470600   0.989772
    7             0.000186   0.082996   0.001399   0.000014   0.000967
    8             0.167605   0.027576   0.012380   0.005669   0.000376
    9             0.181892   0.130756   0.004987   0.014450   0.001826
   10             0.000319   0.001522   0.006125   0.016268   0.002277

               ----- POPULATIONS IN EACH AO -----
                             MULLIKEN      LOWDIN
              1  C  1  S      1.98944     1.97657
              2  C  1  S      0.34190     0.42490
              3  C  1  X      0.53537     0.52630
              4  C  1  Y      0.52866     0.50370
              5  C  1  Z      0.52173     0.49133
              6  C  1  S      1.15064     0.59314
              7  C  1  X      0.44228     0.58337
              8  C  1  Y      0.49461     0.57727
              9  C  1  Z      0.53061     0.58850
             10  H  2  S      0.46561     0.47597
             11  H  2  S      0.36598     0.45535
             12  C  3  S      1.98822     1.97648
             13  C  3  S      0.35133     0.41525
             14  C  3  X      0.52885     0.49873
             15  C  3  Y      0.55232     0.53050
             16  C  3  Z      0.52388     0.49137
             17  C  3  S      1.11149     0.58639
             18  C  3  X      0.46050     0.56864
             19  C  3  Y      0.55467     0.61751
             20  C  3  Z      0.52051     0.59717
             21  C  4  S      1.98675     1.97636
             22  C  4  S      0.42821     0.43420
             23  C  4  X      0.53268     0.50677
             24  C  4  Y      0.59839     0.56927
             25  C  4  Z      0.32205     0.31174
             26  C  4  S      0.51740     0.52323
             27  C  4  X      0.25363     0.46988
             28  C  4  Y      0.04912     0.42905
             29  C  4  Z      0.47482     0.49386
             30  O  5  S      1.98677     1.98135
             31  O  5  S      0.41428     0.57933
             32  O  5  X      0.70646     0.70889
             33  O  5  Y      0.71586     0.71737
             34  O  5  Z      0.65119     0.65582
             35  O  5  S      1.54812     1.07993
             36  O  5  X      0.89519     0.93529
             37  O  5  Y      0.93298     0.95157
             38  O  5  Z      0.94013     0.93547
             39  O  6  S      1.98672     1.98129
             40  O  6  S      0.41396     0.57947
             41  O  6  X      0.80219     0.80783
             42  O  6  Y      0.60648     0.60218
             43  O  6  Z      0.66174     0.66708
             44  O  6  S      1.54796     1.08413
             45  O  6  X      1.01075     1.03813
             46  O  6  Y      0.80230     0.84466
             47  O  6  Z      0.95192     0.94574
             48  H  7  S      0.46942     0.47426
             49  H  7  S      0.37744     0.46293
             50  H  8  S      0.45157     0.45576
             51  H  8  S      0.29945     0.43074
             52  H  9  S      0.46940     0.47856
             53  H  9  S      0.35968     0.45485
             54  H 10  S      0.47207     0.47690
             55  H 10  S      0.40434     0.47771

          ----- MULLIKEN ATOMIC OVERLAP POPULATIONS -----
          (OFF-DIAGONAL ELEMENTS NEED TO BE MULTIPLIED BY 2)

             1           2           3           4           5

    1    5.9019973
    2    0.3685291   0.5603552
    3    0.1726439  -0.0451575   5.4856210
    4    0.1151665  -0.0287594  -0.0524789   4.2861841
    5   -0.1081782   0.0009834   0.0017863   0.4433252   8.4996035
    6   -0.1211108   0.0008855  -0.0055844   0.4240829  -0.0523619
    7   -0.0438462   0.0030672   0.3720117   0.0009570   0.0000207
    8   -0.0611605   0.0010262   0.3462575  -0.0017712   0.0003111
    9    0.3488583  -0.0258412  -0.0390610  -0.0263004   0.0054958
   10   -0.0376669  -0.0035067   0.3557324   0.0026467  -0.0000117

             6           7           8           9          10

    6    8.4996137
    7    0.0001266   0.5738438
    8    0.0363068  -0.0226533   0.4703892
    9    0.0018230  -0.0032525   0.0035208   0.5635713
   10    0.0002368  -0.0334172  -0.0212096   0.0002643   0.6133482

          TOTAL MULLIKEN AND LOWDIN ATOMIC POPULATIONS
       ATOM         MULL.POP.    CHARGE          LOW.POP.     CHARGE
    1 C             6.535233   -0.535233         6.265074   -0.265074
    2 H             0.831582    0.168418         0.931315    0.068685
    3 C             6.591771   -0.591771         6.282024   -0.282024
    4 C             5.163053    0.836947         5.714348    0.285652
    5 O             8.790974   -0.790974         8.545010   -0.545010
    6 O             8.784018   -0.784018         8.550505   -0.550505
    7 H             0.846858    0.153142         0.937190    0.062810
    8 H             0.751017    0.248983         0.886503    0.113497
    9 H             0.829079    0.170921         0.933414    0.066586
   10 H             0.876416    0.123584         0.954618    0.045382

          -------------------------------
          BOND ORDER AND VALENCE ANALYSIS     BOND ORDER THRESHOLD=0.050
          -------------------------------

                   BOND                       BOND                       BOND
  ATOM PAIR DIST  ORDER      ATOM PAIR DIST  ORDER      ATOM PAIR DIST  ORDER
    1   2  1.102  0.938        1   3  1.538  0.902        1   4  1.605  0.774
    1   9  1.096  0.931        3   7  1.099  0.945        3   8  1.098  0.879
    3  10  1.100  0.945        4   5  1.269  1.516        4   6  1.278  1.473
    5   6  2.308  0.151        6   8  2.155  0.066

                       TOTAL       BONDED        FREE
      ATOM            VALENCE     VALENCE     VALENCE
    1 C                 3.561       3.561      -0.000
    2 H                 0.925       0.925       0.000
    3 C                 3.654       3.654       0.000
    4 C                 3.730       3.730      -0.000
    5 O                 1.720       1.720      -0.000
    6 O                 1.738       1.738      -0.000
    7 H                 0.930       0.930      -0.000
    8 H                 0.928       0.928      -0.000
    9 H                 0.930       0.930       0.000
   10 H                 0.937       0.937       0.000

          ---------------------
          ELECTROSTATIC MOMENTS
          ---------------------

 POINT   1           X           Y           Z (BOHR)    CHARGE
                 2.532419   -0.602818    0.071814       -1.00 (A.U.)
         DX          DY          DZ         /D/  (DEBYE)
    -4.576575    0.832754   -0.055813    4.652057
 ...... END OF PROPERTY EVALUATION ......
 CPU     0: STEP CPU TIME=     0.03 TOTAL CPU TIME=          0.3 (      0.0 MIN)
 TOTAL WALL CLOCK TIME=          0.4 SECONDS, CPU UTILIZATION IS    64.29%
               580000  WORDS OF DYNAMIC MEMORY USED
 EXECUTION OF GAMESS TERMINATED NORMALLY Sat May 16 20:49:04 2020
 DDI: 263640 bytes (0.3 MB / 0 MWords) used by master data server.
Note: The following floating-point exceptions are signalling:Note: The following floating-point exceptions are signalling:Note: The following floating-point exceptions are signalling: IEEE_DENORMAL IEEE_DENORMAL
Note: The following floating-point exceptions are signalling: IEEE_DENORMAL

 ----------------------------------------
 CPU timing information for all processes
 ========================================
 0: 0.172 + 0.101 = 0.273
 1: 0.159 + 0.13 = 0.173
 2: 0.165 + 0.08 = 0.174
 3: 0.175 + 0.12 = 0.188
 4: 0.181 + 0.00 = 0.181
 5: 0.162 + 0.08 = 0.170
 ----------------------------------------

 IEEE_DENORMAL
Note: The following floating-point exceptions are signalling: IEEE_DENORMALNote: The following floating-point exceptions are signalling:
 IEEE_DENORMAL
 ddikick.x: exited gracefully.
unset echo
----- accounting info -----
Files used on the master node pietdev were:
-rwxr-xr-x 1 piet piet      686 mei 16 20:49 /home/piet/scr/aspartate_minus1__fukui_neu.F05*
-rw-r--r-- 1 piet piet 49152000 mei 16 20:49 /home/piet/scr/aspartate_minus1__fukui_neu.F10
ls: No match.
ls: No match.
ls: No match.
za 16 mei 2020 20:49:07 CEST
0.117u 0.028s 0:03.58 3.6%	0+0k 0+8io 0pf+0w
