----- GAMESS execution script 'rungms' -----
This job is running on host pietdev
under operating system Linux at za 16 mei 2020 20:49:26 CEST
Available scratch disk space (Kbyte units) at beginning of the job is
Filesystem     1K-blocks     Used Available Use% Mounted on
/dev/sda2      244568380 30362360 201712964  14% /
GAMESS temporary binary files will be written to /home/piet/scr
GAMESS supplementary output files will be written to /home/piet/gamess/scr
Copying input file aspartate_minus1__fukui_base.inp to your run's scratch directory...
cp aspartate_minus1__fukui_base.inp /home/piet/scr/aspartate_minus1__fukui_base.F05
unset echo
 
Assuming a single but multicore node.
 
/home/piet/gamess/ddikick.x /home/piet/gamess/gamess.03.x aspartate_minus1__fukui_base -ddi 1 6 pietdev:cpus=6 -scr /home/piet/scr

 Distributed Data Interface kickoff program.
 Initiating 6 compute processes on 1 nodes to run the following command:
 /home/piet/gamess/gamess.03.x aspartate_minus1__fukui_base 

          ******************************************************
          *         GAMESS VERSION = 30 SEP 2019 (R2)          *
          *             FROM IOWA STATE UNIVERSITY             *
          * M.W.SCHMIDT, K.K.BALDRIDGE, J.A.BOATZ, S.T.ELBERT, *
          *   M.S.GORDON, J.H.JENSEN, S.KOSEKI, N.MATSUNAGA,   *
          *          K.A.NGUYEN, S.J.SU, T.L.WINDUS,           *
          *       TOGETHER WITH M.DUPUIS, J.A.MONTGOMERY       *
          *         J.COMPUT.CHEM.  14, 1347-1363(1993)        *
          **************** 64 BIT LINUX VERSION ****************

  SINCE 1993, STUDENTS AND POSTDOCS WORKING AT IOWA STATE UNIVERSITY
  AND ALSO IN THEIR VARIOUS JOBS AFTER LEAVING ISU HAVE MADE IMPORTANT
  CONTRIBUTIONS TO THE CODE:
     IVANA ADAMOVIC, CHRISTINE AIKENS, YURI ALEXEEV, POOJA ARORA,
     ANDREY ASADCHEV, ROB BELL, PRADIPTA BANDYOPADHYAY, JONATHAN BENTZ,
     COLLEEN BERTONI, BRETT BODE, KURT BRORSEN, CALEB CARLIN, GALINA CHABAN,
     WEI CHEN, CHEOL HO CHOI, PAUL DAY, ALBERT DEFUSCO, NUWAN DESILVA,
     TIM DUDLEY, DMITRI FEDOROV, ALEX FINDLATER, GRAHAM FLETCHER, 
     MARK FREITAG, KURT GLAESEMANN, EMILIE B GUIDEZ, ANASTASIA GUNINA, 
     DAN KEMP, SAROM SOK LEANG, GRANT MERRILL,
     NORIYUKI MINEZAWA, JONATHAN MULLIN,
     TAKESHI NAGATA, SEAN NEDD, HEATHER NETZLOFF, BOSILJKA NJEGIC, RYAN OLSON,
     MIKE PAK, BUU PHAM, DAVID POOLE,
     SPENCER PRUITT, LUKE ROSKOP, TOSAPORN SATTASATHUCHANA,
     JIM SHOEMAKER, LYUDMILA SLIPCHENKO,
     TONY SMITH, JIE SONG, TETSUYA TAKETSUGU, SIMON WEBB,
     JORGE LUIS GALVEZ VALLEJO, PENG XU, SOOHAENG YOO,
     FEDERICO ZAHARIEV

  ADDITIONAL CODE HAS BEEN PROVIDED BY COLLABORATORS IN OTHER GROUPS:
     IOWA STATE UNIVERSITY:
          JOE IVANIC, AARON WEST, LAIMUTIS BYTAUTAS, KLAUS RUEDENBERG
     UNIVERSITY OF TOKYO: KIMIHIKO HIRAO, TAKAHITO NAKAJIMA,
          TAKAO TSUNEDA, MUNEAKI KAMIYA, SUSUMU YANAGISAWA,
          KIYOSHI YAGI, MAHITO CHIBA, SEIKEN TOKURA, NAOAKI KAWAKAMI
     UNIVERSITY OF AARHUS: FRANK JENSEN
     UNIVERSITY OF IOWA: VISVALDAS KAIRYS, HUI LI
     NATIONAL INST. OF STANDARDS AND TECHNOLOGY: WALT STEVENS, DAVID GARMER
     UNIVERSITY OF PISA: BENEDETTA MENNUCCI, JACOPO TOMASI
     UNIVERSITY OF MEMPHIS: HENRY KURTZ, PRAKASHAN KORAMBATH
     UNIVERSITY OF ALBERTA: TOBY ZENG, MARIUSZ KLOBUKOWSKI
     UNIVERSITY OF NEW ENGLAND: MARK SPACKMAN
     MIE UNIVERSITY: HIROAKI UMEDA
     NAT. INST. OF ADVANCED INDUSTRIAL SCIENCE AND TECHNOLOGY: KAZUO KITAURA
     MICHIGAN STATE UNIVERSITY:
          KAROL KOWALSKI, MARTA WLOCH, JEFFREY GOUR, JESSE LUTZ,
          WEI LI, JUN SHEN, J. EMILIANO DEUSTUA, PIOTR PIECUCH
     UNIVERSITY OF MINNESOTA:
          ANDREW SAND, PRACHI SHARMA, YINAN SHU
     UNIVERSITY OF SILESIA: MONIKA MUSIAL, STANISLAW KUCHARSKI
     FACULTES UNIVERSITAIRES NOTRE-DAME DE LA PAIX:
          OLIVIER QUINET, BENOIT CHAMPAGNE
     UNIVERSITY OF CALIFORNIA - SANTA BARBARA: BERNARD KIRTMAN
     INSTITUTE FOR MOLECULAR SCIENCE:
          KAZUYA ISHIMURA, MICHIO KATOUDA, AND SHIGERU NAGASE
     UNIVERSITY OF NOTRE DAME: ANNA POMOGAEVA, DAN CHIPMAN
     KYUSHU UNIVERSITY:
          HARUYUKI NAKANO,
          FENG LONG GU, JACEK KORCHOWIEC, MARCIN MAKOWSKI, AND YURIKO AOKI,
          HIROTOSHI MORI AND EISAKU MIYOSHI
     PENNSYLVANIA STATE UNIVERSITY:
          TZVETELIN IORDANOV, CHET SWALINA, JONATHAN SKONE,
          SHARON HAMMES-SCHIFFER
     WASEDA UNIVERSITY:
          MASATO KOBAYASHI, TOMOKO AKAMA, TSUGUKI TOUMA,
          TAKESHI YOSHIKAWA, YASUHIRO IKABATA, JUNJI SEINO,
          YUYA NAKAJIMA, HIROMI NAKAI
     NANJING UNIVERSITY: SHUHUA LI
     UNIVERSITY OF NEBRASKA:
          PEIFENG SU, DEJUN SI, NANDUN THELLAMUREGE, YALI WANG, HUI LI
     UNIVERSITY OF ZURICH: ROBERTO PEVERATI, KIM BALDRIDGE
     N. COPERNICUS UNIVERSITY AND JACKSON STATE UNIVERSITY:
          MARIA BARYSZ
     UNIVERSITY OF COPENHAGEN: Jimmy Kromann, CASPER STEINMANN
     TOKYO INSTITUTE OF TECHNOLOGY: HIROYA NAKATA
     NAGOYA UNIVERSITY: YOSHIO NISHIMOTO, STEPHAN IRLE
     MOSCOW STATE UNIVERSITY: VLADIMIR MIRONOV
     A.N.NESMEYANOV INSTITUTE OF ORGANOELEMENT COMPOUNDS OF RUSSIAN ACADEMY OF SCIENCES:
          IGOR S. GERASIMOV
     JOHANNES KEPLER UNIVERSITY LINZ:
          CHRISTIAN FRIEDL


 PARALLEL VERSION RUNNING ON        6 PROCESSORS IN        1 NODES.

 EXECUTION OF GAMESS BEGUN Sat May 16 20:49:26 2020

            ECHO OF THE FIRST FEW INPUT CARDS -
 INPUT CARD> $BASIS GBASIS=N21 NGAUSS=3 $END                                                
 INPUT CARD> $CONTRL SCFTYP=UHF MAXIT=60 MULT=2 ICHARG=0 $END                               
 INPUT CARD> $SYSTEM MEMDDI=1000 MWORDS=30 $END                                             
 INPUT CARD> $SCF DIRSCF=.TRUE. $END                                                        
 INPUT CARD> $STATPT OPTTOL=0.0001 NSTEP=999 $END                                           
 INPUT CARD> $DATA                                                                          
 INPUT CARD>                                                                                
 INPUT CARD>C1                                                                              
 INPUT CARD>C 6.0000000 0.4551415410 0.3408957085 0.2100323971                              
 INPUT CARD>H 1.0000000 0.2684142964 0.5553983642 1.2748669859                              
 INPUT CARD>C 6.0000000 -0.5805120688 -0.6684355398 -0.3135699219                           
 INPUT CARD>C 6.0000000 1.9367202401 -0.2670780566 0.1106591076                             
 INPUT CARD>O 8.0000000 2.8699458607 0.5925748323 0.1199474209                              
 INPUT CARD>O 8.0000000 1.9962778316 -1.5430544152 0.0737562441                             
 INPUT CARD>H 1.0000000 -0.6669588297 -0.6088722435 -1.4079523709                           
 INPUT CARD>H 1.0000000 -0.1512903456 -1.6479703847 -0.0667222406                           
 INPUT CARD>H 1.0000000 0.4440172203 1.2984036810 -0.3223335455                             
 INPUT CARD>H 1.0000000 -1.5859657458 -0.5473119463 0.1168459233                            
 INPUT CARD> $END                                                                           
   30000000 WORDS OF MEMORY AVAILABLE

     BASIS OPTIONS
     -------------
     GBASIS=N21          IGAUSS=       3      POLAR=NONE    
     NDFUNC=       0     NFFUNC=       0     DIFFSP=       F
     NPFUNC=       0      DIFFS=       F     BASNAM=        


     RUN TITLE
     ---------
                                                                                 

 THE POINT GROUP OF THE MOLECULE IS C1      
 THE ORDER OF THE PRINCIPAL AXIS IS     0

 ATOM      ATOMIC                      COORDINATES (BOHR)
           CHARGE         X                   Y                   Z
 C           6.0     0.8600927981        0.6441994795        0.3969036791
 H           1.0     0.5072294714        1.0495507224        2.4091492741
 C           6.0    -1.0970087426       -1.2631600107       -0.5925612304
 C           6.0     3.6598705687       -0.5047043443        0.2091153914
 O           8.0     5.4234112763        1.1198040603        0.2266677584
 O           8.0     3.7724180971       -2.9159500289        0.1393790912
 H           1.0    -1.2603694332       -1.1506017017       -2.6606441848
 H           1.0    -0.2858972978       -3.1142124630       -0.1260867520
 H           1.0     0.8390708802        2.4536271785       -0.6091220776
 H           1.0    -2.9970406855       -1.0342696083        0.2208067778

          INTERNUCLEAR DISTANCES (ANGS.)
          ------------------------------

                1 C          2 H          3 C          4 C          5 O     

   1 C       0.0000000    1.1021575 *  1.5380141 *  1.6045506 *  2.4295550 *
   2 H       1.1021575 *  0.0000000    2.1775163 *  2.1943318 *  2.8466099 *
   3 C       1.5380141 *  2.1775163 *  0.0000000    2.5840891 *  3.6991545  
   4 C       1.6045506 *  2.1943318 *  2.5840891 *  0.0000000    1.2688575 *
   5 O       2.4295550 *  2.8466099 *  3.6991545    1.2688575 *  0.0000000  
   6 O       2.4378147 *  2.9718148 *  2.7486044 *  1.2778985 *  2.3078869 *
   7 H       2.1861023 *  3.0704997    1.0994061 *  3.0335044    4.0357958  
   8 H       2.0976037 *  2.6135890 *  1.0975671 *  2.5096047 *  3.7660001  
   9 H       1.0956089 *  1.7702946 *  2.2177001 *  2.2059869 *  2.5649438 *
  10 H       2.2279397 *  2.4486135 *  1.1003935 *  3.5338203    4.5994021  

                6 O          7 H          8 H          9 H         10 H     

   1 C       2.4378147 *  2.1861023 *  2.0976037 *  1.0956089 *  2.2279397 *
   2 H       2.9718148 *  3.0704997    2.6135890 *  1.7702946 *  2.4486135 *
   3 C       2.7486044 *  1.0994061 *  1.0975671 *  2.2177001 *  1.1003935 *
   4 C       1.2778985 *  3.0335044    2.5096047 *  2.2059869 *  3.5338203  
   5 O       2.3078869 *  4.0357958    3.7660001    2.5649438 *  4.5994021  
   6 O       0.0000000    3.1876302    2.1547136 *  3.2619449    3.7183099  
   7 H       3.1876302    0.0000000    1.7732843 *  2.4597840 *  1.7813964 *
   8 H       2.1547136 *  1.7732843 *  0.0000000    3.0167612    1.8175367 *
   9 H       3.2619449    2.4597840 *  3.0167612    0.0000000    2.7785564 *
  10 H       3.7183099    1.7813964 *  1.8175367 *  2.7785564 *  0.0000000  

  * ... LESS THAN  3.000


     ATOMIC BASIS SET
     ----------------
 THE CONTRACTED PRIMITIVE FUNCTIONS HAVE BEEN UNNORMALIZED
 THE CONTRACTED BASIS FUNCTIONS ARE NOW NORMALIZED TO UNITY

  SHELL TYPE  PRIMITIVE        EXPONENT          CONTRACTION COEFFICIENT(S)

 C         

      1   S       1           172.2560000    0.061766907377
      1   S       2            25.9109000    0.358794042852
      1   S       3             5.5333500    0.700713083689

      2   L       4             3.6649800   -0.395895162119    0.236459946619
      2   L       5             0.7705450    1.215834355681    0.860618805716

      3   L       6             0.1958570    1.000000000000    1.000000000000

 H         

      4   S       7             5.4471780    0.156284978695
      4   S       8             0.8245472    0.904690876670

      5   S       9             0.1831916    1.000000000000

 C         

      6   S      10           172.2560000    0.061766907377
      6   S      11            25.9109000    0.358794042852
      6   S      12             5.5333500    0.700713083689

      7   L      13             3.6649800   -0.395895162119    0.236459946619
      7   L      14             0.7705450    1.215834355681    0.860618805716

      8   L      15             0.1958570    1.000000000000    1.000000000000

 C         

      9   S      16           172.2560000    0.061766907377
      9   S      17            25.9109000    0.358794042852
      9   S      18             5.5333500    0.700713083689

     10   L      19             3.6649800   -0.395895162119    0.236459946619
     10   L      20             0.7705450    1.215834355681    0.860618805716

     11   L      21             0.1958570    1.000000000000    1.000000000000

 O         

     12   S      22           322.0370000    0.059239393389
     12   S      23            48.4308000    0.351499960776
     12   S      24            10.4206000    0.707657921031

     13   L      25             7.4029400   -0.404453583190    0.244586106967
     13   L      26             1.5762000    1.221561761397    0.853955373466

     14   L      27             0.3736840    1.000000000000    1.000000000000

 O         

     15   S      28           322.0370000    0.059239393389
     15   S      29            48.4308000    0.351499960776
     15   S      30            10.4206000    0.707657921031

     16   L      31             7.4029400   -0.404453583190    0.244586106967
     16   L      32             1.5762000    1.221561761397    0.853955373466

     17   L      33             0.3736840    1.000000000000    1.000000000000

 H         

     18   S      34             5.4471780    0.156284978695
     18   S      35             0.8245472    0.904690876670

     19   S      36             0.1831916    1.000000000000

 H         

     20   S      37             5.4471780    0.156284978695
     20   S      38             0.8245472    0.904690876670

     21   S      39             0.1831916    1.000000000000

 H         

     22   S      40             5.4471780    0.156284978695
     22   S      41             0.8245472    0.904690876670

     23   S      42             0.1831916    1.000000000000

 H         

     24   S      43             5.4471780    0.156284978695
     24   S      44             0.8245472    0.904690876670

     25   S      45             0.1831916    1.000000000000

 TOTAL NUMBER OF BASIS SET SHELLS             =   25
 NUMBER OF CARTESIAN GAUSSIAN BASIS FUNCTIONS =   55
 NUMBER OF ELECTRONS                          =   39
 CHARGE OF MOLECULE                           =    0
 SPIN MULTIPLICITY                            =    2
 NUMBER OF OCCUPIED ORBITALS (ALPHA)          =   20
 NUMBER OF OCCUPIED ORBITALS (BETA )          =   19
 TOTAL NUMBER OF ATOMS                        =   10
 THE NUCLEAR REPULSION ENERGY IS      166.7478200826

     $CONTRL OPTIONS
     ---------------
 SCFTYP=UHF          RUNTYP=ENERGY       EXETYP=RUN     
 MPLEVL=       0     CITYP =NONE         CCTYP =NONE         VBTYP =NONE    
 DFTTYP=NONE         TDDFT =NONE    
 MULT  =       2     ICHARG=       0     NZVAR =       0     COORD =UNIQUE  
 PP    =NONE         RELWFN=NONE         LOCAL =NONE         NUMGRD=       F
 ISPHER=      -1     NOSYM =       0     MAXIT =      60     UNITS =ANGS    
 PLTORB=       F     MOLPLT=       F     AIMPAC=       F     FRIEND=        
 NPRINT=       7     IREST =       0     GEOM  =INPUT   
 NORMF =       0     NORMP =       0     ITOL  =      20     ICUT  =       9
 INTTYP=BEST         GRDTYP=BEST         QMTTOL= 1.0E-06

     $SYSTEM OPTIONS
     ---------------
  REPLICATED MEMORY=    30000000 WORDS (ON EVERY NODE).
 DISTRIBUTED MEMDDI=        1000 MILLION WORDS IN AGGREGATE,
 MEMDDI DISTRIBUTED OVER   6 PROCESSORS IS   166666666 WORDS/PROCESSOR.
 TOTAL MEMORY REQUESTED ON EACH PROCESSOR=   196666666 WORDS.
 TIMLIM=      525600.00 MINUTES, OR     365.0 DAYS.
 PARALL= T  BALTYP=  DLB     KDIAG=    0  COREFL= F
 MXSEQ2=     300 MXSEQ3=     150  mem10=         0

          ----------------
          PROPERTIES INPUT
          ----------------

     MOMENTS            FIELD           POTENTIAL          DENSITY
 IEMOM =       1   IEFLD =       0   IEPOT =       0   IEDEN =       0
 WHERE =COMASS     WHERE =NUCLEI     WHERE =NUCLEI     WHERE =NUCLEI  
 OUTPUT=BOTH       OUTPUT=BOTH       OUTPUT=BOTH       OUTPUT=BOTH    
 IEMINT=       0   IEFINT=       0                     IEDINT=       0
                                                       MORB  =       0
          EXTRAPOLATION IN EFFECT
          SOSCF IN EFFECT
          DIIS or SOSCF will be reset if energy rises
 ORBITAL PRINTING OPTION: NPREO=     1    55     2     1

     -------------------------------
     INTEGRAL TRANSFORMATION OPTIONS
     -------------------------------
     NWORD  =            0
     CUTOFF = 1.0E-09     MPTRAN =       0
     DIRTRF =       T     AOINTS =DUP     

          ----------------------
          INTEGRAL INPUT OPTIONS
          ----------------------
 NOPK  =       1 NORDER=       0 SCHWRZ=       T

     ------------------------------------------
     THE POINT GROUP IS C1 , NAXIS= 0, ORDER= 1
     ------------------------------------------

     DIMENSIONS OF THE SYMMETRY SUBSPACES ARE
 A   =   55

 ..... DONE SETTING UP THE RUN .....
 CPU     0: STEP CPU TIME=     0.02 TOTAL CPU TIME=          0.0 (      0.0 MIN)
 TOTAL WALL CLOCK TIME=          0.0 SECONDS, CPU UTILIZATION IS    50.00%

          ********************
          1 ELECTRON INTEGRALS
          ********************
 ...... END OF ONE-ELECTRON INTEGRALS ......
 CPU     0: STEP CPU TIME=     0.01 TOTAL CPU TIME=          0.0 (      0.0 MIN)
 TOTAL WALL CLOCK TIME=          0.0 SECONDS, CPU UTILIZATION IS    75.00%

          -------------
          GUESS OPTIONS
          -------------
          GUESS =HUCKEL            NORB  =       0          NORDER=       0
          MIX   =       F          PRTMO =       F          PUNMO =       F
          TOLZ  = 1.0E-08          TOLE  = 1.0E-05
          SYMDEN=       F          PURIFY=       F

 INITIAL GUESS ORBITALS GENERATED BY HUCKEL   ROUTINE.
 HUCKEL GUESS REQUIRES     32985 WORDS.

 SYMMETRIES FOR INITIAL GUESS ORBITALS FOLLOW.  ALPHA SET(S).
    20 ORBITALS ARE OCCUPIED (    5 CORE ORBITALS).
     6=A        7=A        8=A        9=A       10=A       11=A       12=A   
    13=A       14=A       15=A       16=A       17=A       18=A       19=A   
    20=A       21=A       22=A       23=A       24=A       25=A       26=A   
    27=A       28=A       29=A       30=A   

 SYMMETRIES FOR INITIAL GUESS ORBITALS FOLLOW.   BETA SET(S).
    19 ORBITALS ARE OCCUPIED (    5 CORE ORBITALS).
     6=A        7=A        8=A        9=A       10=A       11=A       12=A   
    13=A       14=A       15=A       16=A       17=A       18=A       19=A   
    20=A       21=A       22=A       23=A       24=A       25=A       26=A   
    27=A       28=A       29=A   
 ...... END OF INITIAL ORBITAL SELECTION ......
 CPU     0: STEP CPU TIME=     0.01 TOTAL CPU TIME=          0.0 (      0.0 MIN)
 TOTAL WALL CLOCK TIME=          0.1 SECONDS, CPU UTILIZATION IS    66.67%

                    ----------------------
                    AO INTEGRAL TECHNOLOGY
                    ----------------------
     S,P,L SHELL ROTATED AXIS INTEGRALS, REPROGRAMMED BY
        KAZUYA ISHIMURA (IMS) AND JOSE SIERRA (SYNSTAR).
     S,P,D,L SHELL ROTATED AXIS INTEGRALS PROGRAMMED BY
        KAZUYA ISHIMURA (INSTITUTE FOR MOLECULAR SCIENCE).
     S,P,D,F,G SHELL TO TOTAL QUARTET ANGULAR MOMENTUM SUM 5,
        ERIC PROGRAM BY GRAHAM FLETCHER (ELORET AND NASA ADVANCED
        SUPERCOMPUTING DIVISION, AMES RESEARCH CENTER).
     S,P,D,F,G,L SHELL GENERAL RYS QUADRATURE PROGRAMMED BY
        MICHEL DUPUIS (PACIFIC NORTHWEST NATIONAL LABORATORY).

          --------------------
          2 ELECTRON INTEGRALS
          --------------------

 DIRECT SCF METHOD SKIPS INTEGRAL STORAGE ON DISK.
 DIRECT TRANSFORMATION SKIPS AO INTEGRAL STORAGE ON DISK.
  ...... END OF TWO-ELECTRON INTEGRALS .....
 CPU     0: STEP CPU TIME=     0.02 TOTAL CPU TIME=          0.1 (      0.0 MIN)
 TOTAL WALL CLOCK TIME=          0.1 SECONDS, CPU UTILIZATION IS    75.00%

          ---------------------------
                  UHF SCF CALCULATION
          ---------------------------

     NUCLEAR ENERGY =       166.7478200826
     MAXIT = 60     NPUNCH=  2     MULT=  2
     EXTRAP=T  DAMP=F  SHIFT=F  RSTRCT=F  DIIS=F  SOSCF=T
     DENSITY MATRIX CONV=  2.00E-05
     SOSCF WILL OPTIMIZE     700 ALPHA AND     684 BETA ROTATION ANGLES.
     SOGTOL= 2.500E-01
     MEMORY REQUIRED FOR UHF/ROHF ITERS=     85824 WORDS.

 DIRECT SCF CALCULATION, SCHWRZ=T   FDIFF=T
 SCHWARZ INEQUALITY OVERHEAD:      1522 INTEGRALS, T=        0.00

                                                                                NONZERO     BLOCKS
 ITER EX      TOTAL ENERGY        E CHANGE  DENSITY CHANGE    ORB. GRAD       INTEGRALS    SKIPPED
   1  0     -263.9300711103  -263.9300711103   0.752355911   0.000000000        1015263      11639
          ---------------START SECOND ORDER SCF---------------
   2  1     -264.5619692377    -0.6318981274   0.146560961   0.110126792        1013932      12163
   3  2     -264.6143254705    -0.0523562329   0.087097228   0.052047198        1010744      12858
   4  3     -264.6613161840    -0.0469907135   0.040156607   0.021686450        1006930      13564
   5  4     -264.6681863241    -0.0068701401   0.279577377   0.019302643        1004198      14023
   6  5     -264.5914227051     0.0767636190   0.264226150   0.097441724        1012967      12498
   7  6     -264.6745989219    -0.0831762168   0.058955175   0.031711851        1012227      12660
   8  7     -264.6892307551    -0.0146318332   0.112715161   0.026872193        1005831      13858
   9  8     -264.6855658456     0.0036649095   0.074364529   0.051313761        1009026      13381
  10  9     -264.6997559110    -0.0141900654   0.020375275   0.013685400        1006157      13773
  11 10     -264.7023834503    -0.0026275393   0.038257365   0.009657260         999498      14565
  12 11     -264.7043350821    -0.0019516318   0.005673650   0.004352487        1003121      14137
  13 12     -264.7044784897    -0.0001434076   0.005226026   0.001160451         983495      15956
  14 13     -264.7045212085    -0.0000427188   0.005515768   0.000930423         976250      16384
  15 14     -264.7045508711    -0.0000296627   0.005450822   0.000860469         973236      16495
  16 15     -264.7045751279    -0.0000242568   0.005545256   0.000760480         973255      16498
  17 16     -264.7045952737    -0.0000201458   0.005998456   0.000627288         972353      16628
  18 17     -264.7046128186    -0.0000175449   0.003910383   0.000505456         972481      16746
  19 18     -264.7046228167    -0.0000099981   0.001899575   0.000403646         967522      17171
  20 19     -264.7046260462    -0.0000032295   0.000851830   0.000153051         959838      17554
  21 20     -264.7046266339    -0.0000005877   0.000254026   0.000060488         941274      18553
  22 21     -264.7046267589    -0.0000001251   0.000127478   0.000032981         917844      19720
  23 22     -264.7046267943    -0.0000000354   0.000091533   0.000018898         903756      20552
  24 23     -264.7046268069    -0.0000000126   0.000080676   0.000016790         891602      21320
  25 24     -264.7046268156    -0.0000000086   0.000080750   0.000013857         889344      21541
  26 25     -264.7046268235    -0.0000000079   0.000090571   0.000011248         892695      21662
  27 26     -264.7046268298    -0.0000000063   0.000065444   0.000011666         892245      21981
  28 27     -264.7046268330    -0.0000000032   0.000024319   0.000006285         882628      22071
  29 28     -264.7046268341    -0.0000000011   0.000011334   0.000002584         852125      23083
  30 29     -264.7046268344    -0.0000000004   0.000004619   0.000000899         813269      24788

          -----------------
          DENSITY CONVERGED
          -----------------
     TIME TO FORM FOCK OPERATORS=       0.4 SECONDS (       0.0 SEC/ITER)
     FOCK TIME ON FIRST ITERATION=       0.0, LAST ITERATION=       0.0
     TIME TO SOLVE SCF EQUATIONS=       0.1 SECONDS (       0.0 SEC/ITER)

 FINAL UHF ENERGY IS     -264.7046268344 AFTER  30 ITERATIONS

          --------------------
          SPIN SZ   =    0.500
          S-SQUARED =    0.761
          --------------------

  ----- ALPHA SET ----- 

          ------------
          EIGENVECTORS
          ------------

                      1          2          3          4          5
                  -20.6142   -20.4599   -11.3605   -11.2229   -11.1751
                     A          A          A          A          A   
    1  C  1  S    0.000031   0.000067  -0.001093   0.987950   0.002172
    2  C  1  S   -0.000242   0.000187  -0.002107   0.104312  -0.001669
    3  C  1  X    0.000113  -0.000872   0.000050   0.000583  -0.000216
    4  C  1  Y    0.000480  -0.000311   0.000220  -0.000355  -0.000120
    5  C  1  Z   -0.000311   0.000066   0.000061   0.000094   0.000008
    6  C  1  S    0.000270  -0.000393   0.015286  -0.090890   0.017456
    7  C  1  X   -0.003637   0.006145   0.012111  -0.002189  -0.008256
    8  C  1  Y   -0.006288   0.007181  -0.004496   0.007338  -0.006636
    9  C  1  Z    0.002210  -0.000286  -0.000062   0.001508  -0.004288
   10  H  2  S    0.000071   0.000317  -0.001510   0.001163  -0.001116
   11  H  2  S   -0.001438  -0.000353   0.002169   0.014363   0.001116
   12  C  3  S   -0.000069  -0.000018  -0.001104  -0.002907   0.987494
   13  C  3  S   -0.000724   0.000096  -0.001486  -0.002813   0.101493
   14  C  3  X   -0.000958   0.000444  -0.001163   0.000368   0.000443
   15  C  3  Y   -0.000127   0.000038  -0.000274   0.000266   0.000194
   16  C  3  Z    0.000109  -0.000173   0.000117   0.000041  -0.000021
   17  C  3  S   -0.001842   0.003408   0.001844   0.022056  -0.079746
   18  C  3  X    0.002926  -0.000333   0.002822   0.009406  -0.004844
   19  C  3  Y   -0.001082   0.003026   0.001604   0.007542  -0.002198
   20  C  3  Z   -0.002735   0.002884  -0.000972   0.004817  -0.000909
   21  C  4  S   -0.000079  -0.000092   0.986590   0.000207   0.000897
   22  C  4  S    0.000287   0.000289   0.093824  -0.002605  -0.001103
   23  C  4  X    0.001353   0.000206   0.000221  -0.000587   0.000761
   24  C  4  Y    0.001210  -0.001999   0.000820   0.000173   0.000038
   25  C  4  Z   -0.000052  -0.000037   0.000106   0.000018   0.000198
   26  C  4  S    0.018169   0.016025  -0.042475   0.021885   0.000688
   27  C  4  X    0.016465  -0.000178   0.015809  -0.013679  -0.002526
   28  C  4  Y    0.018695  -0.024756  -0.005898   0.003494  -0.000898
   29  C  4  Z    0.000101  -0.000726  -0.001202   0.000585  -0.000168
   30  O  5  S    0.983391   0.001356   0.000146  -0.000008  -0.000065
   31  O  5  S    0.100469  -0.000830   0.001231  -0.000388  -0.000634
   32  O  5  X   -0.003329   0.000569   0.000363   0.000138   0.000130
   33  O  5  Y   -0.003086  -0.000615  -0.000403   0.000203   0.000027
   34  O  5  Z   -0.000051  -0.000009  -0.000047  -0.000016  -0.000089
   35  O  5  S   -0.053822   0.005640  -0.000816   0.000338   0.002244
   36  O  5  X    0.011460  -0.003814   0.000981   0.001066  -0.000736
   37  O  5  Y    0.010101   0.003014   0.005314  -0.000982  -0.000396
   38  O  5  Z    0.000171   0.000098   0.000309  -0.000004   0.000282
   39  O  6  S   -0.001584   0.983719   0.000085   0.000044   0.000041
   40  O  6  S   -0.001131   0.099214   0.001010   0.000067   0.000302
   41  O  6  X    0.000765  -0.000239   0.000483  -0.000098  -0.000116
   42  O  6  Y   -0.000022   0.004581   0.000053  -0.000248  -0.000226
   43  O  6  Z   -0.000042   0.000130  -0.000069  -0.000105   0.000118
   44  O  6  S    0.005865  -0.053277   0.000329  -0.001866  -0.001361
   45  O  6  X   -0.004555   0.001064  -0.002966   0.001723   0.001080
   46  O  6  Y    0.000716  -0.014971  -0.003619  -0.000594   0.000460
   47  O  6  Z    0.000189  -0.000415   0.000220   0.000225  -0.000285
   48  H  7  S   -0.000321   0.000314  -0.000395  -0.001344   0.000310
   49  H  7  S   -0.001078   0.000652  -0.000832   0.001080   0.014242
   50  H  8  S   -0.000370  -0.000791  -0.000594  -0.001561   0.000301
   51  H  8  S    0.000368   0.002412   0.001159   0.000215   0.015048
   52  H  9  S    0.000828  -0.000997  -0.001222   0.000616  -0.001174
   53  H  9  S    0.002449  -0.001495   0.002077   0.014037   0.000502
   54  H 10  S    0.000520  -0.000502  -0.000027  -0.001061  -0.000039
   55  H 10  S    0.002086  -0.001080   0.001943   0.000306   0.013204

                      6          7          8          9         10
                   -1.5457    -1.3596    -1.0670    -0.9059    -0.7997
                     A          A          A          A          A   
    1  C  1  S   -0.012126  -0.014970  -0.171592   0.075772  -0.067987
    2  C  1  S    0.011049   0.014233   0.161946  -0.067132   0.056313
    3  C  1  X    0.014154   0.011190  -0.009108  -0.121891  -0.040469
    4  C  1  Y   -0.003941  -0.012341  -0.028548  -0.061261   0.061329
    5  C  1  Z   -0.000436  -0.001764  -0.012119  -0.035394   0.032233
    6  C  1  S    0.016550   0.025485   0.483094  -0.278708   0.277163
    7  C  1  X    0.008700  -0.026483   0.013021  -0.033581   0.001565
    8  C  1  Y    0.021013  -0.029921  -0.012593  -0.025707   0.014010
    9  C  1  Z   -0.004950   0.004099  -0.001145  -0.008997   0.028727
   10  H  2  S    0.002941   0.004482   0.084435  -0.057156   0.070398
   11  H  2  S   -0.000353  -0.005454  -0.004024  -0.012198   0.032342
   12  C  3  S   -0.001117  -0.007060  -0.127615  -0.156005   0.048625
   13  C  3  S    0.004125   0.008136   0.127515   0.140717  -0.045635
   14  C  3  X    0.005202   0.004701   0.044174  -0.035429   0.029638
   15  C  3  Y    0.000754   0.000033   0.034461  -0.030882   0.043460
   16  C  3  Z    0.000068   0.002568   0.018773  -0.016923   0.028760
   17  C  3  S    0.006450  -0.007503   0.312626   0.515890  -0.188767
   18  C  3  X   -0.013678   0.005042  -0.000855   0.011403   0.022802
   19  C  3  Y    0.001543  -0.007823  -0.002009  -0.001749   0.027015
   20  C  3  Z    0.008178  -0.012973   0.000896  -0.004631   0.006597
   21  C  4  S   -0.106132  -0.080079  -0.035912   0.077461   0.107519
   22  C  4  S    0.121156   0.093938   0.049449  -0.094375  -0.143059
   23  C  4  X    0.090665  -0.026666  -0.097838   0.073182  -0.140084
   24  C  4  Y    0.062622  -0.179527   0.061861  -0.085907  -0.093493
   25  C  4  Z    0.000697  -0.004568   0.004292  -0.014456   0.008871
   26  C  4  S    0.051381   0.110337   0.051411  -0.181076  -0.249447
   27  C  4  X   -0.061655   0.000756  -0.020156   0.074258   0.034134
   28  C  4  Y   -0.034689   0.055130   0.025123  -0.055863  -0.017443
   29  C  4  Z    0.000718   0.001982   0.001931  -0.010247   0.002235
   30  O  5  S   -0.221818   0.070857   0.024825  -0.051225  -0.087716
   31  O  5  S    0.216972  -0.069371  -0.023997   0.051639   0.090094
   32  O  5  X   -0.081280   0.018201  -0.045610   0.152326   0.246718
   33  O  5  Y   -0.073399  -0.003558   0.020413  -0.002177   0.263773
   34  O  5  Z   -0.000621  -0.000345   0.001914  -0.008199   0.012068
   35  O  5  S    0.719107  -0.259762  -0.097829   0.205666   0.348102
   36  O  5  X   -0.102592   0.035194  -0.031932   0.127322   0.229594
   37  O  5  Y   -0.099842  -0.001264   0.019632  -0.000155   0.260921
   38  O  5  Z   -0.001201  -0.000637   0.000846  -0.006516   0.012393
   39  O  6  S   -0.041615  -0.211513   0.038592  -0.027622  -0.053066
   40  O  6  S    0.038680   0.198524  -0.038456   0.028618   0.050797
   41  O  6  X    0.003602  -0.010962  -0.026346   0.015165  -0.033061
   42  O  6  Y    0.031065   0.107336  -0.001968  -0.026389  -0.077127
   43  O  6  Z    0.000997   0.003564   0.000173  -0.006092   0.003149
   44  O  6  S    0.112442   0.677010  -0.126696   0.095944   0.215670
   45  O  6  X    0.018089  -0.011132  -0.021376   0.001426  -0.043383
   46  O  6  Y    0.036985   0.126570  -0.006012  -0.026525  -0.069182
   47  O  6  Z    0.000451   0.003941  -0.000571  -0.004387   0.004113
   48  H  7  S    0.001251   0.001753   0.060046   0.100442  -0.047517
   49  H  7  S    0.003385  -0.004261  -0.001539   0.023570  -0.024540
   50  H  8  S    0.003494   0.007949   0.063281   0.093719  -0.040805
   51  H  8  S   -0.003451   0.007255  -0.009830   0.019301   0.007532
   52  H  9  S    0.001916   0.006619   0.084175  -0.062060   0.065696
   53  H  9  S   -0.009336   0.002181  -0.002593  -0.009773   0.046543
   54  H 10  S   -0.001069   0.003436   0.057361   0.104771  -0.039936
   55  H 10  S   -0.009586   0.005468  -0.002580   0.035669  -0.009229

                     11         12         13         14         15
                   -0.7569    -0.6986    -0.6901    -0.6275    -0.6010
                     A          A          A          A          A   
    1  C  1  S    0.059194   0.011929  -0.016651  -0.000113   0.018327
    2  C  1  S   -0.046634  -0.009592   0.012993  -0.000104  -0.013368
    3  C  1  X    0.080061   0.010558  -0.110166  -0.045720  -0.040864
    4  C  1  Y   -0.056603  -0.055165   0.163431  -0.107419   0.083464
    5  C  1  Z   -0.040476   0.121192   0.021724   0.247651   0.063888
    6  C  1  S   -0.280207  -0.057258   0.090119   0.001128  -0.088174
    7  C  1  X    0.050336   0.002899  -0.031794  -0.036523  -0.048818
    8  C  1  Y   -0.013027  -0.028604   0.141662  -0.093801   0.063026
    9  C  1  Z   -0.013755   0.085127   0.014722   0.227162   0.055804
   10  H  2  S   -0.077312   0.056335   0.055081   0.151419   0.044221
   11  H  2  S   -0.042313   0.046837   0.044524   0.110055   0.044146
   12  C  3  S   -0.024134  -0.007394  -0.005560   0.000627  -0.007027
   13  C  3  S    0.018090   0.005053   0.004207   0.000526   0.003323
   14  C  3  X   -0.012116  -0.018656  -0.088312  -0.012693  -0.216281
   15  C  3  Y   -0.062674  -0.036993   0.058515  -0.070235   0.094356
   16  C  3  Z   -0.030796   0.041880  -0.002194   0.203894   0.024284
   17  C  3  S    0.116916   0.037804   0.022479  -0.005421   0.046690
   18  C  3  X    0.014978  -0.006134  -0.056663  -0.011417  -0.169842
   19  C  3  Y   -0.021015  -0.022884   0.062911  -0.050798   0.071631
   20  C  3  Z   -0.012024   0.030307   0.006644   0.147767   0.023883
   21  C  4  S    0.002329  -0.006955   0.066135   0.010166  -0.035024
   22  C  4  S   -0.016464   0.006658  -0.077456  -0.012708   0.050075
   23  C  4  X   -0.126494  -0.012697   0.191771   0.024032   0.028609
   24  C  4  Y    0.093901  -0.010004   0.157138   0.047614  -0.204431
   25  C  4  Z   -0.010127   0.208373   0.023427  -0.030855  -0.005142
   26  C  4  S    0.033849   0.028577  -0.232687  -0.037494   0.089613
   27  C  4  X   -0.128708  -0.022243   0.133417  -0.000988   0.025408
   28  C  4  Y    0.092927  -0.002455  -0.006716  -0.000092   0.007684
   29  C  4  Z   -0.008124   0.193609   0.016875  -0.049198  -0.002479
   30  O  5  S   -0.009587  -0.001258   0.020547   0.001148  -0.003085
   31  O  5  S    0.008019   0.000531  -0.018496  -0.002215   0.005355
   32  O  5  X   -0.288010  -0.005953  -0.209156  -0.053554  -0.064801
   33  O  5  Y    0.357156   0.006434  -0.034775  -0.017216   0.200365
   34  O  5  Z   -0.005614   0.411267   0.048996  -0.207238  -0.038195
   35  O  5  S    0.044991   0.008625  -0.083575   0.004747  -0.011229
   36  O  5  X   -0.280377  -0.005250  -0.222288  -0.060010  -0.060551
   37  O  5  Y    0.345060   0.003486  -0.021044  -0.019901   0.214193
   38  O  5  Z   -0.005391   0.418670   0.051136  -0.221687  -0.042446
   39  O  6  S   -0.035872   0.006420  -0.083159  -0.010928   0.047475
   40  O  6  S    0.026979  -0.005781   0.076410   0.010846  -0.049037
   41  O  6  X   -0.076066  -0.018470   0.143886  -0.015116   0.073903
   42  O  6  Y   -0.074689   0.009147  -0.209423  -0.058660   0.270882
   43  O  6  Z   -0.009782   0.113355   0.004371  -0.010830   0.016571
   44  O  6  S    0.174202  -0.027321   0.345004   0.043685  -0.178845
   45  O  6  X   -0.067348  -0.016223   0.133600  -0.014974   0.073731
   46  O  6  Y   -0.054003   0.007849  -0.196431  -0.061513   0.294785
   47  O  6  Z   -0.008374   0.102973   0.004777  -0.003811   0.019431
   48  H  7  S    0.031073  -0.020877   0.012078  -0.136276   0.003413
   49  H  7  S    0.016745  -0.017063   0.011672  -0.113636   0.005011
   50  H  8  S    0.042880   0.026650  -0.052070   0.068681  -0.105166
   51  H  8  S    0.039633   0.013610  -0.003765   0.058037  -0.121014
   52  H  9  S   -0.057273  -0.075592   0.093598  -0.143273   0.015732
   53  H  9  S   -0.013003  -0.063136   0.062146  -0.103020   0.027538
   54  H 10  S    0.011916   0.022746   0.055824   0.056600   0.154761
   55  H 10  S    0.007212   0.017146   0.041307   0.048751   0.131794

                     16         17         18         19         20
                   -0.5388    -0.5170    -0.5059    -0.4617    -0.4418
                     A          A          A          A          A   
    1  C  1  S    0.023653  -0.001167  -0.007184  -0.001357  -0.024726
    2  C  1  S   -0.021925   0.004075   0.007464  -0.001393   0.009611
    3  C  1  X    0.244997   0.030433   0.019204  -0.012129   0.184986
    4  C  1  Y    0.194660  -0.013210  -0.190012   0.017131  -0.113785
    5  C  1  Z    0.104528  -0.199058   0.039047  -0.092253  -0.030463
    6  C  1  S   -0.095222  -0.015530   0.022411   0.014241   0.215561
    7  C  1  X    0.203146   0.013796   0.001340  -0.012059   0.219350
    8  C  1  Y    0.172162   0.002991  -0.190235  -0.018310  -0.128133
    9  C  1  Z    0.094898  -0.201781   0.039259  -0.114112  -0.061895
   10  H  2  S    0.049483  -0.155705   0.007404  -0.070986  -0.049093
   11  H  2  S    0.049932  -0.152712   0.004778  -0.074182  -0.057136
   12  C  3  S    0.009667   0.002156   0.005004  -0.005472  -0.008836
   13  C  3  S   -0.008314   0.000207   0.001545   0.010849   0.012395
   14  C  3  X   -0.229975  -0.118978  -0.091759   0.039238  -0.013994
   15  C  3  Y   -0.183366   0.059895   0.272804  -0.012321  -0.041997
   16  C  3  Z   -0.106997   0.261606  -0.105835   0.036510   0.034143
   17  C  3  S   -0.009376  -0.029288  -0.073370  -0.002220   0.041718
   18  C  3  X   -0.177840  -0.111790  -0.106327  -0.009322  -0.066377
   19  C  3  Y   -0.118970   0.053284   0.263740  -0.017295  -0.054985
   20  C  3  Z   -0.078035   0.243531  -0.117453   0.058394   0.043220
   21  C  4  S   -0.014003  -0.009607  -0.009675   0.002931  -0.019695
   22  C  4  S    0.002705   0.004238   0.000719  -0.001158   0.010378
   23  C  4  X   -0.115768  -0.071713  -0.110080   0.018285  -0.122735
   24  C  4  Y    0.073060   0.060236   0.109379  -0.014632   0.077828
   25  C  4  Z    0.022325  -0.030132   0.035217   0.186168   0.004002
   26  C  4  S    0.100306   0.058216   0.074766  -0.026043   0.145527
   27  C  4  X   -0.105624  -0.096884  -0.102831   0.024040   0.111436
   28  C  4  Y    0.010961   0.009184   0.033334  -0.008212   0.073106
   29  C  4  Z    0.011951  -0.020232   0.032020   0.232652  -0.000418
   30  O  5  S    0.003005  -0.000661  -0.002266   0.000058   0.013894
   31  O  5  S   -0.004788  -0.003002   0.001063   0.000059   0.001334
   32  O  5  X    0.148427   0.052284   0.049069  -0.010855   0.125171
   33  O  5  Y   -0.096320  -0.070151  -0.069812   0.009565   0.064146
   34  O  5  Z   -0.063157   0.086402  -0.061063  -0.212990   0.001323
   35  O  5  S   -0.002919   0.023931   0.019616  -0.001638  -0.160364
   36  O  5  X    0.166385   0.054919   0.057261  -0.014582   0.179684
   37  O  5  Y   -0.109340  -0.087001  -0.084572   0.013122   0.106945
   38  O  5  Z   -0.072856   0.100213  -0.073841  -0.281171   0.001640
   39  O  6  S   -0.009283  -0.008748  -0.021898   0.001491  -0.001431
   40  O  6  S    0.011441   0.009783   0.022521  -0.001974   0.002534
   41  O  6  X   -0.110560  -0.117008  -0.089018   0.013622   0.440613
   42  O  6  Y   -0.077698  -0.064681  -0.135591  -0.000176  -0.066772
   43  O  6  Z    0.022705  -0.040745   0.051007   0.396086  -0.012484
   44  O  6  S    0.022255   0.027510   0.084981  -0.002608   0.000737
   45  O  6  X   -0.110276  -0.120417  -0.087950   0.013842   0.504868
   46  O  6  Y   -0.093990  -0.075202  -0.156267   0.001168  -0.086496
   47  O  6  Z    0.026786  -0.048231   0.059453   0.473315  -0.015460
   48  H  7  S    0.074889  -0.192207   0.097685  -0.027378  -0.019823
   49  H  7  S    0.081878  -0.186841   0.092603  -0.032716  -0.025675
   50  H  8  S    0.039851  -0.021049  -0.220722   0.031215   0.011486
   51  H  8  S    0.075575   0.008880  -0.161243   0.033881  -0.054700
   52  H  9  S    0.059138   0.069570  -0.143870   0.053435  -0.053992
   53  H  9  S    0.053528   0.050621  -0.149519   0.083274  -0.085148
   54  H 10  S    0.099671   0.171074   0.054531  -0.010614   0.030584
   55  H 10  S    0.099265   0.168876   0.053455  -0.035576   0.016465

                     21         22         23         24         25
                    0.1621     0.2641     0.2958     0.3235     0.3282
                     A          A          A          A          A   
    1  C  1  S   -0.006042  -0.109247   0.021555   0.121468   0.028356
    2  C  1  S    0.005663   0.031847   0.002552  -0.034969  -0.023911
    3  C  1  X    0.010063  -0.018865   0.032907   0.001782  -0.140438
    4  C  1  Y   -0.002111   0.146145   0.075924  -0.019030   0.115709
    5  C  1  Z    0.009990   0.052023  -0.215252  -0.011446  -0.022502
    6  C  1  S    0.062886   1.518786  -0.331452  -1.599049  -0.145883
    7  C  1  X    0.081894  -0.044900   0.122877   0.232767  -0.703410
    8  C  1  Y   -0.008010   0.684310   0.471511  -0.133098   0.337796
    9  C  1  Z    0.292809   0.286609  -0.802818  -0.040827  -0.185365
   10  H  2  S   -0.094444   0.001379   0.039936   0.002594  -0.031437
   11  H  2  S   -0.482678  -1.005639   1.125373   0.760155   0.023950
   12  C  3  S   -0.024419  -0.078269  -0.013960  -0.140631   0.071434
   13  C  3  S    0.006011   0.023212  -0.003417   0.032595  -0.013268
   14  C  3  X    0.012586  -0.079892   0.087360  -0.103285  -0.079056
   15  C  3  Y    0.035959  -0.002427   0.024878   0.052695   0.124867
   16  C  3  Z    0.015214  -0.051692  -0.154985   0.000865   0.024375
   17  C  3  S    0.286706   1.105283   0.227149   1.915156  -1.077694
   18  C  3  X   -0.003918  -0.299957   0.469743  -0.409995  -0.520692
   19  C  3  Y    0.146351  -0.112403   0.065644   0.377383   0.578015
   20  C  3  Z   -0.043507  -0.305922  -0.603619   0.050048   0.073137
   21  C  4  S    0.004532   0.012789  -0.000582  -0.045021  -0.107104
   22  C  4  S    0.004519   0.029959  -0.019200   0.009056   0.042852
   23  C  4  X    0.010340  -0.006535   0.036234  -0.052651  -0.114084
   24  C  4  Y   -0.014990   0.017885  -0.002951   0.045616   0.092479
   25  C  4  Z    0.418952  -0.061763   0.099914  -0.051023   0.016339
   26  C  4  S   -0.075588  -0.236814   0.104886   0.456988   1.227298
   27  C  4  X    0.037760  -0.050778   0.015772  -0.032528  -0.269420
   28  C  4  Y   -0.033893  -0.014675  -0.035096   0.199240   0.213400
   29  C  4  Z    0.610653  -0.118057   0.270133  -0.029461   0.079531
   30  O  5  S   -0.000365  -0.008490   0.004122   0.024431   0.032602
   31  O  5  S   -0.001113   0.003414  -0.001533  -0.018745  -0.018502
   32  O  5  X   -0.003179  -0.001125   0.004295   0.068835   0.084935
   33  O  5  Y    0.000076  -0.005350   0.019928   0.005389   0.069492
   34  O  5  Z   -0.186802   0.017139  -0.060380   0.015452  -0.008459
   35  O  5  S    0.010403   0.099601  -0.037132  -0.232491  -0.323867
   36  O  5  X   -0.012071  -0.026125   0.019400   0.141449   0.219666
   37  O  5  Y    0.000868  -0.044699   0.033837   0.060982   0.137967
   38  O  5  Z   -0.282013   0.034053  -0.089742   0.018694  -0.017756
   39  O  6  S   -0.000917  -0.018432   0.004027   0.001223   0.037502
   40  O  6  S    0.000326   0.013661  -0.000861  -0.002838  -0.028692
   41  O  6  X   -0.006073  -0.030949  -0.005266  -0.015247   0.059828
   42  O  6  Y    0.014183   0.035644   0.006515  -0.034065  -0.054223
   43  O  6  Z   -0.287895   0.041126  -0.042896   0.007813  -0.015133
   44  O  6  S    0.008296   0.127748  -0.046657   0.006263  -0.278219
   45  O  6  X   -0.012393  -0.042056  -0.009763  -0.024012   0.129563
   46  O  6  Y    0.026536   0.087747  -0.008514  -0.053899  -0.160857
   47  O  6  Z   -0.468121   0.067078  -0.098780   0.017327  -0.028007
   48  H  7  S    0.000540  -0.010366  -0.062218   0.000568  -0.018618
   49  H  7  S   -0.116205  -0.762173  -0.967513  -0.776495   0.374318
   50  H  8  S    0.006558   0.011597   0.022954   0.019770   0.097422
   51  H  8  S    0.038845  -0.195154   0.094841  -0.169102   1.388038
   52  H  9  S    0.054986  -0.028904  -0.043257  -0.012282  -0.050276
   53  H  9  S    0.232249  -1.173661  -0.897151   0.717822  -0.500894
   54  H 10  S   -0.009289  -0.007226   0.044376  -0.025178  -0.073306
   55  H 10  S   -0.138985  -0.642816   0.773320  -1.324071  -0.367452

                     26         27         28         29         30
                    0.3739     0.3899     0.4110     0.4803     0.6158
                     A          A          A          A          A   
    1  C  1  S   -0.008340   0.044101   0.087016  -0.055474  -0.025459
    2  C  1  S    0.006145  -0.013526  -0.022633  -0.001429   0.002661
    3  C  1  X    0.083779   0.179672  -0.162350  -0.041125  -0.130304
    4  C  1  Y    0.128264   0.094610   0.144906  -0.019319  -0.137523
    5  C  1  Z   -0.163032   0.154771   0.075230  -0.002284   0.007677
    6  C  1  S    0.052015  -0.677061  -1.089550   1.030291   0.401598
    7  C  1  X    0.601220   1.141256  -0.815410   0.382018  -0.486458
    8  C  1  Y    0.588997   0.658088   0.972970  -0.414180  -0.857011
    9  C  1  Z   -0.857232   0.828390   0.386091  -0.087272  -0.139783
   10  H  2  S   -0.008989  -0.028319  -0.056785   0.013347   0.022348
   11  H  2  S    0.794319  -0.564432  -0.366309  -0.116489  -0.006801
   12  C  3  S   -0.019543  -0.041217  -0.048114   0.001726   0.027263
   13  C  3  S    0.004099  -0.005403   0.008447   0.011500   0.025055
   14  C  3  X   -0.023871   0.150883   0.167133  -0.020253   0.143137
   15  C  3  Y    0.005339   0.209600  -0.123251  -0.030020   0.009365
   16  C  3  Z    0.227079   0.028998   0.062515   0.007990  -0.041240
   17  C  3  S    0.264282   0.616530   0.689140  -0.078900  -0.804251
   18  C  3  X   -0.015205   0.960098   1.119624  -0.158031  -0.407472
   19  C  3  Y   -0.044395   1.221193  -0.515749  -0.274180  -0.374993
   20  C  3  Z    1.302321   0.187082   0.256958  -0.063957  -0.347750
   21  C  4  S    0.033463   0.027296  -0.118151  -0.069856   0.015870
   22  C  4  S   -0.011551  -0.031093   0.036068  -0.030332   0.013848
   23  C  4  X    0.064328   0.112562  -0.147311   0.340565   0.094882
   24  C  4  Y    0.004557   0.009490   0.128827  -0.085443   0.240977
   25  C  4  Z    0.052955  -0.077397   0.047327  -0.004162   0.028359
   26  C  4  S   -0.444507  -0.333059   1.543546   0.862471  -0.239609
   27  C  4  X    0.190449   0.424082  -0.655103   1.427762   0.724450
   28  C  4  Y    0.044815   0.034567   0.328005  -0.338396   2.123067
   29  C  4  Z    0.186507  -0.234596   0.017465  -0.040027   0.069542
   30  O  5  S    0.001608   0.023958   0.031749   0.085872   0.078765
   31  O  5  S   -0.000900  -0.023129  -0.026253  -0.058660  -0.028587
   32  O  5  X    0.010056   0.050245   0.113418   0.037005   0.140353
   33  O  5  Y   -0.007989   0.001901   0.032444   0.220975  -0.027367
   34  O  5  Z   -0.037889   0.023007  -0.014055   0.007130   0.003148
   35  O  5  S   -0.016817  -0.206992  -0.274406  -0.897299  -1.146296
   36  O  5  X    0.000405   0.071796   0.261740   0.212563   0.498380
   37  O  5  Y   -0.005891   0.075576   0.070343   0.566620   0.187592
   38  O  5  Z   -0.056179   0.057876  -0.007729   0.013628  -0.006766
   39  O  6  S   -0.025907  -0.000927   0.006429   0.068571  -0.103952
   40  O  6  S    0.017981  -0.009127  -0.000534  -0.040203   0.025221
   41  O  6  X   -0.058584  -0.013185  -0.000787  -0.170537  -0.084962
   42  O  6  Y    0.050100   0.050122  -0.086220  -0.182619   0.144502
   43  O  6  Z   -0.032672   0.053311   0.007709  -0.005964  -0.006121
   44  O  6  S    0.213506   0.060830  -0.095853  -0.647703   1.405558
   45  O  6  X   -0.106159  -0.069581   0.046204  -0.366466  -0.207020
   46  O  6  Y    0.131317   0.092948  -0.173638  -0.479954   0.667390
   47  O  6  Z   -0.064785   0.097254  -0.001354  -0.010017   0.010381
   48  H  7  S    0.047073   0.022900   0.031869  -0.004271  -0.001726
   49  H  7  S    1.346599   0.000978   0.236272  -0.014915  -0.146891
   50  H  8  S   -0.029278   0.056097  -0.003533  -0.062395   0.000775
   51  H  8  S   -0.414406   0.632582  -1.278839  -0.217490   0.190397
   52  H  9  S   -0.006329  -0.053628  -0.021915   0.023828  -0.121230
   53  H  9  S   -1.099550   0.067402  -0.203077  -0.025272   0.391335
   54  H 10  S   -0.002606   0.037046  -0.007101   0.025244  -0.131139
   55  H 10  S   -0.731158   0.510684   0.690771  -0.021044   0.255444

                     31         32         33         34         35
                    0.8725     0.9372     0.9611     0.9765     0.9948
                     A          A          A          A          A   
    1  C  1  S    0.002363   0.028164  -0.002678   0.007625   0.002131
    2  C  1  S    0.011229  -0.122956  -0.057433   0.005070   0.012359
    3  C  1  X    0.019735  -0.644915  -0.050556  -0.339089  -0.019400
    4  C  1  Y   -0.108542   0.147157   0.061279  -0.164553  -0.416281
    5  C  1  Z    0.258279   0.020685   0.102118  -0.013964  -0.219535
    6  C  1  S   -0.217510   0.548300   0.547133  -0.146947  -0.168496
    7  C  1  X   -0.095037   1.013350   0.345739   0.286113  -0.351498
    8  C  1  Y    0.245715  -0.255168  -0.386311   0.422761   0.990017
    9  C  1  Z   -0.258589  -0.034846  -0.287863   0.051524   0.486931
   10  H  2  S    0.347711   0.119989   0.126698   0.044632  -0.248011
   11  H  2  S   -0.102758   0.062110   0.037365  -0.074362  -0.146217
   12  C  3  S    0.000009  -0.003204  -0.010319   0.008232  -0.012306
   13  C  3  S   -0.019226   0.029577   0.056412  -0.026106  -0.027023
   14  C  3  X   -0.197259  -0.020968   0.371608  -0.085397   0.119639
   15  C  3  Y   -0.146478   0.457681  -0.227473   0.075899   0.479388
   16  C  3  Z    0.346214   0.032810   0.288176   0.411513   0.190319
   17  C  3  S    0.083009   0.136467  -0.146750   0.275112   0.461147
   18  C  3  X    0.244197   0.152629  -0.660391   0.310192   0.100487
   19  C  3  Y    0.189857  -0.457591   0.403909  -0.070071  -0.705268
   20  C  3  Z   -0.490174   0.014055  -0.436804  -0.641843  -0.232940
   21  C  4  S   -0.000726   0.024947   0.019164  -0.011254  -0.031154
   22  C  4  S   -0.028909  -0.147676  -0.111701   0.056530   0.123969
   23  C  4  X    0.157233  -0.575036  -0.582874   0.301422   0.240059
   24  C  4  Y   -0.026925   0.078788  -0.512803   0.368721  -0.696860
   25  C  4  Z    0.646669   0.244633  -0.322758  -0.648301   0.068565
   26  C  4  S    0.151695  -0.566407  -0.228471  -0.080365   0.405475
   27  C  4  X   -0.269842   0.929863   0.820110  -0.493770  -0.837365
   28  C  4  Y    0.039181  -0.277062   0.119475  -0.430127   0.397712
   29  C  4  Z   -0.536472  -0.295279   0.381316   0.742837  -0.169935
   30  O  5  S    0.001408  -0.004086  -0.019528   0.005718  -0.014741
   31  O  5  S   -0.003389  -0.008410   0.032018  -0.027982   0.008375
   32  O  5  X    0.022847  -0.044056  -0.160436   0.131962   0.048429
   33  O  5  Y   -0.000066  -0.086864  -0.098639   0.035307  -0.078153
   34  O  5  Z    0.013641   0.010797  -0.022301  -0.072355  -0.001411
   35  O  5  S    0.039213  -0.079262  -0.149745   0.254167   0.163619
   36  O  5  X    0.032673  -0.144943  -0.157914   0.013715  -0.033270
   37  O  5  Y   -0.008622   0.013069  -0.068815   0.023731  -0.136546
   38  O  5  Z    0.068245   0.036700  -0.048805  -0.080495   0.028186
   39  O  6  S   -0.001638   0.005467   0.014684  -0.005768   0.026669
   40  O  6  S    0.006137  -0.024449  -0.010905   0.012267  -0.031377
   41  O  6  X    0.002638   0.046360  -0.062826   0.036582   0.040484
   42  O  6  Y    0.005652   0.046237  -0.090390   0.066605  -0.164405
   43  O  6  Z    0.032429   0.020423  -0.028713  -0.010644   0.029954
   44  O  6  S   -0.004270  -0.054873  -0.023164  -0.106780  -0.002271
   45  O  6  X    0.029666  -0.106455  -0.110063   0.067113   0.113829
   46  O  6  Y   -0.010126   0.046101  -0.145634   0.061290  -0.223709
   47  O  6  Z    0.065352   0.040785  -0.061217  -0.107266   0.019055
   48  H  7  S   -0.391147   0.021019  -0.255038  -0.331800  -0.069230
   49  H  7  S    0.083576  -0.007740  -0.007271   0.022542  -0.072361
   50  H  8  S    0.161328  -0.281296   0.318077  -0.001154  -0.258643
   51  H  8  S   -0.049556   0.068573   0.059463  -0.073535  -0.086089
   52  H  9  S   -0.303672   0.134209  -0.177256  -0.020974  -0.166464
   53  H  9  S    0.075394   0.007114   0.132113  -0.066685  -0.202657
   54  H 10  S    0.248234   0.197098  -0.154789   0.333858  -0.086730
   55  H 10  S   -0.097096  -0.008301  -0.042480  -0.018266   0.075516

                     36         37         38         39         40
                    1.0395     1.0414     1.1450     1.2345     1.2525
                     A          A          A          A          A   
    1  C  1  S   -0.052629   0.006453   0.003614   0.036545   0.017633
    2  C  1  S    0.132585   0.048678  -0.003963  -0.028973   0.032733
    3  C  1  X   -0.355151  -0.408997  -0.430558   0.067930   0.427812
    4  C  1  Y   -0.468758   0.441536   0.084284  -0.672584   0.316728
    5  C  1  Z   -0.240702   0.282933  -0.677785   0.085373  -0.558286
    6  C  1  S   -0.302335  -0.673411   0.110211   0.262754  -0.157875
    7  C  1  X    0.523370   0.251542   1.086266   0.160864  -1.352681
    8  C  1  Y    0.955058  -0.820859  -0.443340   0.940824  -1.058804
    9  C  1  Z    0.463318  -0.618995   1.381206  -0.583318   1.102555
   10  H  2  S   -0.257004   0.256325   0.001606   0.588516   0.328162
   11  H  2  S   -0.154808   0.190722  -0.445580  -0.195715  -0.780327
   12  C  3  S    0.048594   0.020752   0.015546   0.045085   0.032129
   13  C  3  S   -0.147915   0.006604  -0.040345   0.032981   0.050600
   14  C  3  X   -0.530112  -0.129045   0.390933   0.171426  -0.390317
   15  C  3  Y   -0.462269  -0.140591  -0.346491   0.146268   0.123542
   16  C  3  Z   -0.218809  -0.282494   0.197218  -0.160468   0.453937
   17  C  3  S    0.355755  -0.386519   0.427075   0.003625  -0.778754
   18  C  3  X    0.972474   0.006637  -0.746095  -0.037753   0.809298
   19  C  3  Y    0.646754   0.270164   1.067754  -0.052366  -0.366045
   20  C  3  Z    0.378175   0.446185  -0.469505   0.673834  -1.174635
   21  C  4  S    0.030868  -0.041407  -0.015499  -0.035382  -0.005214
   22  C  4  S   -0.317355   0.290656   0.310507   0.557636  -0.075940
   23  C  4  X   -0.209220   0.347546   0.193494  -0.145893  -0.145188
   24  C  4  Y   -0.170111  -0.565541   0.110431   0.031776  -0.204092
   25  C  4  Z   -0.042549  -0.129290   0.294565  -0.027382  -0.080822
   26  C  4  S    0.251223  -0.376568  -0.898195  -0.498535   0.638654
   27  C  4  X    0.286266  -0.464792  -0.129754   0.025882   0.329512
   28  C  4  Y   -0.017510   1.038929  -0.521768  -0.362473   1.474667
   29  C  4  Z   -0.024491   0.304987  -0.717752   0.164160   0.010419
   30  O  5  S    0.002564   0.005320  -0.008542  -0.009124   0.031877
   31  O  5  S   -0.021149  -0.004377  -0.007682   0.010072  -0.029534
   32  O  5  X   -0.022035   0.086099   0.118828   0.022301  -0.132141
   33  O  5  Y   -0.100884  -0.058188   0.028541   0.106729  -0.032931
   34  O  5  Z   -0.025655  -0.015109   0.091544  -0.032978   0.010301
   35  O  5  S   -0.111256  -0.100290   0.361248   0.215291  -0.700272
   36  O  5  X   -0.051906   0.095124  -0.126543  -0.074996   0.309786
   37  O  5  Y    0.012726  -0.082182  -0.037649  -0.085073   0.080499
   38  O  5  Z    0.015401  -0.043059   0.058203  -0.008889  -0.002195
   39  O  6  S    0.006876   0.002131   0.005732   0.001160  -0.025373
   40  O  6  S   -0.007030  -0.040324  -0.006315   0.016890   0.012215
   41  O  6  X    0.005005   0.127170   0.010551  -0.099335   0.073348
   42  O  6  Y    0.031952  -0.180319  -0.023587  -0.055469  -0.042411
   43  O  6  Z    0.014780  -0.047875   0.040776  -0.026866   0.025911
   44  O  6  S   -0.086729   0.492968  -0.102238  -0.065977   0.589562
   45  O  6  X   -0.055280   0.069322   0.042869   0.016533  -0.103708
   46  O  6  Y   -0.053153   0.015769  -0.002332  -0.032485   0.164774
   47  O  6  Z    0.004568  -0.034991   0.093147  -0.018330  -0.001219
   48  H  7  S    0.202478   0.129326   0.024852   0.382702   0.324294
   49  H  7  S    0.102799   0.138904  -0.270072   0.188514  -0.650899
   50  H  8  S    0.089763   0.073683   0.257570   0.356489   0.090034
   51  H  8  S    0.089373   0.123760   0.380575  -0.171810  -0.059246
   52  H  9  S   -0.259627   0.134455   0.228802   0.363747   0.161369
   53  H  9  S   -0.169155   0.136691   0.345950  -0.771847   0.707570
   54  H 10  S    0.182957   0.185918  -0.108815   0.309995   0.335447
   55  H 10  S    0.204121  -0.118768  -0.221542  -0.290766   0.558344

                     41         42         43         44         45
                    1.3160     1.3465     1.3605     1.3917     1.5771
                     A          A          A          A          A   
    1  C  1  S   -0.009052   0.011873  -0.004627   0.056895   0.050837
    2  C  1  S   -0.025432  -0.092378   0.064579  -0.323827  -0.380005
    3  C  1  X    0.080804  -0.169826   0.086633   0.108883   0.001026
    4  C  1  Y    0.174550  -0.028932   0.032523  -0.257298  -0.111283
    5  C  1  Z   -0.505192  -0.133644  -0.089952  -0.163600  -0.022747
    6  C  1  S    0.125500   0.094631  -0.076470   0.156273   0.001187
    7  C  1  X    0.032027   0.549874  -0.437013  -0.095199  -0.612831
    8  C  1  Y    0.182142   0.166165  -0.410862   0.348648   0.450444
    9  C  1  Z    0.387186   0.095313   0.578776   0.465896  -0.113904
   10  H  2  S    0.552269   0.362374  -0.449046   0.352991   0.383788
   11  H  2  S   -0.861960  -0.391944   0.135780  -0.628295  -0.489385
   12  C  3  S   -0.009243  -0.033407   0.015198  -0.074583   0.019050
   13  C  3  S   -0.003913   0.086746  -0.001272   0.288717  -0.297159
   14  C  3  X    0.189215  -0.599091  -0.066838  -0.138901   0.255160
   15  C  3  Y    0.116198   0.320929   0.299095  -0.414779   0.095114
   16  C  3  Z   -0.550442  -0.026907  -0.420471  -0.174758  -0.071407
   17  C  3  S    0.161111   0.138821  -0.183049  -0.350638   0.553608
   18  C  3  X   -0.119144   0.670024   0.136984   0.444381  -0.545012
   19  C  3  Y   -0.271581  -0.235268  -0.323853   0.580049  -0.238437
   20  C  3  Z    0.897941   0.219055   0.038644   0.093609   0.274509
   21  C  4  S   -0.005492  -0.001114  -0.000155  -0.005180   0.014925
   22  C  4  S    0.074511   0.084699  -0.096367   0.026111  -1.270691
   23  C  4  X   -0.016385   0.035568  -0.042251  -0.082688   0.338746
   24  C  4  Y    0.079186   0.065893  -0.070470  -0.134794  -0.050072
   25  C  4  Z   -0.096993  -0.056643   0.061215  -0.036503  -0.012240
   26  C  4  S   -0.059858  -0.383105   0.284199   0.134792   2.270994
   27  C  4  X   -0.086355   0.037086   0.102645   0.161479  -0.861135
   28  C  4  Y   -0.471299  -0.367950   0.571719   0.551369  -0.068038
   29  C  4  Z    0.126612   0.087447  -0.225323  -0.006667   0.065307
   30  O  5  S   -0.008268  -0.005710   0.012670   0.015279   0.008420
   31  O  5  S    0.003549   0.001486  -0.017468  -0.037031  -0.018839
   32  O  5  X    0.045907   0.045309  -0.073883  -0.003492   0.078322
   33  O  5  Y    0.003081   0.017927  -0.002208  -0.036765  -0.368914
   34  O  5  Z   -0.010074  -0.038000   0.053372  -0.040671  -0.027183
   35  O  5  S    0.200809   0.167927  -0.265526  -0.245723  -0.141850
   36  O  5  X   -0.108612  -0.088312   0.144872   0.085301   0.021723
   37  O  5  Y   -0.007252  -0.019360   0.019957   0.037576   0.365083
   38  O  5  Z   -0.014160   0.011752  -0.001134   0.033277   0.014809
   39  O  6  S    0.012516   0.000976  -0.023644  -0.001164   0.018613
   40  O  6  S   -0.018496  -0.001640   0.055385  -0.017090  -0.019534
   41  O  6  X   -0.027831  -0.023390  -0.040533   0.085504   0.061038
   42  O  6  Y   -0.005457  -0.061947  -0.055666   0.025283   0.157475
   43  O  6  Z   -0.067881  -0.008016   0.057505   0.035475  -0.066699
   44  O  6  S   -0.208544  -0.075314   0.241490   0.209697  -0.457162
   45  O  6  X    0.031417  -0.009774  -0.042067  -0.055033   0.048304
   46  O  6  Y   -0.067609   0.015696   0.093473   0.035272  -0.295512
   47  O  6  Z    0.008619  -0.013553   0.005633  -0.012556   0.032954
   48  H  7  S   -0.331772  -0.149271  -0.764999  -0.602229   0.148465
   49  H  7  S    0.795097   0.228800   0.852568   0.558459  -0.057375
   50  H  8  S   -0.100708   0.495538   0.670768  -0.698721   0.234079
   51  H  8  S   -0.229954  -0.850765  -0.788019   0.826324  -0.451816
   52  H  9  S   -0.828551  -0.048164   0.450463   0.594848   0.246056
   53  H  9  S    0.791685   0.055533  -0.067661  -0.626048  -0.525432
   54  H 10  S    0.265830  -0.982601   0.398482  -0.142315  -0.001315
   55  H 10  S   -0.521099   1.162130  -0.263909   0.221329  -0.455247

                     46         47         48         49         50
                    1.7421     1.8075     1.8203     1.9286     1.9583
                     A          A          A          A          A   
    1  C  1  S    0.000832   0.014040  -0.011448  -0.010591  -0.010735
    2  C  1  S   -0.024005  -0.045320   0.580803  -0.470049  -0.028023
    3  C  1  X   -0.005574  -0.190911   0.035416   0.083537   0.037281
    4  C  1  Y    0.067484  -0.106347   0.005501  -0.007868  -0.002472
    5  C  1  Z   -0.036390  -0.010576   0.019972   0.050227  -0.047335
    6  C  1  S   -0.022743  -0.344570  -0.624041   0.992291   0.316633
    7  C  1  X    0.081479   0.179908   0.099095   0.479801   0.096815
    8  C  1  Y   -0.187601   0.466035  -0.112591   0.109978  -0.153515
    9  C  1  Z    0.188131  -0.005178  -0.114441  -0.081907   0.377701
   10  H  2  S   -0.019246   0.074360  -0.024342  -0.039788  -0.166279
   11  H  2  S   -0.053088  -0.099473   0.316609  -0.087720  -0.009090
   12  C  3  S    0.002903  -0.005686  -0.006578  -0.004351   0.000960
   13  C  3  S   -0.230757  -0.034332   0.468607  -0.834287   0.069775
   14  C  3  X    0.069984   0.101187  -0.008345  -0.042981  -0.016859
   15  C  3  Y   -0.007589   0.011201   0.020138  -0.067209  -0.019461
   16  C  3  Z   -0.024378  -0.043671   0.002136   0.009697   0.055265
   17  C  3  S    0.413276   0.387477  -0.691506   1.387958  -0.149917
   18  C  3  X   -0.195290  -0.099058   0.088333   0.020189   0.031539
   19  C  3  Y    0.064957   0.071801   0.068898   0.080671   0.106048
   20  C  3  Z   -0.004637   0.261816   0.061985  -0.034194  -0.262537
   21  C  4  S    0.001001   0.007520   0.005546   0.005466   0.000698
   22  C  4  S   -0.003166  -0.011703   0.549378   0.260564   0.079103
   23  C  4  X    0.010694   0.240780   0.019517  -0.074131  -0.053837
   24  C  4  Y    0.009436   0.108885   0.101016   0.224727   0.069880
   25  C  4  Z    0.046407   0.001346   0.014140  -0.021930   0.085836
   26  C  4  S   -0.098059   0.463865   0.117452  -1.076932  -0.401671
   27  C  4  X    0.011231  -0.473493   0.342043   0.620733   0.294623
   28  C  4  Y    0.035549   0.249699  -0.421433  -0.284297  -0.025745
   29  C  4  Z   -0.293573   0.009299  -0.029972   0.147543  -0.648556
   30  O  5  S    0.000348   0.035597   0.032047   0.012745   0.003209
   31  O  5  S   -0.003444  -0.160656  -0.128209  -0.099634  -0.024990
   32  O  5  X   -0.044759  -0.921698  -0.145678  -0.016721   0.058215
   33  O  5  Y    0.057573   0.086408  -0.816956  -0.393009  -0.093011
   34  O  5  Z   -0.909622   0.025842  -0.071797   0.152071  -0.408256
   35  O  5  S    0.005185  -0.011014  -0.022692   0.124201   0.004422
   36  O  5  X    0.049374   1.186538   0.185907  -0.059337  -0.098079
   37  O  5  Y   -0.066383  -0.082779   1.063632   0.496483   0.128050
   38  O  5  Z    0.976504  -0.029482   0.083559  -0.197404   0.578124
   39  O  6  S   -0.004437  -0.013826   0.034863  -0.029902  -0.012274
   40  O  6  S    0.014016   0.065383  -0.110134   0.112586   0.047132
   41  O  6  X    0.000162   0.281548  -0.094092  -0.039764   0.048059
   42  O  6  Y   -0.052294  -0.036203   0.255243  -0.750764  -0.235630
   43  O  6  Z    0.433645  -0.074825   0.062779   0.169929  -0.905540
   44  O  6  S    0.031161   0.030890  -0.244264   0.081569   0.048069
   45  O  6  X   -0.001426  -0.211941   0.045483  -0.061471  -0.094494
   46  O  6  Y    0.067014   0.069039  -0.429911   0.923376   0.310756
   47  O  6  Z   -0.324857   0.069750  -0.060115  -0.191399   1.031189
   48  H  7  S    0.003666   0.014721  -0.004542  -0.046295  -0.045420
   49  H  7  S   -0.107007   0.082232   0.209363  -0.337233  -0.075064
   50  H  8  S    0.020295   0.012922   0.029279  -0.151192   0.003129
   51  H  8  S   -0.043380  -0.080225   0.142784  -0.082749   0.135543
   52  H  9  S   -0.001348  -0.075703  -0.001728  -0.049093   0.061723
   53  H  9  S    0.169261  -0.113794   0.217427  -0.259760   0.041125
   54  H 10  S   -0.003035  -0.070246  -0.013307  -0.039155   0.033875
   55  H 10  S   -0.204527  -0.118508   0.217190  -0.280598   0.069685

                     51         52         53         54         55
                    2.0188     2.1071     2.3993     3.3492     3.5778
                     A          A          A          A          A   
    1  C  1  S    0.004856  -0.016280  -0.108317  -0.002590  -0.001550
    2  C  1  S   -0.692259  -0.257098  -1.897685   0.076195  -0.020810
    3  C  1  X   -0.055433   0.140426  -0.000992   0.021414   0.063395
    4  C  1  Y    0.126616   0.009309   0.030342  -0.017547   0.020649
    5  C  1  Z   -0.029061   0.037125   0.021632   0.024423  -0.019496
    6  C  1  S    0.720402   0.821248   5.234368  -0.184339   0.015095
    7  C  1  X    0.183510   0.668092   0.040522  -0.053311  -0.453985
    8  C  1  Y   -0.060209  -0.029526  -0.869165   0.139971  -0.558600
    9  C  1  Z    0.334747   0.028420  -0.332010  -0.138180   0.120257
   10  H  2  S   -0.067653  -0.076836  -0.434631  -0.008364  -0.026530
   11  H  2  S   -0.327724   0.006890  -0.363763   0.128137  -0.031312
   12  C  3  S   -0.002081  -0.020452   0.074338   0.005113   0.000143
   13  C  3  S   -0.792987  -1.174141   1.122884   0.109267  -0.062565
   14  C  3  X   -0.144055  -0.046119  -0.064609   0.057326  -0.063794
   15  C  3  Y   -0.029871   0.019620  -0.031521   0.011184  -0.009705
   16  C  3  Z    0.026151  -0.014428  -0.006323   0.002504   0.014854
   17  C  3  S    1.212090   2.335750  -3.376001  -0.139006  -0.177602
   18  C  3  X    0.215148   0.098131  -0.725579  -0.174998   0.136504
   19  C  3  Y    0.037592  -0.148219  -0.577636  -0.011987  -0.181416
   20  C  3  Z   -0.233097   0.010883  -0.360974   0.068371  -0.260699
   21  C  4  S    0.020333   0.017610   0.047863   0.022805   0.006972
   22  C  4  S    0.376801   0.622330   0.431803  -0.149215  -0.022923
   23  C  4  X    0.054577  -0.192632   0.044398  -0.122982   0.049564
   24  C  4  Y   -0.136636  -0.035815   0.023973  -0.022071   0.237161
   25  C  4  Z   -0.009311  -0.004429   0.020093   0.006555   0.001374
   26  C  4  S   -0.487101  -1.010720  -1.786611  -1.345743  -0.311393
   27  C  4  X   -0.201519   1.211066   1.174329  -1.027380   0.497055
   28  C  4  Y    0.166730  -0.424749  -0.463288  -0.249925   1.883437
   29  C  4  Z   -0.100502  -0.061851  -0.073269   0.024908   0.032915
   30  O  5  S   -0.000358   0.019117   0.001992   0.044583  -0.016249
   31  O  5  S   -0.014277  -0.134328  -0.045363  -1.517357   0.870041
   32  O  5  X   -0.216263   0.148434   0.048708   0.139672  -0.146555
   33  O  5  Y    0.011750  -0.051549  -0.097352   0.205279  -0.013950
   34  O  5  Z   -0.018557   0.010190  -0.025893   0.004214  -0.002082
   35  O  5  S    0.116462  -0.007234   0.114898   2.409251  -1.676868
   36  O  5  X    0.269909  -0.280957  -0.227715  -0.554339   0.612787
   37  O  5  Y   -0.082907   0.211500   0.217281  -0.760180   0.126704
   38  O  5  Z    0.037808  -0.001532   0.044886  -0.015854   0.002855
   39  O  6  S    0.013547   0.020487   0.002206   0.031684   0.042363
   40  O  6  S   -0.089836  -0.107941  -0.045667  -0.802285  -1.558956
   41  O  6  X   -0.718729   0.627492   0.161544  -0.097299   0.066638
   42  O  6  Y    0.356423   0.421429   0.052485  -0.140338  -0.225238
   43  O  6  Z   -0.147679  -0.062786   0.067104   0.004273  -0.011874
   44  O  6  S    0.183697   0.006902   0.108789   1.063182   2.659226
   45  O  6  X    0.826125  -0.914288  -0.355528   0.319360  -0.234242
   46  O  6  Y   -0.397927  -0.558984  -0.001958   0.473557   0.911087
   47  O  6  Z    0.170645   0.072093  -0.073599  -0.004397   0.038078
   48  H  7  S   -0.063760  -0.152786   0.256303   0.020841  -0.046709
   49  H  7  S   -0.395891  -0.364952   0.238740   0.060118  -0.071160
   50  H  8  S   -0.135304   0.055992   0.333568   0.050152   0.039221
   51  H  8  S   -0.075357  -0.872915   0.217075  -0.023123  -0.127021
   52  H  9  S    0.021535  -0.026948  -0.358910  -0.012773   0.104515
   53  H  9  S   -0.110532  -0.093945  -0.450042  -0.065581   0.134618
   54  H 10  S   -0.009227  -0.120722   0.218214  -0.010040   0.060360
   55  H 10  S   -0.123080  -0.337967   0.302615  -0.070912   0.108275

  ----- BETA SET ----- 

          ------------
          EIGENVECTORS
          ------------

                      1          2          3          4          5
                  -20.5761   -20.4602   -11.3641   -11.2198   -11.1749
                     A          A          A          A          A   
    1  C  1  S    0.000033   0.000067  -0.001164   0.988015   0.002455
    2  C  1  S   -0.000211   0.000189  -0.002152   0.104058  -0.001635
    3  C  1  X    0.000141  -0.000870   0.000029   0.000528  -0.000203
    4  C  1  Y    0.000485  -0.000312   0.000225  -0.000340  -0.000124
    5  C  1  Z   -0.000311   0.000065   0.000063   0.000100   0.000007
    6  C  1  S    0.000196  -0.000394   0.015378  -0.090868   0.017424
    7  C  1  X   -0.003736   0.006146   0.012162  -0.002111  -0.008252
    8  C  1  Y   -0.006297   0.007181  -0.004509   0.007314  -0.006630
    9  C  1  Z    0.002201  -0.000286  -0.000063   0.001518  -0.004291
   10  H  2  S    0.000076   0.000316  -0.001516   0.001175  -0.001115
   11  H  2  S   -0.001432  -0.000353   0.002165   0.014364   0.001121
   12  C  3  S   -0.000068  -0.000018  -0.001083  -0.003190   0.987496
   13  C  3  S   -0.000715   0.000097  -0.001484  -0.002859   0.101479
   14  C  3  X   -0.000957   0.000444  -0.001164   0.000361   0.000438
   15  C  3  Y   -0.000125   0.000038  -0.000275   0.000264   0.000193
   16  C  3  Z    0.000109  -0.000173   0.000117   0.000041  -0.000022
   17  C  3  S   -0.001880   0.003408   0.001839   0.022122  -0.079732
   18  C  3  X    0.002916  -0.000334   0.002821   0.009438  -0.004839
   19  C  3  Y   -0.001111   0.003026   0.001611   0.007549  -0.002192
   20  C  3  Z   -0.002747   0.002884  -0.000972   0.004809  -0.000903
   21  C  4  S   -0.000082  -0.000092   0.986548   0.000287   0.000876
   22  C  4  S    0.000387   0.000270   0.094001  -0.002585  -0.001107
   23  C  4  X    0.001489   0.000199   0.000236  -0.000573   0.000761
   24  C  4  Y    0.001318  -0.001972   0.000855   0.000163   0.000039
   25  C  4  Z   -0.000052  -0.000036   0.000109   0.000016   0.000198
   26  C  4  S    0.018354   0.016016  -0.042605   0.021749   0.000700
   27  C  4  X    0.016409  -0.000184   0.015858  -0.013605  -0.002534
   28  C  4  Y    0.018707  -0.024754  -0.005900   0.003477  -0.000905
   29  C  4  Z    0.000108  -0.000727  -0.001205   0.000583  -0.000168
   30  O  5  S    0.984058   0.001779   0.000119  -0.000013  -0.000065
   31  O  5  S    0.098338  -0.000795   0.001208  -0.000394  -0.000635
   32  O  5  X   -0.003329   0.000578   0.000391   0.000115   0.000134
   33  O  5  Y   -0.003085  -0.000624  -0.000418   0.000225   0.000023
   34  O  5  Z   -0.000051  -0.000009  -0.000047  -0.000014  -0.000089
   35  O  5  S   -0.054194   0.005635  -0.000695   0.000367   0.002247
   36  O  5  X    0.011561  -0.003800   0.000947   0.001015  -0.000732
   37  O  5  Y    0.010209   0.003000   0.005257  -0.000957  -0.000401
   38  O  5  Z    0.000171   0.000098   0.000308  -0.000003   0.000282
   39  O  6  S   -0.002006   0.983721   0.000095   0.000042   0.000041
   40  O  6  S   -0.001156   0.099186   0.000988   0.000063   0.000303
   41  O  6  X    0.000769  -0.000241   0.000478  -0.000094  -0.000117
   42  O  6  Y   -0.000012   0.004565   0.000038  -0.000240  -0.000228
   43  O  6  Z   -0.000042   0.000129  -0.000071  -0.000105   0.000118
   44  O  6  S    0.005835  -0.053253   0.000345  -0.001836  -0.001369
   45  O  6  X   -0.004555   0.001066  -0.002973   0.001706   0.001082
   46  O  6  Y    0.000698  -0.014948  -0.003606  -0.000575   0.000456
   47  O  6  Z    0.000187  -0.000414   0.000222   0.000227  -0.000285
   48  H  7  S   -0.000319   0.000314  -0.000394  -0.001350   0.000310
   49  H  7  S   -0.001078   0.000652  -0.000833   0.001067   0.014243
   50  H  8  S   -0.000367  -0.000790  -0.000594  -0.001565   0.000301
   51  H  8  S    0.000352   0.002412   0.001167   0.000201   0.015048
   52  H  9  S    0.000843  -0.000997  -0.001231   0.000637  -0.001173
   53  H  9  S    0.002448  -0.001494   0.002074   0.014046   0.000504
   54  H 10  S    0.000525  -0.000502  -0.000028  -0.001056  -0.000044
   55  H 10  S    0.002085  -0.001080   0.001946   0.000317   0.013202

                      6          7          8          9         10
                   -1.4422    -1.3316    -1.0573    -0.8884    -0.7599
                     A          A          A          A          A   
    1  C  1  S   -0.019911  -0.004962  -0.167280   0.098530  -0.059430
    2  C  1  S    0.019337   0.003443   0.156098  -0.084459   0.049070
    3  C  1  X    0.021496  -0.000675  -0.024444  -0.098963  -0.076963
    4  C  1  Y   -0.007129  -0.010309  -0.028846  -0.070887   0.079052
    5  C  1  Z   -0.001169  -0.001128  -0.012018  -0.042698   0.033440
    6  C  1  S    0.027406   0.011106   0.465555  -0.358874   0.254515
    7  C  1  X   -0.008189  -0.021656   0.011036  -0.027502  -0.012845
    8  C  1  Y    0.007221  -0.034090  -0.012934  -0.027603   0.028365
    9  C  1  Z   -0.003031   0.005715   0.000421  -0.014953   0.031182
   10  H  2  S    0.005991   0.001107   0.084920  -0.078996   0.074614
   11  H  2  S   -0.003426  -0.003688  -0.001446  -0.020769   0.042047
   12  C  3  S   -0.003647  -0.005806  -0.136031  -0.155490   0.030760
   13  C  3  S    0.007288   0.005206   0.134323   0.139786  -0.029418
   14  C  3  X    0.006686   0.002044   0.042883  -0.046862   0.014825
   15  C  3  Y    0.001094  -0.000812   0.034294  -0.043882   0.049134
   16  C  3  Z    0.001094   0.002172   0.018666  -0.024905   0.030102
   17  C  3  S    0.000010  -0.006410   0.342887   0.526042  -0.130292
   18  C  3  X   -0.011322   0.010312   0.003361   0.005018   0.018182
   19  C  3  Y   -0.003681  -0.005612  -0.000333  -0.006655   0.035886
   20  C  3  Z    0.001525  -0.013707   0.001184  -0.006659   0.008900
   21  C  4  S   -0.140455  -0.024935  -0.027902   0.063945   0.124908
   22  C  4  S    0.168322   0.025950   0.040303  -0.078772  -0.165722
   23  C  4  X    0.092481  -0.071569  -0.101418   0.097944  -0.074978
   24  C  4  Y    0.017043  -0.209302   0.047377  -0.056921  -0.067311
   25  C  4  Z   -0.000438  -0.004760   0.003591  -0.015781   0.008373
   26  C  4  S    0.137512   0.040412   0.033692  -0.151097  -0.316340
   27  C  4  X   -0.050693   0.019548  -0.015099   0.065185   0.074676
   28  C  4  Y    0.005387   0.045770   0.024594  -0.050325  -0.028678
   29  C  4  Z    0.002323   0.000713   0.001596  -0.010840   0.001262
   30  O  5  S   -0.168573   0.133371   0.027540  -0.050186  -0.104275
   31  O  5  S    0.159217  -0.126284  -0.025546   0.048107   0.102438
   32  O  5  X   -0.079329   0.050721  -0.011996   0.052932   0.216287
   33  O  5  Y   -0.077585   0.039317   0.007841   0.024078   0.222868
   34  O  5  Z   -0.000665   0.000138   0.001040  -0.006479   0.010198
   35  O  5  S    0.527191  -0.451574  -0.104634   0.197891   0.409338
   36  O  5  X   -0.082400   0.065624  -0.004763   0.039096   0.205801
   37  O  5  Y   -0.092398   0.040692   0.009317   0.024326   0.234283
   38  O  5  Z   -0.001372   0.000068   0.000168  -0.005128   0.011289
   39  O  6  S   -0.110288  -0.187794   0.034895  -0.026538  -0.066278
   40  O  6  S    0.102743   0.176616  -0.035199   0.027346   0.063824
   41  O  6  X    0.001206  -0.014750  -0.026729   0.019481  -0.005031
   42  O  6  Y    0.065994   0.081074  -0.000144  -0.028252  -0.112432
   43  O  6  Z    0.001966   0.002379   0.000161  -0.007427   0.002940
   44  O  6  S    0.332436   0.609198  -0.111795   0.091540   0.270962
   45  O  6  X    0.013105  -0.018620  -0.023123   0.007243  -0.021497
   46  O  6  Y    0.078540   0.100744  -0.003400  -0.027795  -0.103770
   47  O  6  Z    0.001613   0.003304  -0.000444  -0.005694   0.004286
   48  H  7  S    0.001843   0.001013   0.064682   0.105834  -0.037172
   49  H  7  S    0.001326  -0.004933  -0.000807   0.028906  -0.022712
   50  H  8  S    0.006005   0.006173   0.067537   0.097373  -0.037124
   51  H  8  S   -0.001589   0.009045  -0.009065   0.022716   0.010499
   52  H  9  S    0.006825   0.002429   0.083761  -0.080412   0.072642
   53  H  9  S   -0.008214   0.006191   0.000709  -0.018263   0.057241
   54  H 10  S    0.000623   0.003151   0.062256   0.108217  -0.020491
   55  H 10  S   -0.006693   0.008454  -0.000560   0.037973   0.000560

                     11         12         13         14         15
                   -0.6862    -0.6721    -0.6204    -0.6121    -0.5560
                     A          A          A          A          A   
    1  C  1  S   -0.027264   0.005586   0.011463   0.002212  -0.036369
    2  C  1  S    0.021593  -0.004696  -0.009428  -0.001972   0.029100
    3  C  1  X   -0.126915  -0.021345   0.111983   0.018013  -0.180551
    4  C  1  Y    0.167873  -0.056259   0.026388   0.094581  -0.152463
    5  C  1  Z    0.013911   0.192777  -0.080791  -0.175099  -0.078590
    6  C  1  S    0.158722  -0.020338  -0.074603  -0.008386   0.190075
    7  C  1  X   -0.050157  -0.016982   0.105508   0.006888  -0.133089
    8  C  1  Y    0.130781  -0.037237   0.057988   0.075828  -0.146771
    9  C  1  Z   -0.000282   0.143660  -0.068843  -0.171172  -0.076993
   10  H  2  S    0.062003   0.111787  -0.073400  -0.107855  -0.021878
   11  H  2  S    0.048911   0.089529  -0.057169  -0.076265  -0.025485
   12  C  3  S   -0.004379  -0.006643  -0.001251  -0.001906  -0.003152
   13  C  3  S    0.005282   0.005208   0.000826   0.000231   0.003965
   14  C  3  X   -0.092814  -0.039813   0.047105  -0.024685   0.337189
   15  C  3  Y    0.087820  -0.035889  -0.084021   0.091666   0.043128
   16  C  3  Z   -0.001588   0.089070  -0.095773  -0.183766   0.017927
   17  C  3  S    0.007799   0.030680   0.017087   0.010684  -0.021322
   18  C  3  X   -0.075474  -0.027145   0.051181  -0.020108   0.264137
   19  C  3  Y    0.070289  -0.023997  -0.034981   0.063425  -0.003450
   20  C  3  Z    0.004897   0.064648  -0.062836  -0.137373  -0.001364
   21  C  4  S    0.037808  -0.002363   0.030509  -0.020579   0.027838
   22  C  4  S   -0.031822   0.004340  -0.052918   0.027950  -0.017933
   23  C  4  X    0.263521   0.032566  -0.074308  -0.015259   0.142181
   24  C  4  Y    0.074769  -0.018972   0.288101  -0.143677  -0.035833
   25  C  4  Z   -0.003549   0.216757   0.071091   0.099758   0.005758
   26  C  4  S   -0.182967   0.002039  -0.053727   0.066161  -0.150573
   27  C  4  X    0.189608   0.013784  -0.099047   0.017372   0.149553
   28  C  4  Y   -0.056315  -0.021039   0.084279  -0.022780  -0.072031
   29  C  4  Z   -0.006208   0.203094   0.071640   0.120838   0.014268
   30  O  5  S    0.040657   0.002153   0.013821  -0.008140  -0.000819
   31  O  5  S   -0.035947  -0.002408  -0.014547   0.009008   0.001918
[...]
   24  C  4  Y   -0.165261  -0.020001   0.025749   0.002453   0.237157
   25  C  4  Z   -0.016462  -0.003291   0.020301   0.006546   0.000712
   26  C  4  S   -0.311469  -0.975195  -1.796116  -1.363551  -0.175404
   27  C  4  X   -0.298557   1.267927   1.199060  -0.959709   0.580757
   28  C  4  Y    0.276894  -0.467812  -0.474371  -0.048418   1.897001
   29  C  4  Z   -0.037815  -0.060170  -0.075161   0.027738   0.030834
   30  O  5  S    0.002933   0.018777   0.002164   0.044567  -0.021793
   31  O  5  S   -0.026074  -0.121438  -0.044175  -1.426701   1.018758
   32  O  5  X   -0.447699   0.262237   0.072621   0.119233  -0.163700
   33  O  5  Y    0.304659  -0.157602  -0.122242   0.204864  -0.028685
   34  O  5  Z    0.019866   0.006737  -0.028055   0.004069  -0.002320
   35  O  5  S    0.081241  -0.033088   0.109535   2.213764  -1.897358
   36  O  5  X    0.509312  -0.389835  -0.249347  -0.479869   0.665364
   37  O  5  Y   -0.367881   0.321901   0.241869  -0.739465   0.192195
   38  O  5  Z   -0.015471   0.001853   0.047101  -0.015400   0.004078
   39  O  6  S    0.012028   0.021570   0.002895   0.035531   0.038870
   40  O  6  S   -0.079321  -0.115040  -0.051555  -0.952892  -1.470539
   41  O  6  X   -0.483165   0.629580   0.164728  -0.087180   0.073331
   42  O  6  Y    0.497580   0.382070   0.051768  -0.163021  -0.212067
   43  O  6  Z   -0.064814  -0.057754   0.064891   0.002554  -0.012210
   44  O  6  S    0.196810  -0.013351   0.109478   1.326656   2.539349
   45  O  6  X    0.585492  -0.928547  -0.363732   0.287860  -0.258694
   46  O  6  Y   -0.554163  -0.516819  -0.002191   0.562637   0.861069
   47  O  6  Z    0.075165   0.067322  -0.071286   0.000077   0.038100
   48  H  7  S   -0.056091  -0.153438   0.254124   0.015064  -0.048154
   49  H  7  S   -0.328878  -0.350097   0.234226   0.051115  -0.075797
   50  H  8  S   -0.085563   0.053980   0.333296   0.053263   0.033610
   51  H  8  S   -0.196515  -0.849912   0.210207  -0.037506  -0.122165
   52  H  9  S   -0.012674  -0.012229  -0.356007  -0.001657   0.105234
   53  H  9  S   -0.109747  -0.075376  -0.450274  -0.050986   0.140633
   54  H 10  S   -0.027253  -0.118427   0.217231  -0.003689   0.060705
   55  H 10  S   -0.144566  -0.323135   0.299937  -0.059154   0.114113
 ...... END OF UHF CALCULATION ......
 CPU     0: STEP CPU TIME=     0.50 TOTAL CPU TIME=          0.6 (      0.0 MIN)
 TOTAL WALL CLOCK TIME=          0.6 SECONDS, CPU UTILIZATION IS    93.33%

     ----------------------------------------------------------------
     PROPERTY VALUES FOR THE UHF   SELF-CONSISTENT FIELD WAVEFUNCTION
     ----------------------------------------------------------------

          -----------------
          ENERGY COMPONENTS
          -----------------

         WAVEFUNCTION NORMALIZATION =       1.0000000000

                ONE ELECTRON ENERGY =    -691.2113404849
                TWO ELECTRON ENERGY =     259.7588935679
           NUCLEAR REPULSION ENERGY =     166.7478200826
                                      ------------------
                       TOTAL ENERGY =    -264.7046268344

 ELECTRON-ELECTRON POTENTIAL ENERGY =     259.7588935679
  NUCLEUS-ELECTRON POTENTIAL ENERGY =    -955.0041722553
   NUCLEUS-NUCLEUS POTENTIAL ENERGY =     166.7478200826
                                      ------------------
             TOTAL POTENTIAL ENERGY =    -528.4974586048
               TOTAL KINETIC ENERGY =     263.7928317704
                 VIRIAL RATIO (V/T) =       2.0034564816

          ---------------------------------------
          MULLIKEN AND LOWDIN POPULATION ANALYSES
          ---------------------------------------

     ATOMIC MULLIKEN POPULATION IN EACH MOLECULAR ORBITAL
        ALPHA ORBITALS

                      1          2          3          4          5

                  1.000000   1.000000   1.000000   1.000000   1.000000

    1            -0.000045  -0.000018   0.001895   0.992424   0.002070
    2            -0.000001  -0.000000   0.000023   0.001441   0.000013
    3             0.000000  -0.000000   0.000036   0.002432   0.993671
    4             0.003382   0.003228   0.999005   0.002283   0.000032
    5             0.996658   0.000003  -0.000576  -0.000001   0.000000
    6             0.000001   0.996770  -0.000407  -0.000003  -0.000000
    7            -0.000000   0.000000  -0.000000   0.000011   0.001413
    8            -0.000000   0.000017   0.000005   0.000003   0.001496
    9             0.000005  -0.000000   0.000021   0.001408   0.000005
   10             0.000000  -0.000000  -0.000000   0.000003   0.001300

                      6          7          8          9         10

                  1.000000   1.000000   1.000000   1.000000   1.000000

    1             0.005289   0.007923   0.525490   0.161523   0.090135
    2             0.000019  -0.000230   0.021806   0.012926   0.022468
    3            -0.000339   0.000183   0.291399   0.406795   0.055622
    4             0.091256   0.128691   0.068277   0.139238   0.141621
    5             0.865486   0.073612   0.017475   0.118956   0.575267
    6             0.039157   0.788481   0.022533   0.015141   0.071097
    7             0.000037  -0.000131   0.011416   0.042962   0.010778
    8            -0.000088   0.001218   0.009261   0.037014   0.003653
    9            -0.000769   0.000123   0.022324   0.014350   0.023278
   10            -0.000048   0.000130   0.010020   0.051094   0.006081

                     11         12         13         14         15

                  1.000000   1.000000   1.000000   1.000000   1.000000

    1             0.096539   0.076673   0.164493   0.325061   0.056932
    2             0.026453   0.015873   0.015382   0.096944   0.009863
    3             0.027738   0.016515   0.054673   0.195044   0.226319
    4             0.098349   0.218136   0.204119   0.007399   0.073703
    5             0.658616   0.582082   0.151860   0.149405   0.127433
    6             0.063578   0.054499   0.346426   0.016250   0.331771
    7             0.004591   0.002293   0.000809   0.086586   0.000102
    8             0.012485   0.003026   0.007307   0.022510   0.063205
    9             0.010956   0.028339   0.039925   0.085639   0.002067
   10             0.000695   0.002566   0.015005   0.015161   0.108606

                     16         17         18         19         20

                  1.000000   1.000000   1.000000   1.000000   1.000000

    1             0.353192   0.138935   0.124921   0.028195   0.172694
    2             0.011103   0.099888   0.000127   0.020283   0.010589
    3             0.322692   0.320189   0.359688   0.009598   0.016408
    4             0.051580   0.028786   0.058253   0.144682   0.058192
    5             0.091185   0.042469   0.030841   0.140396   0.048845
    6             0.066906   0.069099   0.106202   0.633865   0.670770
    7             0.028398   0.159017   0.038945   0.004066   0.002086
    8             0.014084   0.000838   0.181528   0.003594   0.002619
    9             0.014280   0.016482   0.087379   0.014250   0.014619
   10             0.046580   0.124296   0.012116   0.001071   0.003179

     ATOMIC MULLIKEN POPULATION IN EACH MOLECULAR ORBITAL
         BETA ORBITALS

                      1          2          3          4          5

                  1.000000   1.000000   1.000000   1.000000   1.000000

    1            -0.000045  -0.000018   0.001904   0.992437   0.002070
    2            -0.000001  -0.000000   0.000022   0.001440   0.000013
    3             0.000000  -0.000000   0.000036   0.002435   0.993671
    4             0.003361   0.003226   0.998980   0.002267   0.000032
    5             0.996678   0.000005  -0.000563  -0.000001   0.000000
    6             0.000002   0.996771  -0.000405  -0.000003  -0.000000
    7            -0.000000   0.000000  -0.000000   0.000011   0.001413
    8            -0.000000   0.000017   0.000005   0.000003   0.001496
    9             0.000005  -0.000000   0.000021   0.001408   0.000005
   10             0.000000  -0.000000  -0.000000   0.000003   0.001300

                      6          7          8          9         10

                  1.000000   1.000000   1.000000   1.000000   1.000000

    1             0.005766   0.006827   0.498843   0.216219   0.096365
    2            -0.000173  -0.000050   0.023110   0.025428   0.025974
    3            -0.000822   0.000606   0.332843   0.409613   0.032635
    4             0.214212   0.093604   0.053438   0.114922   0.158217
    5             0.544812   0.298399   0.011406   0.049700   0.531493
    6             0.236951   0.599522   0.019231   0.015256   0.116651
    7             0.000040  -0.000121   0.013641   0.048687   0.006678
    8            -0.000032   0.001204   0.011295   0.040464   0.002533
    9            -0.000672  -0.000136   0.023477   0.025451   0.028204
   10            -0.000083   0.000145   0.012715   0.054260   0.001251

                     11         12         13         14         15

                  1.000000   1.000000   1.000000   1.000000   1.000000

    1             0.191802   0.174565   0.089366   0.173936   0.222657
    2             0.018816   0.058705   0.023262   0.047396   0.002712
    3             0.080606   0.050230   0.069512   0.173953   0.411058
    4             0.239183   0.237373   0.194533   0.079760   0.077908
    5             0.172242   0.325097   0.110495   0.218415   0.038090
    6             0.206909   0.082873   0.452795   0.130017   0.027941
    7             0.000898   0.012431   0.016122   0.076602   0.004329
    8             0.022937   0.002893   0.024063   0.041457   0.010128
    9             0.049756   0.045445   0.003558   0.054999   0.005675
   10             0.016851   0.010388   0.016294   0.003465   0.199501

                     16         17         18         19

                  1.000000   1.000000   1.000000   1.000000

    1             0.221179   0.169652   0.011245   0.133708
    2             0.108818   0.018734   0.008366   0.009626
    3             0.366764   0.354668   0.003012   0.017592
    4             0.017179   0.020299   0.072440   0.057295
    5             0.025697   0.024688   0.251410   0.063173
    6             0.030355   0.032421   0.641416   0.701594
    7             0.118951   0.091173   0.000718   0.002279
    8             0.039896   0.160380   0.002187   0.002713
    9             0.000281   0.126513   0.008020   0.010846
   10             0.070879   0.001471   0.001187   0.001173

     ATOMIC SPIN POPULATION (ALPHA MINUS BETA)
       ATOM         MULL.POP.                    LOW.POP.
    1 C             0.115836                     0.088937
    2 H            -0.007229                    -0.004597
    3 C             0.000259                     0.002544
    4 C            -0.118010                    -0.064673
    5 O             1.008779                     0.978473
    6 O             0.001827                    -0.001372
    7 H            -0.000477                    -0.000262
    8 H             0.000134                     0.000608
    9 H            -0.008171                    -0.005266
   10 H             0.007051                     0.005609


          ********* ALL ELECTRONS ********

               ----- POPULATIONS IN EACH AO -----
                             MULLIKEN      LOWDIN
              1  C  1  S      1.98930     1.97639
              2  C  1  S      0.34370     0.41882
              3  C  1  X      0.47276     0.45762
              4  C  1  Y      0.55440     0.52885
              5  C  1  Z      0.55619     0.52733
              6  C  1  S      1.16066     0.58807
              7  C  1  X      0.35502     0.54180
              8  C  1  Y      0.51118     0.57421
              9  C  1  Z      0.58959     0.60329
             10  H  2  S      0.45551     0.46288
             11  H  2  S      0.28166     0.41655
             12  C  3  S      1.98814     1.97635
             13  C  3  S      0.35112     0.41246
             14  C  3  X      0.53017     0.50157
             15  C  3  Y      0.54062     0.51585
             16  C  3  Z      0.54188     0.51053
             17  C  3  S      1.12926     0.58624
             18  C  3  X      0.46838     0.56840
             19  C  3  Y      0.50338     0.59111
             20  C  3  Z      0.54413     0.60365
             21  C  4  S      1.98681     1.97646
             22  C  4  S      0.43801     0.44183
             23  C  4  X      0.56259     0.54026
             24  C  4  Y      0.61605     0.58438
             25  C  4  Z      0.31902     0.30535
             26  C  4  S      0.53601     0.52728
             27  C  4  X      0.25597     0.46025
             28  C  4  Y      0.01873     0.41352
             29  C  4  Z      0.42525     0.45503
             30  O  5  S      1.98770     1.98271
             31  O  5  S      0.44784     0.61335
             32  O  5  X      0.58772     0.58296
             33  O  5  Y      0.61114     0.60659
             34  O  5  Z      0.82756     0.83081
             35  O  5  S      1.57188     1.07487
             36  O  5  X      0.63004     0.66098
             37  O  5  Y      0.68600     0.69292
             38  O  5  Z      0.98136     0.96658
             39  O  6  S      1.98716     1.98196
             40  O  6  S      0.43084     0.59505
             41  O  6  X      0.83686     0.83928
             42  O  6  Y      0.58706     0.57445
             43  O  6  Z      0.60875     0.60582
             44  O  6  S      1.56152     1.08123
             45  O  6  X      0.98495     1.01378
             46  O  6  Y      0.73342     0.79863
             47  O  6  Z      0.85187     0.85780
             48  H  7  S      0.46364     0.46634
             49  H  7  S      0.32360     0.43751
             50  H  8  S      0.45366     0.45530
             51  H  8  S      0.27375     0.41784
             52  H  9  S      0.46388     0.47004
             53  H  9  S      0.29366     0.42557
             54  H 10  S      0.46161     0.46148
             55  H 10  S      0.32705     0.43981

          ----- MULLIKEN ATOMIC OVERLAP POPULATIONS -----
          (OFF-DIAGONAL ELEMENTS NEED TO BE MULTIPLIED BY 2)

             1           2           3           4           5

    1    5.6827271
    2    0.3700245   0.4568637
    3    0.2112102  -0.0360726   5.4038852
    4    0.1931872  -0.0349734  -0.0594779   4.4851350
    5   -0.0667241   0.0010200   0.0010382   0.1444823   8.2871109
    6   -0.0797159   0.0003028  -0.0068250   0.4731577  -0.0381044
    7   -0.0455864   0.0023671   0.3779181   0.0007275   0.0000100
    8   -0.0574746   0.0004703   0.3633414  -0.0062892   0.0002000
    9    0.3607656  -0.0204621  -0.0318777  -0.0401012   0.0022197
   10   -0.0356148  -0.0023739   0.3739357   0.0025910  -0.0000061

             6           7           8           9          10

    6    8.2095000
    7    0.0001875   0.5003897
    8    0.0223698  -0.0209906   0.4399744
    9    0.0013544  -0.0028528   0.0029357   0.4852608
   10    0.0002071  -0.0249355  -0.0171246   0.0002939   0.4916841

          TOTAL MULLIKEN AND LOWDIN ATOMIC POPULATIONS
       ATOM         MULL.POP.    CHARGE          LOW.POP.     CHARGE
    1 C             6.532799   -0.532799         6.216393   -0.216393
    2 H             0.737166    0.262834         0.879426    0.120574
    3 C             6.597075   -0.597075         6.266162   -0.266162
    4 C             5.158439    0.841561         5.704360    0.295640
    5 O             8.331247   -0.331247         8.011758   -0.011758
    6 O             8.582434   -0.582434         8.348003   -0.348003
    7 H             0.787235    0.212765         0.903852    0.096148
    8 H             0.727413    0.272587         0.873139    0.126861
    9 H             0.757536    0.242464         0.895615    0.104385
   10 H             0.788657    0.211343         0.901291    0.098709

          -------------------------------
          BOND ORDER AND VALENCE ANALYSIS     BOND ORDER THRESHOLD=0.050
          -------------------------------

                   BOND                       BOND                       BOND
  ATOM PAIR DIST  ORDER      ATOM PAIR DIST  ORDER      ATOM PAIR DIST  ORDER
    1   2  1.102  0.897        1   3  1.538  0.897        1   4  1.605  0.817
    1   9  1.096  0.898        3   7  1.099  0.927        3   8  1.098  0.879
    3  10  1.100  0.926        4   5  1.269  0.941        4   6  1.278  1.726
    5   6  2.308  0.108

                       TOTAL       BONDED        FREE
      ATOM            VALENCE     VALENCE     VALENCE
    1 C                 3.545       3.535       0.010
    2 H                 0.889       0.889       0.000
    3 C                 3.613       3.613       0.000
    4 C                 3.476       3.468       0.008
    5 O                 1.947       1.093       0.853
    6 O                 1.924       1.919       0.005
    7 H                 0.913       0.913       0.000
    8 H                 0.904       0.904       0.000
    9 H                 0.897       0.897       0.000
   10 H                 0.919       0.919       0.000

          -----------------------------------------
          ATOMIC SPIN DENSITY AT THE NUCLEUS (A.U.)
          -----------------------------------------
                            SPIN DENS    ALPHA DENS     BETA DENS
    1  C            6.0     0.0429737      47.06205      47.01908
    2  H            1.0    -0.0019205       0.17746       0.17938
    3  C            6.0     0.0030251      46.98307      46.98005
    4  C            6.0    -0.0683286      46.94795      47.01628
    5  O            8.0     0.2049413     117.18834     116.98340
    6  O            8.0    -0.0318360     116.94460     116.97644
    7  H            1.0    -0.0001095       0.18142       0.18153
    8  H            1.0     0.0005499       0.17800       0.17745
    9  H            1.0    -0.0024626       0.18063       0.18309
   10  H            1.0     0.0027405       0.18141       0.17867

          ---------------------
          ELECTROSTATIC MOMENTS
          ---------------------

 POINT   1           X           Y           Z (BOHR)    CHARGE
                 2.532419   -0.602818    0.071814       -0.00 (A.U.)
         DX          DY          DZ         /D/  (DEBYE)
    -1.838002    2.367385    0.203916    3.004054
 ...... END OF PROPERTY EVALUATION ......
 CPU     0: STEP CPU TIME=     0.02 TOTAL CPU TIME=          0.6 (      0.0 MIN)
 TOTAL WALL CLOCK TIME=          0.6 SECONDS, CPU UTILIZATION IS    93.55%
               580000  WORDS OF DYNAMIC MEMORY USED
 EXECUTION OF GAMESS TERMINATED NORMALLY Sat May 16 20:49:26 2020
 DDI: 263640 bytes (0.3 MB / 0 MWords) used by master data server.
Note: The following floating-point exceptions are signalling: IEEE_DENORMALNote: The following floating-point exceptions are signalling: IEEE_DENORMALNote: The following floating-point exceptions are signalling: IEEE_DENORMALNote: The following floating-point exceptions are signalling:
 ----------------------------------------
 CPU timing information for all processes
 ========================================
 0: 0.477 + 0.118 = 0.596
 1: 0.450 + 0.15 = 0.466
 2: 0.453 + 0.03 = 0.457
 3: 0.456 + 0.11 = 0.468
 4: 0.443 + 0.15 = 0.458
 5: 0.449 + 0.07 = 0.456
 ----------------------------------------



 IEEE_DENORMAL
Note: The following floating-point exceptions are signalling: IEEE_DENORMALNote: The following floating-point exceptions are signalling: IEEE_DENORMAL

 ddikick.x: exited gracefully.
unset echo
----- accounting info -----
Files used on the master node pietdev were:
-rwxr-xr-x 1 piet piet      723 mei 16 20:49 /home/piet/scr/aspartate_minus1__fukui_base.F05*
-rw-r--r-- 1 piet piet 68812800 mei 16 20:49 /home/piet/scr/aspartate_minus1__fukui_base.F10
ls: No match.
ls: No match.
ls: No match.
za 16 mei 2020 20:49:29 CEST
0.114u 0.020s 0:03.75 3.4%	0+0k 0+8io 0pf+0w
