----- GAMESS execution script 'rungms' -----
This job is running on host pietdev
under operating system Linux at vr 22 mei 2020 15:50:37 CEST
Available scratch disk space (Kbyte units) at beginning of the job is
Filesystem     1K-blocks     Used Available Use% Mounted on
/dev/sda2      244568380 31372720 200702604  14% /
GAMESS temporary binary files will be written to /home/piet/scr
GAMESS supplementary output files will be written to /home/piet/gamess/scr
Copying input file d-galactose_fukui_base.inp to your run's scratch directory...
cp d-galactose_fukui_base.inp /home/piet/scr/d-galactose_fukui_base.F05
unset echo
 
Assuming a single but multicore node.
 
/home/piet/gamess/ddikick.x /home/piet/gamess/gamess.03.x d-galactose_fukui_base -ddi 1 8 pietdev:cpus=8 -scr /home/piet/scr

 Distributed Data Interface kickoff program.
 Initiating 8 compute processes on 1 nodes to run the following command:
 /home/piet/gamess/gamess.03.x d-galactose_fukui_base 

          ******************************************************
          *         GAMESS VERSION = 30 SEP 2019 (R2)          *
          *             FROM IOWA STATE UNIVERSITY             *
          * M.W.SCHMIDT, K.K.BALDRIDGE, J.A.BOATZ, S.T.ELBERT, *
          *   M.S.GORDON, J.H.JENSEN, S.KOSEKI, N.MATSUNAGA,   *
          *          K.A.NGUYEN, S.J.SU, T.L.WINDUS,           *
          *       TOGETHER WITH M.DUPUIS, J.A.MONTGOMERY       *
          *         J.COMPUT.CHEM.  14, 1347-1363(1993)        *
          **************** 64 BIT LINUX VERSION ****************

  SINCE 1993, STUDENTS AND POSTDOCS WORKING AT IOWA STATE UNIVERSITY
  AND ALSO IN THEIR VARIOUS JOBS AFTER LEAVING ISU HAVE MADE IMPORTANT
  CONTRIBUTIONS TO THE CODE:
     IVANA ADAMOVIC, CHRISTINE AIKENS, YURI ALEXEEV, POOJA ARORA,
     ANDREY ASADCHEV, ROB BELL, PRADIPTA BANDYOPADHYAY, JONATHAN BENTZ,
     COLLEEN BERTONI, BRETT BODE, KURT BRORSEN, CALEB CARLIN, GALINA CHABAN,
     WEI CHEN, CHEOL HO CHOI, PAUL DAY, ALBERT DEFUSCO, NUWAN DESILVA,
     TIM DUDLEY, DMITRI FEDOROV, ALEX FINDLATER, GRAHAM FLETCHER, 
     MARK FREITAG, KURT GLAESEMANN, EMILIE B GUIDEZ, ANASTASIA GUNINA, 
     DAN KEMP, SAROM SOK LEANG, GRANT MERRILL,
     NORIYUKI MINEZAWA, JONATHAN MULLIN,
     TAKESHI NAGATA, SEAN NEDD, HEATHER NETZLOFF, BOSILJKA NJEGIC, RYAN OLSON,
     MIKE PAK, BUU PHAM, DAVID POOLE,
     SPENCER PRUITT, LUKE ROSKOP, TOSAPORN SATTASATHUCHANA,
     JIM SHOEMAKER, LYUDMILA SLIPCHENKO,
     TONY SMITH, JIE SONG, TETSUYA TAKETSUGU, SIMON WEBB,
     JORGE LUIS GALVEZ VALLEJO, PENG XU, SOOHAENG YOO,
     FEDERICO ZAHARIEV

  ADDITIONAL CODE HAS BEEN PROVIDED BY COLLABORATORS IN OTHER GROUPS:
     IOWA STATE UNIVERSITY:
          JOE IVANIC, AARON WEST, LAIMUTIS BYTAUTAS, KLAUS RUEDENBERG
     UNIVERSITY OF TOKYO: KIMIHIKO HIRAO, TAKAHITO NAKAJIMA,
          TAKAO TSUNEDA, MUNEAKI KAMIYA, SUSUMU YANAGISAWA,
          KIYOSHI YAGI, MAHITO CHIBA, SEIKEN TOKURA, NAOAKI KAWAKAMI
     UNIVERSITY OF AARHUS: FRANK JENSEN
     UNIVERSITY OF IOWA: VISVALDAS KAIRYS, HUI LI
     NATIONAL INST. OF STANDARDS AND TECHNOLOGY: WALT STEVENS, DAVID GARMER
     UNIVERSITY OF PISA: BENEDETTA MENNUCCI, JACOPO TOMASI
     UNIVERSITY OF MEMPHIS: HENRY KURTZ, PRAKASHAN KORAMBATH
     UNIVERSITY OF ALBERTA: TOBY ZENG, MARIUSZ KLOBUKOWSKI
     UNIVERSITY OF NEW ENGLAND: MARK SPACKMAN
     MIE UNIVERSITY: HIROAKI UMEDA
     NAT. INST. OF ADVANCED INDUSTRIAL SCIENCE AND TECHNOLOGY: KAZUO KITAURA
     MICHIGAN STATE UNIVERSITY:
          KAROL KOWALSKI, MARTA WLOCH, JEFFREY GOUR, JESSE LUTZ,
          WEI LI, JUN SHEN, J. EMILIANO DEUSTUA, PIOTR PIECUCH
     UNIVERSITY OF MINNESOTA:
          ANDREW SAND, PRACHI SHARMA, YINAN SHU
     UNIVERSITY OF SILESIA: MONIKA MUSIAL, STANISLAW KUCHARSKI
     FACULTES UNIVERSITAIRES NOTRE-DAME DE LA PAIX:
          OLIVIER QUINET, BENOIT CHAMPAGNE
     UNIVERSITY OF CALIFORNIA - SANTA BARBARA: BERNARD KIRTMAN
     INSTITUTE FOR MOLECULAR SCIENCE:
          KAZUYA ISHIMURA, MICHIO KATOUDA, AND SHIGERU NAGASE
     UNIVERSITY OF NOTRE DAME: ANNA POMOGAEVA, DAN CHIPMAN
     KYUSHU UNIVERSITY:
          HARUYUKI NAKANO,
          FENG LONG GU, JACEK KORCHOWIEC, MARCIN MAKOWSKI, AND YURIKO AOKI,
          HIROTOSHI MORI AND EISAKU MIYOSHI
     PENNSYLVANIA STATE UNIVERSITY:
          TZVETELIN IORDANOV, CHET SWALINA, JONATHAN SKONE,
          SHARON HAMMES-SCHIFFER
     WASEDA UNIVERSITY:
          MASATO KOBAYASHI, TOMOKO AKAMA, TSUGUKI TOUMA,
          TAKESHI YOSHIKAWA, YASUHIRO IKABATA, JUNJI SEINO,
          YUYA NAKAJIMA, HIROMI NAKAI
     NANJING UNIVERSITY: SHUHUA LI
     UNIVERSITY OF NEBRASKA:
          PEIFENG SU, DEJUN SI, NANDUN THELLAMUREGE, YALI WANG, HUI LI
     UNIVERSITY OF ZURICH: ROBERTO PEVERATI, KIM BALDRIDGE
     N. COPERNICUS UNIVERSITY AND JACKSON STATE UNIVERSITY:
          MARIA BARYSZ
     UNIVERSITY OF COPENHAGEN: Jimmy Kromann, CASPER STEINMANN
     TOKYO INSTITUTE OF TECHNOLOGY: HIROYA NAKATA
     NAGOYA UNIVERSITY: YOSHIO NISHIMOTO, STEPHAN IRLE
     MOSCOW STATE UNIVERSITY: VLADIMIR MIRONOV
     A.N.NESMEYANOV INSTITUTE OF ORGANOELEMENT COMPOUNDS OF RUSSIAN ACADEMY OF SCIENCES:
          IGOR S. GERASIMOV
     JOHANNES KEPLER UNIVERSITY LINZ:
          CHRISTIAN FRIEDL


 PARALLEL VERSION RUNNING ON        8 PROCESSORS IN        1 NODES.

 EXECUTION OF GAMESS BEGUN Fri May 22 15:50:37 2020

            ECHO OF THE FIRST FEW INPUT CARDS -
 INPUT CARD> $BASIS GBASIS=N21 NGAUSS=3 $END                                                
 INPUT CARD> $CONTRL SCFTYP=UHF MAXIT=60 MULT=2 ICHARG=1 $END                               
 INPUT CARD> $SYSTEM MEMDDI=1000 MWORDS=30 $END                                             
 INPUT CARD> $SCF DIRSCF=.TRUE. $END                                                        
 INPUT CARD> $STATPT OPTTOL=0.0001 NSTEP=999 $END                                           
 INPUT CARD> $DATA                                                                          
 INPUT CARD>                                                                                
 INPUT CARD>C1                                                                              
 INPUT CARD>O 8.0000000 -4.1531956046 0.4249179813 -0.0737026564                            
 INPUT CARD>C 6.0000000 -3.1074765091 0.2884559046 -0.7205394863                            
 INPUT CARD>C 6.0000000 -1.9412965575 -0.4816108065 -0.1496999764                           
 INPUT CARD>H 1.0000000 -1.6902166052 -1.3485985579 -0.7751285039                           
 INPUT CARD>O 8.0000000 -2.2842498730 -0.8504457838 1.2228567702                            
 INPUT CARD>C 6.0000000 -0.6781370037 0.4009999654 -0.0556550313                            
 INPUT CARD>H 1.0000000 -0.5249767821 0.9900478251 -0.9648374604                            
 INPUT CARD>O 8.0000000 -0.8232898621 1.3028893261 1.0684729754                             
 INPUT CARD>C 6.0000000 0.5450008561 -0.5073485321 0.1433742409                             
 INPUT CARD>H 1.0000000 0.4283308399 -1.0660416104 1.0763243004                             
 INPUT CARD>O 8.0000000 0.6356170526 -1.4583820199 -0.9616193161                            
 INPUT CARD>C 6.0000000 1.8209738367 0.3373930390 0.1288057279                              
 INPUT CARD>H 1.0000000 1.7077343241 1.2115107987 0.7755828993                              
 INPUT CARD>O 8.0000000 1.9718945230 0.7185531966 -1.2868592279                             
 INPUT CARD>C 6.0000000 3.0489407536 -0.5115452329 0.4790773342                             
 INPUT CARD>O 8.0000000 4.1775741990 0.2210457732 -0.1248529392                             
 INPUT CARD>H 1.0000000 -2.9673259173 0.7100358217 -1.7266989415                            
 INPUT CARD>H 1.0000000 -3.2574748274 -0.5955622303 1.2981316193                            
 INPUT CARD>H 1.0000000 -1.3376574007 0.7241084458 1.7150436137                             
 INPUT CARD>H 1.0000000 1.1052586582 -0.8864587673 -1.6510910738                            
 INPUT CARD>H 1.0000000 2.9708140212 0.8137692101 -1.3741819185                             
 INPUT CARD>H 1.0000000 3.1632461641 -0.6245840585 1.5623657112                             
 INPUT CARD>H 1.0000000 2.9051693051 -1.4902815080 0.0049310064                             
 INPUT CARD>H 1.0000000 4.9507426094 -0.3944682800 -0.2164996672                            
 INPUT CARD> $END                                                                           
   30000000 WORDS OF MEMORY AVAILABLE

     BASIS OPTIONS
     -------------
     GBASIS=N21          IGAUSS=       3      POLAR=NONE    
     NDFUNC=       0     NFFUNC=       0     DIFFSP=       F
     NPFUNC=       0      DIFFS=       F     BASNAM=        


     RUN TITLE
     ---------
                                                                                 

 THE POINT GROUP OF THE MOLECULE IS C1      
 THE ORDER OF THE PRINCIPAL AXIS IS     0

 ATOM      ATOMIC                      COORDINATES (BOHR)
           CHARGE         X                   Y                   Z
 O           8.0    -7.8484016661        0.8029785519       -0.1392778252
 C           6.0    -5.8722791155        0.5451026192       -1.3616221924
 C           6.0    -3.6685185546       -0.9101124570       -0.2828919358
 H           1.0    -3.1940462437       -2.5484817419       -1.4647804776
 O           8.0    -4.3166063475       -1.6071094988        2.3108642179
 C           6.0    -1.2814931191        0.7577800557       -0.1051727590
 H           1.0    -0.9920622681        1.8709191042       -1.8232784228
 O           8.0    -1.5557922478        2.4621038187        2.0191211488
 C           6.0     1.0299022811       -0.9587497059        0.2709380290
 H           1.0     0.8094279195       -2.0145265352        2.0339580017
 O           8.0     1.2011420625       -2.7559424030       -1.8171970119
 C           6.0     3.4411415822        0.6375803939        0.2434075314
 H           1.0     3.2271499324        2.2894234407        1.4656391604
 O           8.0     3.7263403252        1.3578686492       -2.4318113255
 C           6.0     5.7616625771       -0.9666803205        0.9053248886
 O           8.0     7.8944705295        0.4177159421       -0.2359378438
 H           1.0    -5.6074329000        1.3417731445       -3.2629878627
 H           1.0    -6.1557348357       -1.1254494239        2.4531130565
 H           1.0    -2.5278059528        1.3683665480        3.2409624869
 H           1.0     2.0886360096       -1.6751641696       -3.1201097103
 H           1.0     5.6140244606        1.5378008243       -2.5968272832
 H           1.0     5.9776684819       -1.1802927269        2.9524430868
 H           1.0     5.4899739346       -2.8162236947        0.0093182509
 H           1.0     9.3555469675       -0.7454369600       -0.4091250474

          INTERNUCLEAR DISTANCES (ANGS.)
          ------------------------------

                1 O          2 C          3 C          4 H          5 O     

   1 O       0.0000000    1.2371533 *  2.3916662 *  3.1150642    2.6077916 *
   2 C       1.2371533 *  0.0000000    1.5095815 *  2.1659993 *  2.3982469 *
   3 C       2.3916662 *  1.5095815 *  0.0000000    1.0981210 *  1.4620425 *
   4 H       3.1150642    2.1659993 *  1.0981210 *  0.0000000    2.1431232 *
   5 O       2.6077916 *  2.3982469 *  1.4620425 *  2.1431232 *  0.0000000  
   6 C       3.4751878    2.5211957 *  1.5438323 *  2.1454702 *  2.4042270 *
   7 H       3.7785533    2.6872323 *  2.1991339 *  2.6197405 *  3.3568534  
   8 O       3.6281774    3.0736215    2.4327608 *  3.3437728    2.6067395 *
   9 C       4.7947151    3.8366968    2.5036433 *  2.5588173 *  3.0475659  
  10 H       4.9533733    4.1910997    2.7312687 *  2.8277127 *  2.7250775 *
  11 O       5.2218715    4.1376698    2.8729390 *  2.3358796 *  3.6969102  
  12 C       5.9782414    5.0013403    3.8604418    3.9985151    4.4114363  
  13 H       5.9741538    5.1260772    4.1277398    4.5282377    4.5152693  
  14 O       6.2509759    5.1289094    4.2481277    4.2362770    5.1841294  
  15 C       7.2837694    6.3230179    5.0297838    4.9732588    5.3954595  
  16 O       8.3334210    7.3096751    6.1591333    6.1088142    6.6872704  
  17 H       2.0542580 *  1.0998767 *  2.2270347 *  2.6027812 *  3.4061084  
  18 H       1.9301878 *  2.2088505 *  1.9599812 *  2.7058769 *  1.0088601 *
  19 H       3.3490870    3.0420582    2.3011753 *  3.2590443    1.9019743 *
  20 H       5.6443958    4.4714079    3.4204643    2.9657319 *  4.4440568  
  21 H       7.2521697    6.1358633    5.2255331    5.1729978    6.0934324  
  22 H       7.5702374    6.7355223    5.3859044    5.4354556    5.4627368  
  23 H       7.3140063    6.3120618    4.9527324    4.6632755    5.3686874  
  24 H       9.1418530    8.1027981    6.8929137    6.7323673    7.3908578  

                6 C          7 H          8 O          9 C         10 H     

   1 O       3.4751878    3.7785533    3.6281774    4.7947151    4.9533733  
   2 C       2.5211957 *  2.6872323 *  3.0736215    3.8366968    4.1910997  
   3 C       1.5438323 *  2.1991339 *  2.4327608 *  2.5036433 *  2.7312687 *
   4 H       2.1454702 *  2.6197405 *  3.3437728    2.5588173 *  2.8277127 *
   5 O       2.4042270 *  3.3568534    2.6067395 *  3.0475659    2.7250775 *
   6 C       0.0000000    1.0940969 *  1.4484949 *  1.5364817 *  2.1582074 *
   7 H       1.0940969 *  0.0000000    2.0787525 *  2.1482973 *  3.0500230  
   8 O       1.4484949 *  2.0787525 *  0.0000000    2.4505078 *  2.6792629 *
   9 C       1.5364817 *  2.1482973 *  2.4505078 *  0.0000000    1.0936844 *
  10 H       2.1582074 *  3.0500230    2.6792629 *  1.0936844 *  0.0000000  
  11 O       2.4503107 *  2.7095751 *  3.7248226    1.4607145 *  2.0856924 *
  12 C       2.5067163 *  2.6693628 *  2.9677076 *  1.5303292 *  2.1924586 *
  13 H       2.6533500 *  2.8395612 *  2.5495525 *  2.1693580 *  2.6295558 *
  14 O       2.9392807 *  2.5321480 *  3.7016340    2.3631395 *  3.3394616  
  15 C       3.8742465    4.1367328    4.3166804    2.5263470 *  2.7444064 *
  16 O       4.8595373    4.8384836    5.2538608    3.7145785    4.1420100  
  17 H       2.8510133 *  2.5736956 *  3.5723034    4.1612063    4.7478285  
  18 H       3.0787754    3.8860949    3.0954996    3.9749299    3.7223263  
  19 H       1.9169611 *  2.8129942 *  1.0087690 *  2.7442728 *  2.5944776 *
  20 H       2.7172534 *  2.5787378 *  3.9885553    1.9177380 *  2.8158970 *
  21 H       3.9017605    3.5240872    4.5388353    3.1516501    4.0003613  
  22 H       4.2925562    4.7536071    4.4555082    2.9803506 *  2.8126292 *
  23 H       4.0522463    4.3426244    4.7785283    2.5604138 *  2.7317745 *
  24 H       5.6870842    5.6974027    6.1539929    4.4218561    4.7512749  

               11 O         12 C         13 H         14 O         15 C     

   1 O       5.2218715    5.9782414    5.9741538    6.2509759    7.2837694  
   2 C       4.1376698    5.0013403    5.1260772    5.1289094    6.3230179  
   3 C       2.8729390 *  3.8604418    4.1277398    4.2481277    5.0297838  
   4 H       2.3358796 *  3.9985151    4.5282377    4.2362770    4.9732588  
   5 O       3.6969102    4.4114363    4.5152693    5.1841294    5.3954595  
   6 C       2.4503107 *  2.5067163 *  2.6533500 *  2.9392807 *  3.8742465  
   7 H       2.7095751 *  2.6693628 *  2.8395612 *  2.5321480 *  4.1367328  
   8 O       3.7248226    2.9677076 *  2.5495525 *  3.7016340    4.3166804  
   9 C       1.4607145 *  1.5303292 *  2.1693580 *  2.3631395 *  2.5263470 *
  10 H       2.0856924 *  2.1924586 *  2.6295558 *  3.3394616    2.7444064 *
  11 O       0.0000000    2.4122408 *  3.3608979    2.5749690 *  2.9658452 *
  12 C       2.4122408 *  0.0000000    1.0932638 *  1.4738275 *  1.5333914 *
  13 H       3.3608979    1.0932638 *  0.0000000    2.1369266 *  2.2035590 *
  14 O       2.5749690 *  1.4738275 *  2.1369266 *  0.0000000    2.4065957 *
  15 C       2.9658452 *  1.5333914 *  2.2035590 *  2.4065957 *  0.0000000  
  16 O       4.0082560    2.3730665 *  2.8092552 *  2.5422028 *  1.4748677 *
  17 H       4.2741760    5.1487450    5.3262632    4.9587730    6.5232794  
  18 H       4.5833499    5.2941826    5.3096019    5.9795803    6.3599360  
  19 H       3.9776376    3.5556505    3.2240593    4.4681747    4.7219377  
  20 H       1.0114498 *  2.2755426 *  3.2639240    1.8600500 *  2.9079336 *
  21 H       3.2842083    1.9514196 *  2.5248876 *  1.0072395 *  2.2797219 *
  22 H       3.6680551    2.1868217 *  2.4715959 *  3.3677024    1.0951517 *
  23 H       2.4670031 *  2.1286660 *  3.0540852    2.7237244 *  1.0970003 *
  24 H       4.5063760    3.2326938    3.7523991    3.3552976    2.0283946 *

               16 O         17 H         18 H         19 H         20 H     

   1 O       8.3334210    2.0542580 *  1.9301878 *  3.3490870    5.6443958  
   2 C       7.3096751    1.0998767 *  2.2088505 *  3.0420582    4.4714079  
   3 C       6.1591333    2.2270347 *  1.9599812 *  2.3011753 *  3.4204643  
   4 H       6.1088142    2.6027812 *  2.7058769 *  3.2590443    2.9657319 *
   5 O       6.6872704    3.4061084    1.0088601 *  1.9019743 *  4.4440568  
   6 C       4.8595373    2.8510133 *  3.0787754    1.9169611 *  2.7172534 *
   7 H       4.8384836    2.5736956 *  3.8860949    2.8129942 *  2.5787378 *
   8 O       5.2538608    3.5723034    3.0954996    1.0087690 *  3.9885553  
   9 C       3.7145785    4.1612063    3.9749299    2.7442728 *  1.9177380 *
  10 H       4.1420100    4.7478285    3.7223263    2.5944776 *  2.8158970 *
  11 O       4.0082560    4.2741760    4.5833499    3.9776376    1.0114498 *
  12 C       2.3730665 *  5.1487450    5.2941826    3.5556505    2.2755426 *
  13 H       2.8092552 *  5.3262632    5.3096019    3.2240593    3.2639240  
  14 O       2.5422028 *  4.9587730    5.9795803    4.4681747    1.8600500 *
  15 C       1.4748677 *  6.5232794    6.3599360    4.7219377    2.9079336 *
  16 O       0.0000000    7.3385707    7.6139141    5.8357580    3.6048706  
  17 H       7.3385707    0.0000000    3.3073211    3.8080979    4.3749808  
  18 H       7.6139141    3.3073211    0.0000000    2.3666528 *  5.2740856  
  19 H       5.8357580    3.8080979    2.3666528 *  0.0000000    4.4601153  
  20 H       3.6048706    4.3749808    5.2740856    4.4601153    0.0000000  
  21 H       1.8353240 *  5.9494987    6.9223592    5.3022900    2.5392421 *
  22 H       2.1425821 *  7.0840010    6.4262213    4.7011078    3.8249438  
  23 H       2.1364689 *  6.5058542    6.3601158    5.0822816    2.5192637 *
  24 H       0.9924949 *  8.1361195    8.3492143    6.6727841    4.1337458  

               21 H         22 H         23 H         24 H     

   1 O       7.2521697    7.5702374    7.3140063    9.1418530  
   2 C       6.1358633    6.7355223    6.3120618    8.1027981  
   3 C       5.2255331    5.3859044    4.9527324    6.8929137  
   4 H       5.1729978    5.4354556    4.6632755    6.7323673  
   5 O       6.0934324    5.4627368    5.3686874    7.3908578  
   6 C       3.9017605    4.2925562    4.0522463    5.6870842  
   7 H       3.5240872    4.7536071    4.3426244    5.6974027  
   8 O       4.5388353    4.4555082    4.7785283    6.1539929  
   9 C       3.1516501    2.9803506 *  2.5604138 *  4.4218561  
  10 H       4.0003613    2.8126292 *  2.7317745 *  4.7512749  
  11 O       3.2842083    3.6680551    2.4670031 *  4.5063760  
  12 C       1.9514196 *  2.1868217 *  2.1286660 *  3.2326938  
  13 H       2.5248876 *  2.4715959 *  3.0540852    3.7523991  
  14 O       1.0072395 *  3.3677024    2.7237244 *  3.3552976  
  15 C       2.2797219 *  1.0951517 *  1.0970003 *  2.0283946 *
  16 O       1.8353240 *  2.1425821 *  2.1364689 *  0.9924949 *
  17 H       5.9494987    7.0840010    6.5058542    8.1361195  
  18 H       6.9223592    6.4262213    6.3601158    8.3492143  
  19 H       5.3022900    4.7011078    5.0822816    6.6727841  
  20 H       2.5392421 *  3.8249438    2.5192637 *  4.1337458  
  21 H       0.0000000    3.2755461    2.6860587 *  2.5923316 *
  22 H       3.2755461    0.0000000    1.8004551 *  2.5322833 *
  23 H       2.6860587 *  1.8004551 *  0.0000000    2.3311388 *
  24 H       2.5923316 *  2.5322833 *  2.3311388 *  0.0000000  

  * ... LESS THAN  3.000


     ATOMIC BASIS SET
     ----------------
 THE CONTRACTED PRIMITIVE FUNCTIONS HAVE BEEN UNNORMALIZED
 THE CONTRACTED BASIS FUNCTIONS ARE NOW NORMALIZED TO UNITY

  SHELL TYPE  PRIMITIVE        EXPONENT          CONTRACTION COEFFICIENT(S)

 O         

      1   S       1           322.0370000    0.059239393389
      1   S       2            48.4308000    0.351499960776
      1   S       3            10.4206000    0.707657921031

      2   L       4             7.4029400   -0.404453583190    0.244586106967
      2   L       5             1.5762000    1.221561761397    0.853955373466

      3   L       6             0.3736840    1.000000000000    1.000000000000

 C         

      4   S       7           172.2560000    0.061766907377
      4   S       8            25.9109000    0.358794042852
      4   S       9             5.5333500    0.700713083689

      5   L      10             3.6649800   -0.395895162119    0.236459946619
      5   L      11             0.7705450    1.215834355681    0.860618805716

      6   L      12             0.1958570    1.000000000000    1.000000000000

 C         

      7   S      13           172.2560000    0.061766907377
      7   S      14            25.9109000    0.358794042852
      7   S      15             5.5333500    0.700713083689

      8   L      16             3.6649800   -0.395895162119    0.236459946619
      8   L      17             0.7705450    1.215834355681    0.860618805716

      9   L      18             0.1958570    1.000000000000    1.000000000000

 H         

     10   S      19             5.4471780    0.156284978695
     10   S      20             0.8245472    0.904690876670

     11   S      21             0.1831916    1.000000000000

 O         

     12   S      22           322.0370000    0.059239393389
     12   S      23            48.4308000    0.351499960776
     12   S      24            10.4206000    0.707657921031

     13   L      25             7.4029400   -0.404453583190    0.244586106967
     13   L      26             1.5762000    1.221561761397    0.853955373466

     14   L      27             0.3736840    1.000000000000    1.000000000000

 C         

     15   S      28           172.2560000    0.061766907377
     15   S      29            25.9109000    0.358794042852
     15   S      30             5.5333500    0.700713083689

     16   L      31             3.6649800   -0.395895162119    0.236459946619
     16   L      32             0.7705450    1.215834355681    0.860618805716

     17   L      33             0.1958570    1.000000000000    1.000000000000

 H         

     18   S      34             5.4471780    0.156284978695
     18   S      35             0.8245472    0.904690876670

     19   S      36             0.1831916    1.000000000000

 O         

     20   S      37           322.0370000    0.059239393389
     20   S      38            48.4308000    0.351499960776
     20   S      39            10.4206000    0.707657921031

     21   L      40             7.4029400   -0.404453583190    0.244586106967
     21   L      41             1.5762000    1.221561761397    0.853955373466

     22   L      42             0.3736840    1.000000000000    1.000000000000

 C         

     23   S      43           172.2560000    0.061766907377
     23   S      44            25.9109000    0.358794042852
     23   S      45             5.5333500    0.700713083689

     24   L      46             3.6649800   -0.395895162119    0.236459946619
     24   L      47             0.7705450    1.215834355681    0.860618805716

     25   L      48             0.1958570    1.000000000000    1.000000000000

 H         

     26   S      49             5.4471780    0.156284978695
     26   S      50             0.8245472    0.904690876670

     27   S      51             0.1831916    1.000000000000

 O         

     28   S      52           322.0370000    0.059239393389
     28   S      53            48.4308000    0.351499960776
     28   S      54            10.4206000    0.707657921031

     29   L      55             7.4029400   -0.404453583190    0.244586106967
     29   L      56             1.5762000    1.221561761397    0.853955373466

     30   L      57             0.3736840    1.000000000000    1.000000000000

 C         

     31   S      58           172.2560000    0.061766907377
     31   S      59            25.9109000    0.358794042852
     31   S      60             5.5333500    0.700713083689

     32   L      61             3.6649800   -0.395895162119    0.236459946619
     32   L      62             0.7705450    1.215834355681    0.860618805716

     33   L      63             0.1958570    1.000000000000    1.000000000000

 H         

     34   S      64             5.4471780    0.156284978695
     34   S      65             0.8245472    0.904690876670

     35   S      66             0.1831916    1.000000000000

 O         

     36   S      67           322.0370000    0.059239393389
     36   S      68            48.4308000    0.351499960776
     36   S      69            10.4206000    0.707657921031

     37   L      70             7.4029400   -0.404453583190    0.244586106967
     37   L      71             1.5762000    1.221561761397    0.853955373466

     38   L      72             0.3736840    1.000000000000    1.000000000000

 C         

     39   S      73           172.2560000    0.061766907377
     39   S      74            25.9109000    0.358794042852
     39   S      75             5.5333500    0.700713083689

     40   L      76             3.6649800   -0.395895162119    0.236459946619
     40   L      77             0.7705450    1.215834355681    0.860618805716

     41   L      78             0.1958570    1.000000000000    1.000000000000

 O         

     42   S      79           322.0370000    0.059239393389
     42   S      80            48.4308000    0.351499960776
     42   S      81            10.4206000    0.707657921031

     43   L      82             7.4029400   -0.404453583190    0.244586106967
     43   L      83             1.5762000    1.221561761397    0.853955373466

     44   L      84             0.3736840    1.000000000000    1.000000000000

 H         

     45   S      85             5.4471780    0.156284978695
     45   S      86             0.8245472    0.904690876670

     46   S      87             0.1831916    1.000000000000

 H         

     47   S      88             5.4471780    0.156284978695
     47   S      89             0.8245472    0.904690876670

     48   S      90             0.1831916    1.000000000000

 H         

     49   S      91             5.4471780    0.156284978695
     49   S      92             0.8245472    0.904690876670

     50   S      93             0.1831916    1.000000000000

 H         

     51   S      94             5.4471780    0.156284978695
     51   S      95             0.8245472    0.904690876670

     52   S      96             0.1831916    1.000000000000

 H         

     53   S      97             5.4471780    0.156284978695
     53   S      98             0.8245472    0.904690876670

     54   S      99             0.1831916    1.000000000000

 H         

     55   S     100             5.4471780    0.156284978695
     55   S     101             0.8245472    0.904690876670

     56   S     102             0.1831916    1.000000000000

 H         

     57   S     103             5.4471780    0.156284978695
     57   S     104             0.8245472    0.904690876670

     58   S     105             0.1831916    1.000000000000

 H         

     59   S     106             5.4471780    0.156284978695
     59   S     107             0.8245472    0.904690876670

     60   S     108             0.1831916    1.000000000000

 TOTAL NUMBER OF BASIS SET SHELLS             =   60
 NUMBER OF CARTESIAN GAUSSIAN BASIS FUNCTIONS =  132
 NUMBER OF ELECTRONS                          =   95
 CHARGE OF MOLECULE                           =    1
 SPIN MULTIPLICITY                            =    2
 NUMBER OF OCCUPIED ORBITALS (ALPHA)          =   48
 NUMBER OF OCCUPIED ORBITALS (BETA )          =   47
 TOTAL NUMBER OF ATOMS                        =   24
 THE NUCLEAR REPULSION ENERGY IS      787.0722262712

     $CONTRL OPTIONS
     ---------------
 SCFTYP=UHF          RUNTYP=ENERGY       EXETYP=RUN     
 MPLEVL=       0     CITYP =NONE         CCTYP =NONE         VBTYP =NONE    
 DFTTYP=NONE         TDDFT =NONE    
 MULT  =       2     ICHARG=       1     NZVAR =       0     COORD =UNIQUE  
 PP    =NONE         RELWFN=NONE         LOCAL =NONE         NUMGRD=       F
 ISPHER=      -1     NOSYM =       0     MAXIT =      60     UNITS =ANGS    
 PLTORB=       F     MOLPLT=       F     AIMPAC=       F     FRIEND=        
 NPRINT=       7     IREST =       0     GEOM  =INPUT   
 NORMF =       0     NORMP =       0     ITOL  =      20     ICUT  =       9
 INTTYP=BEST         GRDTYP=BEST         QMTTOL= 1.0E-06

     $SYSTEM OPTIONS
     ---------------
  REPLICATED MEMORY=    30000000 WORDS (ON EVERY NODE).
 DISTRIBUTED MEMDDI=        1000 MILLION WORDS IN AGGREGATE,
 MEMDDI DISTRIBUTED OVER   8 PROCESSORS IS   125000000 WORDS/PROCESSOR.
 TOTAL MEMORY REQUESTED ON EACH PROCESSOR=   155000000 WORDS.
 TIMLIM=      525600.00 MINUTES, OR     365.0 DAYS.
 PARALL= T  BALTYP=  DLB     KDIAG=    0  COREFL= F
 MXSEQ2=     300 MXSEQ3=     150  mem10=         0

          ----------------
          PROPERTIES INPUT
          ----------------

     MOMENTS            FIELD           POTENTIAL          DENSITY
 IEMOM =       1   IEFLD =       0   IEPOT =       0   IEDEN =       0
 WHERE =COMASS     WHERE =NUCLEI     WHERE =NUCLEI     WHERE =NUCLEI  
 OUTPUT=BOTH       OUTPUT=BOTH       OUTPUT=BOTH       OUTPUT=BOTH    
 IEMINT=       0   IEFINT=       0                     IEDINT=       0
                                                       MORB  =       0
          EXTRAPOLATION IN EFFECT
          SOSCF IN EFFECT
          DIIS or SOSCF will be reset if energy rises
 ORBITAL PRINTING OPTION: NPREO=     1   132     2     1

     -------------------------------
     INTEGRAL TRANSFORMATION OPTIONS
     -------------------------------
     NWORD  =            0
     CUTOFF = 1.0E-09     MPTRAN =       0
     DIRTRF =       T     AOINTS =DUP     

          ----------------------
          INTEGRAL INPUT OPTIONS
          ----------------------
 NOPK  =       1 NORDER=       0 SCHWRZ=       T

     ------------------------------------------
     THE POINT GROUP IS C1 , NAXIS= 0, ORDER= 1
     ------------------------------------------

     DIMENSIONS OF THE SYMMETRY SUBSPACES ARE
 A   =  132

 ..... DONE SETTING UP THE RUN .....
 CPU     0: STEP CPU TIME=     0.03 TOTAL CPU TIME=          0.0 (      0.0 MIN)
 TOTAL WALL CLOCK TIME=          0.0 SECONDS, CPU UTILIZATION IS    75.00%

          ********************
          1 ELECTRON INTEGRALS
          ********************
 ...... END OF ONE-ELECTRON INTEGRALS ......
 CPU     0: STEP CPU TIME=     0.01 TOTAL CPU TIME=          0.0 (      0.0 MIN)
 TOTAL WALL CLOCK TIME=          0.1 SECONDS, CPU UTILIZATION IS    66.67%

          -------------
          GUESS OPTIONS
          -------------
          GUESS =HUCKEL            NORB  =       0          NORDER=       0
          MIX   =       F          PRTMO =       F          PUNMO =       F
          TOLZ  = 1.0E-08          TOLE  = 1.0E-05
          SYMDEN=       F          PURIFY=       F

 INITIAL GUESS ORBITALS GENERATED BY HUCKEL   ROUTINE.
 HUCKEL GUESS REQUIRES    164928 WORDS.

 SYMMETRIES FOR INITIAL GUESS ORBITALS FOLLOW.  ALPHA SET(S).
    48 ORBITALS ARE OCCUPIED (   12 CORE ORBITALS).
    13=A       14=A       15=A       16=A       17=A       18=A       19=A   
    20=A       21=A       22=A       23=A       24=A       25=A       26=A   
    27=A       28=A       29=A       30=A       31=A       32=A       33=A   
    34=A       35=A       36=A       37=A       38=A       39=A       40=A   
    41=A       42=A       43=A       44=A       45=A       46=A       47=A   
    48=A       49=A       50=A       51=A       52=A       53=A       54=A   
    55=A       56=A       57=A       58=A   

 SYMMETRIES FOR INITIAL GUESS ORBITALS FOLLOW.   BETA SET(S).
    47 ORBITALS ARE OCCUPIED (   12 CORE ORBITALS).
    13=A       14=A       15=A       16=A       17=A       18=A       19=A   
    20=A       21=A       22=A       23=A       24=A       25=A       26=A   
    27=A       28=A       29=A       30=A       31=A       32=A       33=A   
    34=A       35=A       36=A       37=A       38=A       39=A       40=A   
    41=A       42=A       43=A       44=A       45=A       46=A       47=A   
    48=A       49=A       50=A       51=A       52=A       53=A       54=A   
    55=A       56=A       57=A   
 ...... END OF INITIAL ORBITAL SELECTION ......
 CPU     0: STEP CPU TIME=     0.05 TOTAL CPU TIME=          0.1 (      0.0 MIN)
 TOTAL WALL CLOCK TIME=          0.2 SECONDS, CPU UTILIZATION IS    56.25%

                    ----------------------
                    AO INTEGRAL TECHNOLOGY
                    ----------------------
     S,P,L SHELL ROTATED AXIS INTEGRALS, REPROGRAMMED BY
        KAZUYA ISHIMURA (IMS) AND JOSE SIERRA (SYNSTAR).
     S,P,D,L SHELL ROTATED AXIS INTEGRALS PROGRAMMED BY
        KAZUYA ISHIMURA (INSTITUTE FOR MOLECULAR SCIENCE).
     S,P,D,F,G SHELL TO TOTAL QUARTET ANGULAR MOMENTUM SUM 5,
        ERIC PROGRAM BY GRAHAM FLETCHER (ELORET AND NASA ADVANCED
        SUPERCOMPUTING DIVISION, AMES RESEARCH CENTER).
     S,P,D,F,G,L SHELL GENERAL RYS QUADRATURE PROGRAMMED BY
        MICHEL DUPUIS (PACIFIC NORTHWEST NATIONAL LABORATORY).

          --------------------
          2 ELECTRON INTEGRALS
          --------------------

 DIRECT SCF METHOD SKIPS INTEGRAL STORAGE ON DISK.
 DIRECT TRANSFORMATION SKIPS AO INTEGRAL STORAGE ON DISK.
  ...... END OF TWO-ELECTRON INTEGRALS .....
 CPU     0: STEP CPU TIME=     0.01 TOTAL CPU TIME=          0.1 (      0.0 MIN)
 TOTAL WALL CLOCK TIME=          0.2 SECONDS, CPU UTILIZATION IS    62.50%

          ---------------------------
                  UHF SCF CALCULATION
          ---------------------------

     NUCLEAR ENERGY =       787.0722262712
     MAXIT = 60     NPUNCH=  2     MULT=  2
     EXTRAP=T  DAMP=F  SHIFT=F  RSTRCT=F  DIIS=F  SOSCF=T
     DENSITY MATRIX CONV=  2.00E-05
     SOSCF WILL OPTIMIZE    4032 ALPHA AND    3995 BETA ROTATION ANGLES.
     SOGTOL= 2.500E-01
     MEMORY REQUIRED FOR UHF/ROHF ITERS=    280557 WORDS.

 DIRECT SCF CALCULATION, SCHWRZ=T   FDIFF=T
 SCHWARZ INEQUALITY OVERHEAD:      7783 INTEGRALS, T=        0.00

                                                                                NONZERO     BLOCKS
 ITER EX      TOTAL ENERGY        E CHANGE  DENSITY CHANGE    ORB. GRAD       INTEGRALS    SKIPPED
   1  0     -677.1108003070  -677.1108003070   0.948452493   0.000000000       18292567     961118
          ---------------START SECOND ORDER SCF---------------
   2  1     -678.9150286750    -1.8042283680   0.185625017   0.112987409       18243442     973048
   3  2     -678.9833821440    -0.0683534691   0.178397785   0.104395949       18138469     996760
   4  3     -679.1409117014    -0.1575295573   0.075227224   0.017656952       17856747    1027969
   5  4     -679.1592086079    -0.0182969065   0.022308121   0.010498190       17831206    1033825
   6  5     -679.1638311774    -0.0046225695   0.050748199   0.005235380       17571692    1057406
   7  6     -679.1679250817    -0.0040939043   0.023414473   0.008478927       17833155    1036284
   8  7     -679.1706246502    -0.0026995685   0.184020589   0.007433782       17320622    1074161
   9  8     -679.1232458174     0.0473788327   0.159355606   0.041923014       18105385    1002246
  10  9     -679.1719774874    -0.0487316700   0.036679093   0.020349573       18085853    1005528
  11 10     -679.1791572412    -0.0071797538   0.077405759   0.009710500       17636599    1053751
  12 11     -679.1840298585    -0.0048726173   0.029603522   0.018441208       17773131    1039293
  13 12     -679.1889091026    -0.0048792440   0.037551354   0.005960762       17425937    1068474
  14 13     -679.1923879678    -0.0034788652   0.037856533   0.003503492       17304392    1069606
  15 14     -679.1937581626    -0.0013701948   0.005973589   0.002924701       17291228    1070170
  16 15     -679.1940729505    -0.0003147879   0.006807998   0.002266305       16606811    1114481
  17 16     -679.1942490851    -0.0001761346   0.003810225   0.000973648       16552578    1112915
  18 17     -679.1943178669    -0.0000687818   0.002905524   0.000778511       16027004    1142469
  19 18     -679.1943490077    -0.0000311407   0.001935444   0.000692191       15663888    1155363
  20 19     -679.1943634582    -0.0000144505   0.002543445   0.000591620       15341900    1171287
  21 20     -679.1943771143    -0.0000136561   0.006362449   0.000617556       15147962    1178652
  22 21     -679.1944049435    -0.0000278293   0.010744596   0.000797655       15555699    1160152
  23 22     -679.1944436147    -0.0000386712   0.011261324   0.001161585       15717189    1152952
  24 23     -679.1944830767    -0.0000394619   0.004998663   0.001146228       15533022    1160939
  25 24     -679.1945200743    -0.0000369976   0.003276018   0.000595490       15609774    1157818
  26 25     -679.1945373552    -0.0000172809   0.001188828   0.000190757       15452113    1163056
  27 26     -679.1945401323    -0.0000027771   0.000720848   0.000111993       14592009    1201430
  28 27     -679.1945411910    -0.0000010587   0.000178507   0.000039178       14356111    1209740
  29 28     -679.1945413533    -0.0000001623   0.000140264   0.000030943       13262766    1256256
  30 29     -679.1945414268    -0.0000000735   0.000048249   0.000017468       13071413    1263237
  31 30     -679.1945414393    -0.0000000125   0.000029881   0.000011354       12360228    1292355
  32 31     -679.1945414422    -0.0000000029   0.000017140   0.000007082       11645869    1320014
  33 32     -679.1945414433    -0.0000000011   0.000012764   0.000003999       10999185    1345893

          -----------------
          DENSITY CONVERGED
          -----------------
     TIME TO FORM FOCK OPERATORS=       7.1 SECONDS (       0.2 SEC/ITER)
     FOCK TIME ON FIRST ITERATION=       0.3, LAST ITERATION=       0.2
     TIME TO SOLVE SCF EQUATIONS=       0.4 SECONDS (       0.0 SEC/ITER)

 FINAL UHF ENERGY IS     -679.1945414433 AFTER  33 ITERATIONS

          --------------------
          SPIN SZ   =    0.500
          S-SQUARED =    0.862
          --------------------

  ----- ALPHA SET ----- 

          ------------
          EIGENVECTORS
          ------------

                      1          2          3          4          5
                  -20.9221   -20.6813   -20.6704   -20.6344   -20.6095
                     A          A          A          A          A   
    1  O  1  S    0.000198   0.983527   0.008878  -0.000551   0.000011
    2  O  1  S    0.000241   0.099409   0.000332   0.000083  -0.000011
    3  O  1  X   -0.000036   0.004035  -0.000010  -0.000019   0.000003
    4  O  1  Y    0.000028  -0.000754  -0.000162   0.000025  -0.000007
    5  O  1  Z   -0.000033  -0.001965   0.000242   0.000006  -0.000015
    6  O  1  S   -0.001467  -0.052423   0.003743  -0.000735   0.000117
    7  O  1  X   -0.000220  -0.012915   0.001365  -0.000108   0.000052
    8  O  1  Y    0.000024   0.002470   0.000281  -0.000045   0.000001
    9  O  1  Z    0.000198   0.006261  -0.001279   0.000033   0.000057
   10  C  2  S    0.000072  -0.000011   0.000171   0.000029   0.000011
   11  C  2  S    0.000724   0.000272   0.000229   0.000274   0.000065
   12  C  2  X    0.000334  -0.002001  -0.000630   0.000058   0.000032
   13  C  2  Y    0.000061   0.000617   0.000299  -0.000012  -0.000009
   14  C  2  Z   -0.000140   0.000617  -0.000262  -0.000057   0.000016
   15  C  2  S   -0.001018   0.020484  -0.007038  -0.000995  -0.000296
   16  C  2  X   -0.001901  -0.014140   0.001661  -0.001091  -0.000136
   17  C  2  Y   -0.000478  -0.001388   0.001817   0.000101   0.000157
   18  C  2  Z    0.002813   0.016045  -0.007561   0.001170  -0.000467
   19  C  3  S    0.000162   0.000235  -0.000988   0.000125   0.000001
   20  C  3  S    0.000409   0.000882  -0.004386   0.000867   0.000043
   21  C  3  X   -0.000902  -0.000058  -0.000261   0.000027   0.000100
   22  C  3  Y   -0.000637  -0.000065  -0.000996  -0.000117  -0.000024
   23  C  3  Z    0.000224   0.000747   0.000993   0.000358  -0.000040
   24  C  3  S   -0.004445  -0.004927   0.021758  -0.002415  -0.000266
   25  C  3  X    0.000804   0.006992  -0.005815   0.000021  -0.000926
   26  C  3  Y   -0.001546  -0.001129   0.002361   0.000887   0.000107
   27  C  3  Z   -0.005914  -0.008672   0.014486  -0.003481   0.000762
   28  H  4  S   -0.000495  -0.000607  -0.000515  -0.000716   0.000202
   29  H  4  S   -0.000506  -0.001943   0.001627   0.001307   0.000089
   30  O  5  S    0.000109  -0.009049   0.983546   0.002550  -0.000292
   31  O  5  S    0.000007  -0.001498   0.098533  -0.000221   0.000057
   32  O  5  X    0.000408  -0.000367  -0.001454  -0.000017   0.000012
   33  O  5  Y    0.000326   0.000058   0.001975   0.000075  -0.000021
   34  O  5  Z    0.000260   0.000239  -0.002906   0.000117  -0.000015
   35  O  5  S    0.001868   0.004085  -0.047584   0.002052  -0.000366
   36  O  5  X   -0.001289   0.001822   0.002286   0.000289  -0.000012
   37  O  5  Y   -0.000883   0.000292  -0.005047  -0.000068   0.000010
   38  O  5  Z   -0.001896  -0.002465   0.009328  -0.001141   0.000182
   39  C  6  S   -0.000904   0.000011   0.000164   0.000127   0.000103
   40  C  6  S   -0.003957   0.000211   0.000414   0.000182   0.000794
   41  C  6  X   -0.000026   0.000154   0.000555  -0.000424   0.000320
   42  C  6  Y    0.001241  -0.000028   0.000645   0.000531   0.000012
   43  C  6  Z    0.000749  -0.000064   0.000140  -0.000372   0.000194
   44  C  6  S    0.019825  -0.001983  -0.004160  -0.004061  -0.001768
   45  C  6  X   -0.002409  -0.001680   0.003940  -0.003053  -0.001031
   46  C  6  Y    0.005062   0.001512  -0.001930   0.001712  -0.001099
   47  C  6  Z    0.013763   0.003063  -0.005608   0.005494  -0.002414
   48  H  7  S   -0.000775   0.000091  -0.000465   0.000972  -0.000236
   49  H  7  S    0.000857   0.001632  -0.000230   0.001308   0.000134
   50  O  8  S    0.983274  -0.000138  -0.000148  -0.000066   0.000223
   51  O  8  S    0.099388   0.000200  -0.000004   0.000210  -0.000394
   52  O  8  X   -0.000955   0.000020  -0.000289  -0.000257  -0.000031
   53  O  8  Y   -0.003559   0.000088  -0.000069   0.000107   0.000017
   54  O  8  Z   -0.001018  -0.000123   0.000322  -0.000019   0.000080
   55  O  8  S   -0.047057  -0.001114   0.001276  -0.001745   0.001737
   56  O  8  X    0.001501  -0.000142   0.001196   0.000941   0.000257
   57  O  8  Y    0.009841   0.000021  -0.000291   0.000144  -0.000435
   58  O  8  Z    0.004992   0.000726  -0.002231   0.000464  -0.000712
   59  C  9  S    0.000060  -0.000025   0.000120  -0.000975   0.000193
   60  C  9  S   -0.000200  -0.000041   0.000846  -0.004330   0.000586
   61  C  9  X    0.000385  -0.000284  -0.000258  -0.000069  -0.000708
   62  C  9  Y   -0.000541  -0.000083   0.000043  -0.001338  -0.000630
   63  C  9  Z    0.000366  -0.000023  -0.000198  -0.000639  -0.000029
   64  C  9  S   -0.001688   0.001681  -0.002751   0.021364  -0.006104
   65  C  9  X    0.003254   0.000933   0.001076   0.001755  -0.003141
   66  C  9  Y   -0.000745   0.001193   0.000188  -0.004481   0.000744
   67  C  9  Z   -0.005672  -0.001112   0.003009  -0.013620   0.004844
   68  H 10  S    0.000903   0.000079  -0.000099  -0.000830  -0.000357
   69  H 10  S    0.001398   0.000680  -0.000676   0.000943   0.000005
   70  O 11  S    0.000139   0.000604  -0.002662   0.983559  -0.002578
   71  O 11  S    0.000241   0.000170  -0.000712   0.098321  -0.000094
   72  O 11  X    0.000232  -0.000057   0.000058   0.000795   0.000272
   73  O 11  Y   -0.000085   0.000044  -0.000062   0.003798   0.000035
   74  O 11  Z   -0.000025  -0.000003  -0.000063   0.000913  -0.000290
   75  O 11  S   -0.001811  -0.000357   0.001923  -0.046838   0.000715
   76  O 11  X   -0.000917   0.000049  -0.000286  -0.001585  -0.001106
   77  O 11  Y   -0.000307  -0.000262   0.000650  -0.010164   0.000312
   78  O 11  Z   -0.000314  -0.000035   0.000642  -0.004373   0.001985
   79  C 12  S    0.000157   0.000042  -0.000011   0.000170  -0.000998
   80  C 12  S    0.001055   0.000227  -0.000005   0.000446  -0.004532
   81  C 12  X   -0.000152   0.000067  -0.000128   0.000938   0.000241
   82  C 12  Y    0.000092  -0.000021   0.000030   0.000674   0.001002
   83  C 12  Z   -0.000312   0.000023   0.000024  -0.000192  -0.001172
   84  C 12  S   -0.003426  -0.001608   0.000241  -0.005402   0.021420
   85  C 12  X    0.001363   0.000400   0.000500   0.000357   0.001386
   86  C 12  Y    0.000083   0.000724  -0.000460   0.002011  -0.002017
   87  C 12  Z    0.003365   0.000195  -0.000907   0.004922  -0.012756
   88  H 13  S   -0.000353   0.000061   0.000145  -0.000395  -0.000882
   89  H 13  S    0.000350  -0.000227   0.000284  -0.000418   0.000925
   90  O 14  S   -0.000333  -0.000019   0.000305   0.002576   0.983291
   91  O 14  S   -0.000471  -0.000018   0.000113   0.000408   0.098257
   92  O 14  X    0.000008  -0.000016  -0.000023  -0.000501   0.002004
   93  O 14  Y   -0.000054   0.000005   0.000022  -0.000386  -0.000926
   94  O 14  Z   -0.000116   0.000000   0.000010  -0.000188   0.002846
   95  O 14  S    0.002007   0.000144  -0.000373   0.001070  -0.046215
   96  O 14  X   -0.000165   0.000065   0.000020   0.001898  -0.003947
   97  O 14  Y   -0.000022  -0.000058  -0.000003   0.001219   0.003041
   98  O 14  Z    0.001129   0.000075  -0.000164   0.001495  -0.008827
   99  C 15  S    0.000010  -0.000015   0.000022   0.000063   0.000161
  100  C 15  S    0.000114  -0.000068   0.000144   0.000629   0.000355
  101  C 15  X   -0.000085  -0.000034  -0.000015  -0.000303   0.000874
  102  C 15  Y    0.000119   0.000015  -0.000030   0.000038  -0.000536
  103  C 15  Z    0.000069  -0.000005  -0.000010   0.000181   0.000325
  104  C 15  S   -0.000349   0.000513  -0.000650  -0.000834  -0.005518
  105  C 15  X    0.000398  -0.000191   0.000316   0.000648   0.000854
  106  C 15  Y   -0.000776   0.000025   0.000094   0.000338  -0.000658
  107  C 15  Z   -0.001128  -0.000150   0.000374  -0.002139   0.003688
  108  O 16  S    0.000014   0.000070   0.000019   0.000122   0.022059
  109  O 16  S    0.000023   0.000030   0.000002   0.000047   0.002448
  110  O 16  X    0.000024  -0.000013  -0.000014   0.000043  -0.000236
  111  O 16  Y   -0.000035   0.000005   0.000010  -0.000072   0.000337
  112  O 16  Z   -0.000034   0.000001   0.000016   0.000011  -0.000152
  113  O 16  S   -0.000126  -0.000081   0.000026  -0.000386  -0.000802
  114  O 16  X   -0.000046   0.000076   0.000023  -0.000014   0.000717
  115  O 16  Y    0.000189  -0.000005  -0.000052   0.000368  -0.001621
  116  O 16  Z    0.000150  -0.000005  -0.000064  -0.000035   0.000820
  117  H 17  S    0.000478   0.000482  -0.000774   0.000242   0.000010
  118  H 17  S    0.001590   0.004321  -0.001818   0.000561  -0.000288
  119  H 18  S   -0.000048  -0.000780   0.003315  -0.000068   0.000023
  120  H 18  S   -0.000485   0.002824   0.005788   0.000288  -0.000119
  121  H 19  S    0.002925   0.000220  -0.000479  -0.000157   0.000012
  122  H 19  S    0.005924  -0.000641   0.003505   0.000337   0.000125
  123  H 20  S   -0.000190   0.000044  -0.000030   0.002996  -0.000445
  124  H 20  S    0.000515  -0.000074   0.000132   0.006049   0.003428
  125  H 21  S   -0.000128  -0.000029   0.000020  -0.000390   0.003072
  126  H 21  S    0.000299  -0.000019  -0.000113  -0.000461   0.006238
  127  H 22  S    0.000192  -0.000014   0.000010   0.000335  -0.000381
  128  H 22  S    0.000330   0.000016  -0.000108   0.001077  -0.000026
  129  H 23  S   -0.000050  -0.000025   0.000065  -0.000387   0.000655
  130  H 23  S   -0.000767  -0.000121   0.000244   0.000351   0.000412
  131  H 24  S    0.000082  -0.000012  -0.000020   0.000153  -0.000348
  132  H 24  S   -0.000078  -0.000001  -0.000024  -0.000173  -0.000089

                      6          7          8          9         10
                  -20.6062   -11.4855   -11.4622   -11.4518   -11.4401
                     A          A          A          A          A   
    1  O  1  S   -0.000063   0.000025   0.000093   0.000049   0.000013
    2  O  1  S    0.000021   0.000242   0.000960   0.000118   0.000110
    3  O  1  X    0.000006   0.000089  -0.000444  -0.000154   0.000110
    4  O  1  Y   -0.000005   0.000061   0.000066  -0.000072   0.000021
    5  O  1  Z    0.000009   0.000027   0.000078   0.000288   0.000071
    6  O  1  S   -0.000151  -0.000964  -0.000878  -0.002083  -0.000412
    7  O  1  X   -0.000097  -0.000425  -0.002608  -0.001621  -0.000758
    8  O  1  Y    0.000043  -0.000155   0.000120   0.001195   0.000027
    9  O  1  Z   -0.000040   0.000128   0.002764  -0.001491  -0.000320
   10  C  2  S   -0.000019  -0.007489   0.986776   0.009245   0.004512
   11  C  2  S   -0.000091  -0.001857   0.095353  -0.001582  -0.000780
   12  C  2  X    0.000026  -0.000870  -0.000031   0.000439  -0.000243
   13  C  2  Y   -0.000010   0.000085  -0.000049   0.000075  -0.000154
   14  C  2  Z   -0.000000  -0.000214   0.000969  -0.000072  -0.000102
   15  C  2  S    0.000904   0.001667  -0.053833   0.025446   0.005914
   16  C  2  X    0.000345  -0.000762  -0.012769   0.012005   0.003125
   17  C  2  Y   -0.000248  -0.000406   0.003772  -0.008027  -0.000924
   18  C  2  Z    0.000431   0.000090   0.002258   0.009695   0.001623
   19  C  3  S    0.000030  -0.004761  -0.009790   0.988212   0.009000
   20  C  3  S    0.000130  -0.003492  -0.002004   0.106101   0.000482
   21  C  3  X   -0.000200   0.000861   0.000397   0.000277  -0.001172
   22  C  3  Y    0.000041   0.000079  -0.000207   0.001461   0.000032
   23  C  3  Z   -0.000029   0.000101   0.000273   0.000217  -0.000269
   24  C  3  S   -0.001556   0.024849   0.013322  -0.098468  -0.003989
   25  C  3  X    0.000424   0.011982  -0.008854  -0.000626   0.003293
   26  C  3  Y   -0.000858   0.007860   0.003419  -0.013257  -0.001384
   27  C  3  Z    0.000013   0.001263  -0.007800   0.001167   0.003138
   28  H  4  S   -0.000043  -0.001391  -0.001427   0.000729  -0.000328
   29  H  4  S   -0.000071   0.000350   0.000915   0.013813   0.001445
   30  O  5  S   -0.000015   0.000034  -0.000030  -0.000296   0.000043
   31  O  5  S   -0.000008  -0.000107  -0.000504  -0.001231   0.000477
   32  O  5  X    0.000025  -0.000453  -0.000095  -0.000032   0.000368
   33  O  5  Y   -0.000005  -0.000188  -0.000232   0.000112  -0.000022
   34  O  5  Z   -0.000006   0.000300   0.000414  -0.000467  -0.000081
   35  O  5  S    0.000098  -0.001353   0.000957   0.011363  -0.001309
   36  O  5  X   -0.000124   0.000644   0.001114   0.001854  -0.001669
   37  O  5  Y    0.000074  -0.000231   0.000541   0.001913   0.000084
   38  O  5  Z   -0.000046  -0.000011  -0.001254  -0.004617   0.000466
   39  C  6  S   -0.000039   0.988246   0.007212   0.003713   0.003665
   40  C  6  S   -0.000238   0.105656  -0.000604  -0.002760  -0.003137
   41  C  6  X    0.000193  -0.000038   0.001627  -0.000371   0.000522
   42  C  6  Y    0.000097  -0.000351  -0.000429  -0.000174  -0.000098
   43  C  6  Z   -0.000037   0.001066   0.000236  -0.000138   0.000100
   44  C  6  S    0.002146  -0.096305   0.000241   0.026534   0.027766
   45  C  6  X   -0.000489  -0.002318  -0.008810  -0.015039   0.014388
   46  C  6  Y   -0.001337   0.012104   0.003874  -0.007646  -0.008520
   47  C  6  Z    0.000557  -0.002151   0.001198  -0.000557  -0.000485
   48  H  7  S    0.000097   0.000837  -0.000447  -0.001247  -0.001907
   49  H  7  S    0.000219   0.014391   0.000160   0.000095  -0.000612
   50  O  8  S   -0.000012  -0.000244   0.000081   0.000038  -0.000010
   51  O  8  S    0.000028  -0.000899   0.000694  -0.000074  -0.000462
   52  O  8  X   -0.000012  -0.000141  -0.000078   0.000223  -0.000062
   53  O  8  Y   -0.000037  -0.000322  -0.000034   0.000396   0.000391
   54  O  8  Z    0.000024  -0.000340  -0.000185   0.000303   0.000077
   55  O  8  S   -0.000137   0.010178  -0.002840  -0.001895   0.000160
   56  O  8  X    0.000098   0.001371   0.000847   0.000169  -0.000835
   57  O  8  Y    0.000229  -0.003057   0.000546   0.000059  -0.000334
   58  O  8  Z   -0.000061  -0.003342   0.001507  -0.000008   0.000320
   59  C  9  S   -0.000120  -0.004797  -0.004862  -0.009049   0.988245
   60  C  9  S   -0.000673  -0.004095  -0.001868  -0.001419   0.106010
   61  C  9  X   -0.000394  -0.000512   0.000175   0.001025  -0.000653
   62  C  9  Y    0.000214  -0.000048  -0.000044   0.000070   0.001243
   63  C  9  Z   -0.000129   0.000044   0.000103   0.000121  -0.000670
   64  C  9  S    0.002605   0.028551   0.007748  -0.001700  -0.097140
   65  C  9  X    0.004295  -0.014208  -0.003910  -0.002782   0.001139
   66  C  9  Y   -0.000915   0.009374   0.001906  -0.002115  -0.012104
   67  C  9  Z   -0.000385  -0.000981  -0.001936  -0.000430   0.004549
   68  H 10  S   -0.000409  -0.001796  -0.000421  -0.000249   0.000735
   69  H 10  S    0.000208   0.000211   0.000625  -0.000194   0.013506
   70  O 11  S   -0.000042   0.000010   0.000034   0.000052  -0.000295
   71  O 11  S    0.000062  -0.000266   0.000268   0.000512  -0.001244
   72  O 11  X   -0.000027   0.000049  -0.000078  -0.000284   0.000150
   73  O 11  Y   -0.000044  -0.000366   0.000035  -0.000050   0.000299
   74  O 11  Z    0.000091  -0.000039   0.000012   0.000052   0.000315
   75  O 11  S   -0.000619  -0.000516  -0.001235  -0.001406   0.011342
   76  O 11  X   -0.000103   0.000803   0.000470   0.001406  -0.001124
   77  O 11  Y   -0.000072   0.000061  -0.000575   0.000031   0.003820
   78  O 11  Z   -0.000675  -0.000508  -0.000418  -0.000477   0.003755
   79  C 12  S    0.000360  -0.001229  -0.000520  -0.001915  -0.004085
   80  C 12  S    0.001637  -0.000549  -0.000222  -0.001242  -0.003449
   81  C 12  X   -0.000471   0.001222   0.000276   0.000556  -0.000731
   82  C 12  Y   -0.000101  -0.000106  -0.000046  -0.000249   0.000016
   83  C 12  Z   -0.000111   0.000170   0.000058   0.000049   0.000087
   84  C 12  S   -0.010853  -0.003199  -0.000299   0.003912   0.026284
   85  C 12  X   -0.003446  -0.002829  -0.000897  -0.005119  -0.012157
   86  C 12  Y    0.003538   0.001580   0.000556   0.000783  -0.008779
   87  C 12  Z    0.002076  -0.002154  -0.000100  -0.000629  -0.001415
   88  H 13  S    0.000444  -0.000274  -0.000072  -0.000671  -0.001280
   89  H 13  S   -0.001151   0.000865  -0.000121  -0.000075   0.001173
   90  O 14  S   -0.022030   0.000050   0.000005   0.000019   0.000049
   91  O 14  S   -0.001963   0.000524   0.000043   0.000122   0.000004
   92  O 14  X    0.000184  -0.000372  -0.000008  -0.000006   0.000610
   93  O 14  Y    0.000051  -0.000014  -0.000026   0.000044   0.000323
   94  O 14  Z   -0.000273   0.000074   0.000025   0.000049  -0.000382
   95  O 14  S    0.000909  -0.001448  -0.000143  -0.000727  -0.002083
   96  O 14  X   -0.001149   0.001733   0.000131   0.000341  -0.001565
   97  O 14  Y   -0.000597   0.000078   0.000061  -0.000142  -0.000246
   98  O 14  Z    0.001636  -0.000543  -0.000115  -0.000514   0.000026
   99  C 15  S   -0.000862  -0.001054  -0.000399  -0.000546  -0.001916
  100  C 15  S   -0.003451  -0.001247  -0.000368  -0.000458  -0.000637
  101  C 15  X    0.001287   0.000260   0.000084  -0.000019   0.000743
  102  C 15  Y    0.000607   0.000069   0.000020  -0.000012  -0.000218
  103  C 15  Z   -0.000540  -0.000069  -0.000005  -0.000009  -0.000076
  104  C 15  S    0.020130   0.004905   0.001341   0.002593  -0.001668
  105  C 15  X    0.004181  -0.003434  -0.000906  -0.000697   0.000587
  106  C 15  Y    0.006090   0.000922   0.000136   0.001024   0.000671
  107  C 15  Z   -0.006008   0.000218  -0.000107  -0.000344   0.001944
  108  O 16  S    0.983207  -0.000008  -0.000001   0.000008  -0.000028
  109  O 16  S    0.097529  -0.000096  -0.000020   0.000041  -0.000276
  110  O 16  X   -0.000741   0.000009   0.000006   0.000058   0.000216
  111  O 16  Y   -0.003267   0.000013   0.000002  -0.000042  -0.000105
  112  O 16  Z    0.000804  -0.000040  -0.000018   0.000003  -0.000073
  113  O 16  S   -0.043393   0.000342   0.000068  -0.000321   0.000818
  114  O 16  X    0.003830   0.000012  -0.000002  -0.000084  -0.001104
  115  O 16  Y    0.007337  -0.000129  -0.000020   0.000216   0.000275
  116  O 16  Z   -0.002463   0.000155   0.000075  -0.000077   0.000205
  117  H 17  S   -0.000006   0.000163  -0.000951  -0.000890  -0.000352
  118  H 17  S    0.000115  -0.001126   0.013060   0.003045   0.000190
  119  H 18  S   -0.000040   0.000403  -0.000348  -0.000643  -0.000342
  120  H 18  S   -0.000004   0.000251   0.002248   0.002707  -0.000373
  121  H 19  S    0.000042  -0.000200  -0.000056  -0.000529  -0.000693
  122  H 19  S    0.000004   0.003400  -0.000065   0.001987   0.000252
  123  H 20  S    0.000094  -0.000671   0.000022   0.000088  -0.000225
  124  H 20  S   -0.000494   0.000200  -0.000207  -0.000663   0.003083
  125  H 21  S   -0.000608  -0.000282  -0.000014   0.000015   0.000792
  126  H 21  S    0.003427  -0.000449   0.000008   0.000071   0.000866
  127  H 22  S   -0.001083  -0.000366  -0.000088  -0.000109   0.000142
  128  H 22  S   -0.000211  -0.000441  -0.000042  -0.000027  -0.001598
  129  H 23  S   -0.001245  -0.000629  -0.000158  -0.000064  -0.000149
  130  H 23  S   -0.002005   0.000825   0.000045   0.000048   0.001709
  131  H 24  S    0.002954  -0.000094  -0.000017   0.000100   0.000245
  132  H 24  S    0.004986   0.000352   0.000090   0.000067   0.000221

                     11         12         13         14         15
                  -11.4025   -11.3803    -1.7950    -1.6152    -1.5512
                     A          A          A          A          A   
    1  O  1  S    0.000014  -0.000002  -0.002451  -0.200847   0.085433
    2  O  1  S    0.000107  -0.000012   0.001942   0.191818  -0.081868
    3  O  1  X    0.000013   0.000020   0.001846   0.098399  -0.034696
    4  O  1  Y   -0.000015   0.000011  -0.000290  -0.016785   0.002223
    5  O  1  Z    0.000021   0.000015  -0.000312  -0.049896   0.026072
    6  O  1  S   -0.000639   0.000109   0.010588   0.638048  -0.283974
    7  O  1  X   -0.000301  -0.000076   0.002156   0.116435  -0.043878
    8  O  1  Y    0.000182  -0.000043  -0.000588  -0.022307   0.003439
    9  O  1  Z   -0.000053  -0.000071  -0.000753  -0.052274   0.031830
   10  C  2  S    0.000478   0.000333  -0.003449  -0.105925   0.028720
   11  C  2  S   -0.000335  -0.000232   0.002387   0.116026  -0.029532
   12  C  2  X   -0.000044  -0.000122   0.000657  -0.099056   0.063379
   13  C  2  Y    0.000043  -0.000015  -0.001039   0.005343  -0.017073
   14  C  2  Z   -0.000047  -0.000025   0.002571   0.079463  -0.017980
   15  C  2  S    0.002949   0.000624   0.002327   0.092870  -0.031324
   16  C  2  X    0.000730   0.000533   0.004603   0.042128  -0.030788
   17  C  2  Y   -0.001280   0.000017   0.003649   0.000229  -0.002628
   18  C  2  Z    0.001436  -0.000050  -0.008805  -0.035029   0.030352
   19  C  3  S    0.001621   0.000466  -0.013032  -0.041551  -0.066640
   20  C  3  S   -0.000871  -0.000305   0.011808   0.037838   0.070275
   21  C  3  X   -0.000567  -0.000063   0.008924  -0.024914  -0.010143
   22  C  3  Y    0.000243  -0.000018   0.010084   0.006835  -0.012011
   23  C  3  Z   -0.000133  -0.000072   0.006408   0.016640   0.063554
   24  C  3  S    0.003465   0.001461   0.025535   0.084683   0.128214
   25  C  3  X    0.005723   0.000713  -0.010020  -0.015496   0.011450
   26  C  3  Y   -0.000760   0.000521   0.010118   0.014893   0.007695
   27  C  3  Z    0.001020   0.000615   0.021901   0.024713  -0.026508
   28  H  4  S   -0.000721  -0.000002   0.004420   0.012179   0.017507
   29  H  4  S   -0.000069   0.000101   0.002569   0.000006  -0.010637
   30  O  5  S    0.000016   0.000011  -0.012825  -0.073298  -0.193696
   31  O  5  S    0.000107   0.000093   0.011437   0.069735   0.177137
   32  O  5  X    0.000055   0.000008   0.001202  -0.014357  -0.027419
   33  O  5  Y   -0.000035   0.000022   0.005576   0.016296   0.033712
   34  O  5  Z   -0.000042  -0.000021  -0.004245  -0.022642  -0.045564
   35  O  5  S   -0.000567  -0.000409   0.032121   0.213041   0.621804
   36  O  5  X   -0.000625  -0.000106   0.005293  -0.020337  -0.031317
   37  O  5  Y    0.000123  -0.000131   0.010368   0.020337   0.050373
   38  O  5  Z    0.000354   0.000201   0.002608  -0.022907  -0.067572
   39  C  6  S    0.001271   0.000715  -0.054851  -0.004841  -0.018765
   40  C  6  S   -0.000375  -0.001129   0.063200   0.007048   0.017475
   41  C  6  X   -0.001063  -0.000415  -0.009413  -0.010897  -0.008486
   42  C  6  Y   -0.000076  -0.000109   0.031514  -0.006935  -0.022662
   43  C  6  Z   -0.000169  -0.000030   0.050593  -0.002659  -0.003351
   44  C  6  S   -0.002422   0.005320   0.046202   0.006361   0.028516
   45  C  6  X    0.002771   0.004811   0.008192   0.021035  -0.007355
   46  C  6  Y    0.002426  -0.000457  -0.019767  -0.007385  -0.000624
   47  C  6  Z    0.001642   0.000719  -0.040074   0.000636   0.026481
   48  H  7  S   -0.000249  -0.000639   0.012714   0.003118   0.007003
   49  H  7  S    0.000469   0.000248  -0.011262  -0.003611   0.006984
   50  O  8  S    0.000057   0.000023  -0.236527   0.014473   0.027540
   51  O  8  S    0.000569   0.000162   0.234714  -0.015401  -0.026192
   52  O  8  X    0.000281   0.000061  -0.025991  -0.001200  -0.001198
   53  O  8  Y   -0.000006  -0.000005  -0.076105   0.000837  -0.003185
   54  O  8  Z   -0.000108  -0.000035  -0.009941  -0.001186  -0.003780
   55  O  8  S   -0.001666  -0.000811   0.761087  -0.045745  -0.105432
   56  O  8  X   -0.001308  -0.000553  -0.033215  -0.002679  -0.002692
   57  O  8  Y    0.000181   0.000269  -0.112759   0.003737   0.006005
   58  O  8  Z    0.000712   0.000423  -0.027563  -0.002795   0.002043
   59  C  9  S    0.002980   0.001930  -0.009132  -0.001530  -0.028541
   60  C  9  S   -0.002770  -0.000515   0.010316   0.003375   0.030213
   61  C  9  X    0.000370  -0.001275  -0.008458  -0.000511  -0.000318
   62  C  9  Y    0.000183   0.000160   0.008450  -0.000219  -0.007478
   63  C  9  Z    0.000186  -0.000321   0.000166  -0.000538  -0.015966
   64  C  9  S    0.027795  -0.001722   0.008079  -0.012294   0.050221
   65  C  9  X    0.016071   0.004858  -0.004669   0.001011  -0.001281
   66  C  9  Y    0.007845  -0.002710   0.004133  -0.008053   0.006563
   67  C  9  Z   -0.002103   0.000764   0.025164   0.000305  -0.013367
   68  H 10  S   -0.001165  -0.000402   0.000404   0.001073   0.009774
   69  H 10  S    0.000976  -0.000353  -0.005921  -0.000097   0.007222
   70  O 11  S    0.000042   0.000050  -0.002340  -0.002422  -0.056767
   71  O 11  S   -0.000048   0.000511   0.001185   0.002228   0.053404
   72  O 11  X   -0.000328   0.000277  -0.000836  -0.000042   0.004206
   73  O 11  Y   -0.000437  -0.000041   0.001486   0.000923   0.021148
   74  O 11  Z   -0.000278   0.000185   0.000480   0.000431   0.003983
   75  O 11  S   -0.002274  -0.001311   0.013913   0.007051   0.173080
   76  O 11  X    0.000197  -0.001356   0.002567  -0.000586   0.005826
   77  O 11  Y   -0.000055   0.000065   0.002537   0.001750   0.025280
   78  O 11  Z   -0.000054  -0.001017   0.002671  -0.000120   0.004208
   79  C 12  S    0.988376   0.006493  -0.002403  -0.000385  -0.017213
   80  C 12  S    0.106343  -0.001810   0.000900   0.000071   0.018150
   81  C 12  X   -0.000432  -0.000003  -0.001631  -0.000897  -0.003312
   82  C 12  Y   -0.001301   0.000124  -0.000025  -0.000003  -0.003608
   83  C 12  Z   -0.000506   0.000282   0.001084  -0.000375  -0.010571
   84  C 12  S   -0.098929   0.020963   0.005398   0.006705   0.029288
   85  C 12  X    0.001970   0.012320  -0.004584   0.001578   0.005957
   86  C 12  Y    0.014858  -0.007561  -0.002727  -0.003793  -0.002787
   87  C 12  Z    0.002437   0.002528  -0.011490   0.001327   0.001388
   88  H 13  S    0.000375  -0.001167   0.001659   0.000098   0.005201
   89  H 13  S    0.012504   0.001343   0.006961  -0.000233  -0.004126
   90  O 14  S   -0.000333   0.000017  -0.000729  -0.000487  -0.031562
   91  O 14  S   -0.001458  -0.000206   0.001469   0.000345   0.028809
   92  O 14  X    0.000072  -0.000092  -0.000283   0.000078   0.004448
   93  O 14  Y   -0.000086   0.000365  -0.000072  -0.000144  -0.004805
   94  O 14  Z    0.000485  -0.000337   0.000744   0.000100   0.008741
   95  O 14  S    0.012584  -0.001110  -0.002021   0.001792   0.097973
   96  O 14  X   -0.001218  -0.000443   0.000458  -0.000513   0.004911
   97  O 14  Y   -0.002396  -0.000494  -0.000017   0.000102  -0.006228
   98  O 14  Z    0.005338   0.000107  -0.002392   0.000411   0.010519
   99  C 15  S   -0.007503   0.987672  -0.000188   0.000040  -0.007405
  100  C 15  S   -0.004231   0.101726   0.000249   0.000735   0.008273
  101  C 15  X   -0.000730  -0.000724  -0.000364  -0.000069  -0.001323
  102  C 15  Y    0.000385   0.000142  -0.000062  -0.000024   0.003464
  103  C 15  Z    0.000269  -0.000309  -0.000168  -0.000042  -0.003743
  104  C 15  S    0.028393  -0.079842   0.001367  -0.004289   0.008316
  105  C 15  X   -0.012698   0.009330   0.000156   0.002442   0.000807
  106  C 15  Y    0.005965  -0.002647   0.002685  -0.001096  -0.002251
  107  C 15  Z   -0.007508   0.002297   0.002750   0.000557  -0.000606
  108  O 16  S    0.000088  -0.000200  -0.000052  -0.000086  -0.011599
  109  O 16  S    0.000450  -0.000458   0.000096   0.000033   0.010648
  110  O 16  X    0.000379  -0.000448  -0.000058   0.000004  -0.002013
  111  O 16  Y   -0.000156  -0.000406   0.000013  -0.000032  -0.003043
  112  O 16  Z   -0.000235   0.000254   0.000084   0.000008   0.000374
  113  O 16  S   -0.003000   0.007725  -0.000082   0.000441   0.035896
  114  O 16  X    0.000422  -0.002840   0.000098  -0.000266  -0.002409
  115  O 16  Y    0.000990  -0.000981  -0.000156   0.000024  -0.003793
  116  O 16  Z    0.000658   0.001132  -0.000583  -0.000028   0.000294
  117  H 17  S   -0.000004  -0.000094  -0.000151   0.020508  -0.003622
  118  H 17  S    0.000531  -0.000089  -0.005406  -0.022917   0.012922
  119  H 18  S   -0.000119   0.000008   0.003275   0.038643   0.075801
  120  H 18  S    0.000082  -0.000008   0.000830   0.002280   0.003545
  121  H 19  S    0.000038  -0.000044   0.079232  -0.001021   0.002284
  122  H 19  S   -0.000568  -0.000113  -0.014486   0.001844   0.003492
  123  H 20  S   -0.000557   0.000171   0.001496   0.000742   0.024727
  124  H 20  S    0.002148  -0.000733  -0.001632   0.000235   0.000027
  125  H 21  S   -0.000452  -0.000439   0.000382   0.000215   0.012383
  126  H 21  S    0.002433   0.001912  -0.001084   0.000226   0.000451
  127  H 22  S   -0.001195   0.000044  -0.000199   0.000199   0.002220
  128  H 22  S    0.002197   0.014273  -0.001207  -0.000028  -0.001144
  129  H 23  S   -0.001907   0.000528   0.000313   0.000346   0.003174
  130  H 23  S   -0.002182   0.015263   0.001979  -0.000118  -0.000182
  131  H 24  S    0.000501  -0.000461  -0.000045   0.000089   0.004390
  132  H 24  S    0.000807   0.002019   0.000038  -0.000182   0.000232

                     16         17         18         19         20
                   -1.5428    -1.5024    -1.4669    -1.2913    -1.2109
                     A          A          A          A          A   
    1  O  1  S   -0.026119   0.001877  -0.000299   0.017960   0.028672
    2  O  1  S    0.024991  -0.001845   0.000340  -0.018959  -0.028806
    3  O  1  X    0.010276  -0.000691   0.000110   0.004054   0.013430
    4  O  1  Y   -0.000463  -0.000044   0.000004  -0.000226  -0.003726
    5  O  1  Z   -0.008351   0.000766  -0.000177  -0.000306  -0.001157
    6  O  1  S    0.087592  -0.006324   0.000806  -0.054848  -0.099652
    7  O  1  X    0.013778  -0.000737   0.000075   0.004558   0.007555
    8  O  1  Y   -0.000687  -0.000322   0.000272  -0.000761  -0.002148
    9  O  1  Z   -0.009794   0.001027  -0.000171   0.000409  -0.000026
   10  C  2  S   -0.008604   0.000917  -0.000254  -0.030963  -0.050755
   11  C  2  S    0.010190  -0.001167   0.000539   0.043699   0.061691
   12  C  2  X   -0.018735   0.000694   0.000209   0.053212   0.072055
   13  C  2  Y    0.005644  -0.000403   0.000043  -0.016079  -0.027059
   14  C  2  Z    0.004940  -0.000105  -0.000031   0.001099   0.000551
   15  C  2  S    0.005505  -0.003112   0.001115   0.019827   0.090612
   16  C  2  X    0.007029  -0.001680   0.000072   0.002720   0.020366
   17  C  2  Y    0.001496   0.000866  -0.000978   0.012123  -0.000997
   18  C  2  Z   -0.012406   0.000684   0.000148  -0.025143  -0.017909
   19  C  3  S    0.018093   0.001100  -0.001095  -0.095486  -0.098104
   20  C  3  S   -0.019105  -0.001415   0.000977   0.095479   0.085521
   21  C  3  X    0.011282  -0.004992   0.001860   0.052563  -0.006656
   22  C  3  Y    0.004758  -0.001138   0.000265   0.046910   0.038591
   23  C  3  Z   -0.024742   0.004811  -0.001572  -0.033094  -0.044083
   24  C  3  S   -0.036333   0.005196   0.000427   0.242673   0.320379
   25  C  3  X   -0.005247  -0.001528   0.002421  -0.025424   0.005737
   26  C  3  Y   -0.001377   0.002303  -0.000255   0.026899   0.053261
   27  C  3  Z    0.010557  -0.004833   0.003312  -0.024012  -0.004912
   28  H  4  S   -0.000961  -0.003035   0.001456   0.049441   0.050084
   29  H  4  S    0.008641  -0.005591   0.003565  -0.012693   0.009178
   30  O  5  S    0.071062  -0.010959   0.003145   0.052761   0.042464
   31  O  5  S   -0.064638   0.009748  -0.002760  -0.045946  -0.035826
   32  O  5  X    0.011637  -0.002891   0.001056   0.035605   0.027306
   33  O  5  Y   -0.012420   0.001884  -0.000539   0.001417   0.007235
   34  O  5  Z    0.015310  -0.001401   0.000200  -0.027229  -0.036377
   35  O  5  S   -0.230217   0.037099  -0.011247  -0.198711  -0.174813
   36  O  5  X    0.012328  -0.001975   0.000691   0.028702   0.017007
   37  O  5  Y   -0.019058   0.002655  -0.000523  -0.011593  -0.004965
   38  O  5  Z    0.024852  -0.003939   0.001265  -0.004987  -0.011683
   39  C  6  S   -0.014521   0.011023  -0.002241  -0.152606  -0.015723
   40  C  6  S    0.017215  -0.010030   0.002853   0.147450   0.015124
   41  C  6  X    0.021952  -0.008407   0.000373   0.000780  -0.105695
   42  C  6  Y   -0.008787   0.010046  -0.004640  -0.039158   0.000149
   43  C  6  Z   -0.003455   0.001387   0.000603  -0.012112  -0.025462
   44  C  6  S    0.015401  -0.030808   0.001861   0.423230   0.045525
   45  C  6  X   -0.002086   0.000794  -0.003991  -0.004401   0.009100
   46  C  6  Y   -0.001957   0.008910   0.000298  -0.037727  -0.004438
   47  C  6  Z   -0.018729   0.014319  -0.013662   0.013115  -0.015885
   48  H  7  S    0.006273  -0.002898  -0.000523   0.080520   0.010958
   49  H  7  S   -0.001090   0.008134  -0.010541  -0.005022   0.004390
   50  O  8  S    0.002113  -0.003281  -0.000076   0.052006   0.003018
   51  O  8  S   -0.002763   0.003815  -0.000621  -0.050193  -0.004544
   52  O  8  X    0.007185  -0.002171  -0.000698   0.043214  -0.064272
   53  O  8  Y   -0.000183   0.001210  -0.000383  -0.049023   0.008089
   54  O  8  Z   -0.004363   0.002427   0.000199  -0.118926  -0.025524
   55  O  8  S   -0.002511   0.008298   0.003998  -0.218169  -0.005518
   56  O  8  X    0.005844  -0.001170  -0.000357   0.037686  -0.062536
   57  O  8  Y    0.000257   0.000050  -0.001575  -0.021330   0.006144
   58  O  8  Z   -0.004395   0.003188  -0.001461  -0.087048  -0.021330
   59  C  9  S   -0.070164   0.038083  -0.010743  -0.081150   0.098124
   60  C  9  S    0.072825  -0.039630   0.012756   0.083145  -0.094603
   61  C  9  X    0.015105   0.010489  -0.008650  -0.049656  -0.051046
   62  C  9  Y   -0.019360   0.031025  -0.023542   0.062213  -0.050762
   63  C  9  Z   -0.047632   0.034855  -0.013925   0.022422  -0.038083
   64  C  9  S    0.133386  -0.076267   0.028994   0.188264  -0.277895
   65  C  9  X   -0.010191  -0.007192  -0.007996   0.016519   0.018039
   66  C  9  Y    0.017444  -0.000635   0.004036   0.023761  -0.044265
   67  C  9  Z    0.001260  -0.016425   0.019676   0.002603  -0.021949
   68  H 10  S    0.020230  -0.010021   0.003486   0.042746  -0.055542
   69  H 10  S   -0.009651   0.007518  -0.006209  -0.006865  -0.001215
   70  O 11  S   -0.155764   0.125530  -0.061001   0.061629  -0.045374
   71  O 11  S    0.144316  -0.116081   0.055257  -0.055276   0.041666
   72  O 11  X    0.015443  -0.008051   0.002436  -0.021304  -0.002071
   73  O 11  Y    0.056723  -0.038903   0.015320   0.002483  -0.008343
   74  O 11  Z    0.008036  -0.005112   0.002246   0.026846  -0.038853
   75  O 11  S    0.487330  -0.401809   0.204355  -0.223143   0.166598
   76  O 11  X    0.020010  -0.008932   0.003470  -0.020911  -0.005640
   77  O 11  Y    0.073981  -0.056575   0.025800  -0.017903   0.006864
   78  O 11  Z    0.014560  -0.009966   0.007005   0.012622  -0.024543
   79  C 12  S   -0.056838  -0.039482   0.037230  -0.033339   0.113414
   80  C 12  S    0.058210   0.039850  -0.040997   0.036769  -0.107704
   81  C 12  X   -0.005070   0.028901   0.002794  -0.032063   0.027481
   82  C 12  Y   -0.008805   0.011066  -0.019841  -0.011446   0.046128
   83  C 12  Z   -0.035905  -0.030976   0.050947   0.015701  -0.047755
   84  C 12  S    0.101289   0.082181  -0.070510   0.063790  -0.302987
   85  C 12  X    0.008067   0.000839   0.016137   0.013772   0.012303
   86  C 12  Y   -0.011457   0.003168  -0.000681   0.005329   0.032589
   87  C 12  Z   -0.007019   0.011077  -0.014439   0.014926  -0.014965
   88  H 13  S    0.016752   0.010739  -0.011138   0.021346  -0.062136
   89  H 13  S   -0.004039  -0.006631   0.007216  -0.010418  -0.003784
   90  O 14  S   -0.110320  -0.111414   0.152012   0.023768  -0.057002
   91  O 14  S    0.101388   0.103019  -0.139132  -0.021282   0.049231
   92  O 14  X    0.017284   0.030168  -0.027209  -0.014883   0.033464
   93  O 14  Y   -0.015155  -0.005689   0.008082  -0.000496   0.014027
   94  O 14  Z    0.030037   0.027350  -0.031360   0.008892  -0.037348
   95  O 14  S    0.339980   0.350521  -0.492383  -0.083010   0.218927
   96  O 14  X    0.019731   0.035974  -0.034969  -0.013493   0.024107
   97  O 14  Y   -0.020605  -0.009348   0.013970   0.003552   0.000608
   98  O 14  Z    0.035217   0.040087  -0.049899   0.001442  -0.010154
   99  C 15  S   -0.026953  -0.052592  -0.041930  -0.009497   0.068268
  100  C 15  S    0.029331   0.056196   0.045716   0.013280  -0.072144
  101  C 15  X   -0.002357   0.026422   0.049734  -0.011596   0.056159
  102  C 15  Y    0.012988   0.028868   0.016448   0.002620  -0.010496
  103  C 15  Z   -0.013658  -0.024893  -0.015224   0.001502  -0.002628
  104  C 15  S    0.036785   0.093085   0.072286   0.009831  -0.158239
  105  C 15  X    0.000265  -0.000201  -0.004886   0.006930   0.010514
  106  C 15  Y   -0.003025  -0.003615  -0.004046  -0.007354   0.008021
  107  C 15  Z   -0.000646  -0.007184   0.013457   0.001563  -0.010598
  108  O 16  S   -0.046069  -0.144526  -0.164457   0.003717  -0.029031
  109  O 16  S    0.042345   0.133956   0.153302  -0.002947   0.025841
  110  O 16  X   -0.007078  -0.008592   0.004427  -0.002471   0.028784
  111  O 16  Y   -0.012170  -0.039970  -0.048548   0.000159  -0.001668
  112  O 16  Z    0.001626   0.007163   0.012317   0.002190  -0.012512
  113  O 16  S    0.142571   0.450877   0.521621  -0.014163   0.108478
  114  O 16  X   -0.009314  -0.019597  -0.006259   0.000780   0.015599
  115  O 16  Y   -0.015115  -0.049528  -0.066778   0.000200  -0.005179
  116  O 16  Z    0.001026   0.009016   0.019464   0.001000  -0.006701
  117  H 17  S    0.001517  -0.000246   0.000101   0.019366   0.032491
  118  H 17  S   -0.004861  -0.000044   0.000593  -0.005261  -0.002594
  119  H 18  S   -0.028627   0.005097  -0.001598  -0.038183  -0.032603
  120  H 18  S   -0.002385   0.001166  -0.000538  -0.020325  -0.024192
  121  H 19  S   -0.006478   0.002023   0.000260  -0.052352   0.001984
  122  H 19  S   -0.003626   0.001331   0.000150  -0.037470  -0.011284
  123  H 20  S    0.070478  -0.046446   0.017210  -0.035869   0.030225
  124  H 20  S    0.003043  -0.001145  -0.001541  -0.020024   0.028080
  125  H 21  S    0.044760   0.055772  -0.055575  -0.016348   0.042524
  126  H 21  S    0.001425   0.007049  -0.001278  -0.007363   0.027897
  127  H 22  S    0.007558   0.015567   0.012625   0.005647  -0.036475
  128  H 22  S   -0.004290  -0.004368  -0.005541   0.000735   0.004575
  129  H 23  S    0.010551   0.014583   0.013853   0.005637  -0.037463
  130  H 23  S    0.001835  -0.009217   0.001702  -0.008322   0.005895
  131  H 24  S    0.017841   0.062221   0.076087  -0.002644   0.025386
  132  H 24  S    0.001645   0.009415   0.014350  -0.002597   0.013509

                     21         22         23         24         25
                   -1.1451    -1.0843    -1.0392    -1.0143    -0.9743
                     A          A          A          A          A   
    1  O  1  S    0.039385   0.003198   0.047773  -0.002793  -0.040522
    2  O  1  S   -0.039308  -0.003358  -0.047675   0.002007   0.042351
    3  O  1  X    0.027218   0.002870   0.051521  -0.004703  -0.059733
    4  O  1  Y   -0.009092  -0.001935  -0.018780  -0.004076  -0.012546
    5  O  1  Z   -0.006443  -0.005950  -0.025889  -0.003451   0.049473
    6  O  1  S   -0.143082  -0.010321  -0.183729   0.014688   0.146011
    7  O  1  X    0.018180   0.003803   0.037940  -0.001587  -0.054825
    8  O  1  Y   -0.006382  -0.001541  -0.016701  -0.004981  -0.011628
    9  O  1  Z   -0.003818  -0.004647  -0.023151  -0.003691   0.045611
   10  C  2  S   -0.072041  -0.008612  -0.087464   0.003014   0.072600
   11  C  2  S    0.086811   0.012847   0.099121  -0.000154  -0.082275
   12  C  2  X    0.085811   0.005536   0.059737  -0.003361  -0.012873
   13  C  2  Y   -0.037010  -0.008066  -0.026470  -0.007564  -0.036688
   14  C  2  Z   -0.002704  -0.001216  -0.027983   0.001119   0.046024
   15  C  2  S    0.145053   0.003113   0.247734  -0.024751  -0.220039
   16  C  2  X    0.030109  -0.005499   0.060440  -0.007633  -0.060384
   17  C  2  Y   -0.007349  -0.000325  -0.020695  -0.001954  -0.016600
   18  C  2  Z   -0.019935  -0.011052  -0.012445  -0.007638   0.058150
   19  C  3  S   -0.092070  -0.029693  -0.009115  -0.018973  -0.057173
   20  C  3  S    0.077033   0.024289   0.008064   0.021355   0.053020
   21  C  3  X   -0.061535   0.010257  -0.137736   0.007951   0.058433
   22  C  3  Y    0.019165  -0.027000  -0.013772  -0.029589  -0.113900
   23  C  3  Z   -0.054369  -0.008964  -0.065229   0.001273  -0.009240
   24  C  3  S    0.346763   0.125706   0.054818   0.059299   0.248606
   25  C  3  X   -0.009903   0.010073  -0.039876  -0.002796   0.059428
   26  C  3  Y    0.056009  -0.001180  -0.018386  -0.022141  -0.081651
   27  C  3  Z   -0.015529  -0.014910  -0.039610  -0.024398  -0.057532
   28  H  4  S    0.052028   0.031133   0.013412   0.024611   0.092209
   29  H  4  S    0.008035   0.000094  -0.009849   0.003637   0.012518
   30  O  5  S    0.037444   0.016012  -0.002544   0.002982   0.006619
   31  O  5  S   -0.032610  -0.015299   0.002490  -0.003319  -0.004528
   32  O  5  X    0.020159   0.039981  -0.070455   0.021377   0.038450
   33  O  5  Y    0.010077   0.008028  -0.026041  -0.012074  -0.052044
   34  O  5  Z   -0.042197  -0.013879  -0.011072  -0.020756  -0.066437
[...]
   15 C            -0.000151                     0.000370
   16 O             0.000403                     0.000418
   17 H             0.029241                     0.016732
   18 H            -0.001486                    -0.000756
   19 H            -0.045379                    -0.036782
   20 H            -0.001212                    -0.000846
   21 H            -0.000238                    -0.000192
   22 H             0.000045                     0.000029
   23 H             0.000193                     0.000267
   24 H             0.000084                     0.000076


          ********* ALL ELECTRONS ********

               ----- POPULATIONS IN EACH AO -----
                             MULLIKEN      LOWDIN
              1  O  1  S      1.98716     1.98201
              2  O  1  S      0.43736     0.59456
              3  O  1  X      0.68019     0.67096
              4  O  1  Y      0.61441     0.60883
              5  O  1  Z      0.74769     0.74381
              6  O  1  S      1.55641     1.05646
              7  O  1  X      0.77923     0.82509
              8  O  1  Y      0.78735     0.79846
              9  O  1  Z      0.87432     0.89988
             10  C  2  S      1.98740     1.97709
             11  C  2  S      0.42058     0.44639
             12  C  2  X      0.55769     0.54316
             13  C  2  Y      0.41297     0.39745
             14  C  2  Z      0.56715     0.53682
             15  C  2  S      0.75979     0.56485
             16  C  2  X      0.14241     0.40927
             17  C  2  Y      0.42098     0.47879
             18  C  2  Z      0.41308     0.50728
             19  C  3  S      1.99020     1.97579
             20  C  3  S      0.34822     0.42907
             21  C  3  X      0.54357     0.53266
             22  C  3  Y      0.56193     0.54225
             23  C  3  Z      0.46290     0.45203
             24  C  3  S      1.08679     0.56605
             25  C  3  X      0.30103     0.49231
             26  C  3  Y      0.51428     0.55531
             27  C  3  Z      0.29451     0.44763
             28  H  4  S      0.44800     0.45579
             29  H  4  S      0.18306     0.37863
             30  O  5  S      1.98620     1.98042
             31  O  5  S      0.41373     0.57396
             32  O  5  X      0.64373     0.63104
             33  O  5  Y      0.82271     0.83249
             34  O  5  Z      0.60464     0.59755
             35  O  5  S      1.52692     1.04611
             36  O  5  X      0.83960     0.83578
             37  O  5  Y      1.03311     1.03550
             38  O  5  Z      0.80946     0.85521
             39  C  6  S      1.99048     1.97641
             40  C  6  S      0.35923     0.44419
             41  C  6  X      0.59143     0.58700
             42  C  6  Y      0.50954     0.49450
             43  C  6  Z      0.45504     0.44417
             44  C  6  S      1.07047     0.56785
             45  C  6  X      0.37527     0.52607
             46  C  6  Y      0.36461     0.48216
             47  C  6  Z      0.38460     0.46275
             48  H  7  S      0.45224     0.46138
             49  H  7  S      0.17326     0.37682
             50  O  8  S      1.98715     1.98197
             51  O  8  S      0.44918     0.60716
             52  O  8  X      0.58864     0.58392
             53  O  8  Y      0.76400     0.76064
             54  O  8  Z      0.66356     0.65110
             55  O  8  S      1.53518     1.04624
             56  O  8  X      0.62082     0.61975
             57  O  8  Y      0.86103     0.86144
             58  O  8  Z      0.75685     0.75452
             59  C  9  S      1.99008     1.97566
             60  C  9  S      0.35178     0.42549
             61  C  9  X      0.52172     0.51357
             62  C  9  Y      0.50885     0.48707
             63  C  9  Z      0.51717     0.50244
             64  C  9  S      1.02114     0.55437
             65  C  9  X      0.25636     0.48219
             66  C  9  Y      0.31616     0.48501
             67  C  9  Z      0.45903     0.50596
             68  H 10  S      0.46747     0.47836
             69  H 10  S      0.23618     0.40266
             70  O 11  S      1.98636     1.98079
             71  O 11  S      0.41877     0.58057
             72  O 11  X      0.80104     0.80547
             73  O 11  Y      0.67718     0.67450
             74  O 11  Z      0.58169     0.56545
             75  O 11  S      1.53253     1.05520
             76  O 11  X      1.00389     1.00484
             77  O 11  Y      0.89245     0.91945
             78  O 11  Z      0.73797     0.78317
             79  C 12  S      1.99023     1.97581
             80  C 12  S      0.35056     0.42597
             81  C 12  X      0.55286     0.54535
             82  C 12  Y      0.55528     0.53208
             83  C 12  Z      0.44232     0.43007
             84  C 12  S      1.03891     0.55949
             85  C 12  X      0.31390     0.50028
             86  C 12  Y      0.47285     0.54333
             87  C 12  Z      0.28623     0.44163
             88  H 13  S      0.47639     0.48630
             89  H 13  S      0.27729     0.42285
             90  O 14  S      1.98605     1.98029
             91  O 14  S      0.41086     0.57135
             92  O 14  X      0.65726     0.64763
             93  O 14  Y      0.83471     0.84689
             94  O 14  Z      0.58640     0.57872
             95  O 14  S      1.52231     1.04989
             96  O 14  X      0.86806     0.85447
             97  O 14  Y      1.04524     1.04251
             98  O 14  Z      0.79108     0.84601
             99  C 15  S      1.98847     1.97575
            100  C 15  S      0.36050     0.42311
            101  C 15  X      0.44964     0.44368
            102  C 15  Y      0.53996     0.51139
            103  C 15  Z      0.56153     0.52880
            104  C 15  S      1.02464     0.57767
            105  C 15  X      0.25597     0.43514
            106  C 15  Y      0.41307     0.53434
            107  C 15  Z      0.52418     0.56677
            108  O 16  S      1.98579     1.98018
            109  O 16  S      0.41362     0.56982
            110  O 16  X      0.57515     0.55927
            111  O 16  Y      0.69920     0.69667
            112  O 16  Z      0.80538     0.81330
            113  O 16  S      1.50449     1.04817
            114  O 16  X      0.74511     0.76697
            115  O 16  Y      0.93119     0.93919
            116  O 16  Z      1.01181     1.01506
            117  H 17  S      0.46728     0.46539
            118  H 17  S      0.25474     0.42550
            119  H 18  S      0.37436     0.39338
            120  H 18  S      0.17605     0.31409
            121  H 19  S      0.35180     0.36528
            122  H 19  S      0.13513     0.29213
            123  H 20  S      0.37653     0.39380
            124  H 20  S      0.18920     0.32656
            125  H 21  S      0.36884     0.38818
            126  H 21  S      0.17412     0.31880
            127  H 22  S      0.47521     0.47682
            128  H 22  S      0.28719     0.42613
            129  H 23  S      0.47278     0.47804
            130  H 23  S      0.27829     0.42356
            131  H 24  S      0.39939     0.41644
            132  H 24  S      0.17948     0.30072

          ----- MULLIKEN ATOMIC OVERLAP POPULATIONS -----
          (OFF-DIAGONAL ELEMENTS NEED TO BE MULTIPLIED BY 2)

             1           2           3           4           5

    1    8.0927700
    2    0.4613862   4.9091363
    3   -0.0811254   0.1065294   5.7560417
    4    0.0004848  -0.0296932   0.3397386   0.3663834
    5   -0.0074812  -0.0363128   0.2058310  -0.0181778   8.2807587
    6    0.0011622  -0.0768202   0.0899735  -0.0493889  -0.0570659
    7   -0.0000058  -0.0005970  -0.0335597   0.0018208   0.0012108
    8    0.0000047   0.0011034  -0.0348222   0.0010630  -0.0099437
    9   -0.0000206   0.0027583  -0.0645093  -0.0067436  -0.0006294
   10   -0.0000000   0.0000623  -0.0028366   0.0003596   0.0041216
   11   -0.0000000   0.0000541  -0.0062280   0.0199035   0.0000173
   12    0.0000000  -0.0000624   0.0043175   0.0004572  -0.0000103
   13    0.0000000   0.0000005  -0.0000373  -0.0000228  -0.0000004
   14   -0.0000000   0.0000000  -0.0000190  -0.0000010  -0.0000000
   15   -0.0000000   0.0000002  -0.0000669  -0.0000022   0.0000000
   16    0.0000000  -0.0000000   0.0000000   0.0000000  -0.0000000
   17   -0.0420924   0.3483798  -0.0875422   0.0021728   0.0012637
   18    0.0387936  -0.0057381  -0.0741177   0.0018118   0.2524101
   19    0.0002391   0.0018551  -0.0139446   0.0011528   0.0641041
   20    0.0000000  -0.0000119  -0.0001877  -0.0002548  -0.0000015
   21    0.0000000  -0.0000000   0.0000039   0.0000002   0.0000000
   22    0.0000000  -0.0000000   0.0000014  -0.0000001  -0.0000000
   23   -0.0000000   0.0000000  -0.0000015  -0.0000065  -0.0000000
   24   -0.0000000   0.0000000  -0.0000000  -0.0000000   0.0000000

             6           7           8           9          10

    6    6.0080122
    7    0.3412617   0.3479861
    8    0.0620124  -0.0160921   8.0420701
    9    0.0301331  -0.0303940  -0.0218608   5.5099890
   10   -0.0655517   0.0021838   0.0007615   0.3825977   0.4339515
   11   -0.0451658   0.0003919   0.0001661   0.2452618  -0.0226810
   12   -0.0903132  -0.0068887   0.0006147   0.1414216  -0.0387354
   13   -0.0008963   0.0001634   0.0028877  -0.0568803   0.0020054
   14   -0.0021659   0.0101993   0.0000081  -0.0547528   0.0012918
   15    0.0047119   0.0002320   0.0000186  -0.0687478  -0.0008132
   16   -0.0000180   0.0000005  -0.0000000   0.0015292   0.0000078
   17    0.0041185   0.0019795   0.0000262  -0.0001742  -0.0000032
   18    0.0063072  -0.0000662   0.0003044  -0.0002019  -0.0000877
   19   -0.0602256   0.0032864   0.1981006   0.0015609   0.0024019
   20    0.0005722   0.0025907  -0.0000128  -0.0746196   0.0043890
   21   -0.0002959  -0.0001887  -0.0000009   0.0071275  -0.0000748
   22   -0.0001588  -0.0000058  -0.0000010   0.0013379   0.0011637
   23    0.0004819  -0.0000071  -0.0000015  -0.0017507  -0.0008619
   24    0.0000016   0.0000000   0.0000000  -0.0001486  -0.0000011

            11          12          13          14          15

   11    8.2318291
   12   -0.0365311   5.4833205
   13    0.0012592   0.3649224   0.4990830
   14   -0.0109178   0.2155173  -0.0263895   8.3197596
   15   -0.0061977   0.1885877  -0.0372174  -0.0416258   5.2006950
   16    0.0000018  -0.0470897   0.0003163  -0.0104315   0.2220803
   17    0.0000064   0.0000039  -0.0000000  -0.0000007  -0.0000000
   18   -0.0000028   0.0000017   0.0000000   0.0000000  -0.0000000
   19   -0.0000023  -0.0002501   0.0000742  -0.0000020  -0.0000078
   20    0.2490506  -0.0161744   0.0012232   0.0460103   0.0015018
   21    0.0001402  -0.0630679   0.0006788   0.2525197  -0.0115478
   22    0.0000968  -0.0485917  -0.0005239   0.0013811   0.3526216
   23    0.0114179  -0.0536196   0.0031000   0.0013396   0.3528469
   24    0.0000030   0.0052983  -0.0000676   0.0002453  -0.0390965

            16          17          18          19          20

   16    8.2495292
   17    0.0000000   0.4922498
   18    0.0000000   0.0016741   0.3312220
   19   -0.0000000  -0.0000442  -0.0019027   0.2905258
   20   -0.0000135  -0.0000008   0.0000002   0.0000049   0.3522081
   21    0.0443263   0.0000000   0.0000000   0.0000001  -0.0012504
   22   -0.0268827   0.0000000   0.0000000  -0.0000001   0.0000008
   23   -0.0268136  -0.0000000   0.0000000   0.0000003   0.0007072
   24    0.2651942  -0.0000000  -0.0000000   0.0000000  -0.0000056

            21          22          23          24

   21    0.3149124
   22    0.0010932   0.5088213
   23    0.0001684  -0.0280618   0.4954223
   24   -0.0015856   0.0001135  -0.0032888   0.3522082

          TOTAL MULLIKEN AND LOWDIN ATOMIC POPULATIONS
       ATOM         MULL.POP.    CHARGE          LOW.POP.     CHARGE
    1 O             8.464115   -0.464115         8.180061   -0.180061
    2 C             5.682030    0.317970         5.861110    0.138890
    3 C             6.103439   -0.103439         5.993102    0.006898
    4 H             0.631057    0.368943         0.834418    0.165582
    5 O             8.680094   -0.680094         8.388061   -0.388061
    6 C             6.100682   -0.100682         5.985088    0.014912
    7 H             0.625502    0.374498         0.838201    0.161799
    8 O             8.226406   -0.226406         7.866755    0.133245
    9 C             5.942284    0.057716         5.931762    0.068238
   10 H             0.703651    0.296349         0.881014    0.118986
   11 O             8.631873   -0.631873         8.369434   -0.369434
   12 C             6.003128   -0.003128         5.954004    0.045996
   13 H             0.753678    0.246322         0.909157    0.090843
   14 O             8.701966   -0.701966         8.417752   -0.417752
   15 C             6.117973   -0.117973         5.996654    0.003346
   16 O             8.671737   -0.671737         8.388630   -0.388630
   17 H             0.722017    0.277983         0.890891    0.109109
   18 H             0.550408    0.449592         0.707462    0.292538
   19 H             0.486927    0.513073         0.657410    0.342590
   20 H             0.565726    0.434274         0.720355    0.279645
   21 H             0.542959    0.457041         0.706978    0.293022
   22 H             0.762405    0.237595         0.902950    0.097050
   23 H             0.751072    0.248928         0.901598    0.098402
   24 H             0.578870    0.421130         0.717154    0.282846

          -------------------------------
          BOND ORDER AND VALENCE ANALYSIS     BOND ORDER THRESHOLD=0.050
          -------------------------------

                   BOND                       BOND                       BOND
  ATOM PAIR DIST  ORDER      ATOM PAIR DIST  ORDER      ATOM PAIR DIST  ORDER
    1   2  1.237  1.737        1  18  1.930  0.075        2   3  1.510  0.829
    2  17  1.100  0.833        3   4  1.098  0.803        3   5  1.462  0.867
    3   6  1.544  0.812        5  18  1.009  0.707        5  19  1.902  0.135
    6   7  1.094  0.819        6   8  1.448  0.627        6   9  1.536  0.768
    8  19  1.009  0.608        9  10  1.094  0.867        9  11  1.461  0.951
    9  12  1.530  0.844       11  20  1.011  0.710       12  13  1.093  0.879
   12  14  1.474  0.884       12  15  1.533  0.886       14  20  1.860  0.089
   14  21  1.007  0.696       15  16  1.475  0.870       15  22  1.095  0.881
   15  23  1.097  0.875       16  21  1.835  0.084       16  24  0.992  0.783

                       TOTAL       BONDED        FREE
      ATOM            VALENCE     VALENCE     VALENCE
    1 O                 1.991       1.887       0.104
    2 C                 3.496       3.394       0.102
    3 C                 3.307       3.304       0.003
    4 H                 0.845       0.845       0.000
    5 O                 1.798       1.798       0.000
    6 C                 3.027       3.019       0.008
    7 H                 0.837       0.837       0.000
    8 O                 2.194       1.338       0.856
    9 C                 3.411       3.404       0.006
   10 H                 0.874       0.874       0.000
   11 O                 1.805       1.805       0.001
   12 C                 3.459       3.459       0.000
   13 H                 0.895       0.895       0.000
   14 O                 1.759       1.759       0.000
   15 C                 3.505       3.505       0.000
   16 O                 1.781       1.781       0.000
   17 H                 0.874       0.873       0.001
   18 H                 0.793       0.793       0.000
   19 H                 0.744       0.741       0.002
   20 H                 0.807       0.807       0.000
   21 H                 0.789       0.789       0.000
   22 H                 0.896       0.896       0.000
   23 H                 0.903       0.903       0.000
   24 H                 0.799       0.799       0.000

          -----------------------------------------
          ATOMIC SPIN DENSITY AT THE NUCLEUS (A.U.)
          -----------------------------------------
                            SPIN DENS    ALPHA DENS     BETA DENS
    1  O            8.0     0.0798575     117.00489     116.92503
    2  C            6.0    -0.0791319      46.97437      47.05350
    3  C            6.0     0.0269199      47.10069      47.07377
    4  H            1.0    -0.0064073       0.17159       0.17800
    5  O            8.0    -0.0048703     116.75698     116.76185
    6  C            6.0    -0.0540225      47.10430      47.15832
    7  H            1.0     0.0068039       0.18015       0.17335
    8  O            8.0     0.2574655     117.12119     116.86373
    9  C            6.0     0.0316262      47.08936      47.05773
   10  H            1.0    -0.0020476       0.18226       0.18431
   11  O            8.0     0.0023968     116.81023     116.80783
   12  C            6.0    -0.0043200      47.07667      47.08099
   13  H            1.0     0.0000255       0.18675       0.18672
   14  O            8.0    -0.0004703     116.73477     116.73524
   15  C            6.0     0.0006419      46.99727      46.99662
   16  O            8.0     0.0003871     116.70471     116.70432
   17  H            1.0     0.0085411       0.18510       0.17656
   18  H            1.0     0.0005322       0.15124       0.15071
   19  H            1.0    -0.0225645       0.12928       0.15185
   20  H            1.0    -0.0004292       0.15158       0.15201
   21  H            1.0    -0.0000987       0.14876       0.14885
   22  H            1.0    -0.0000032       0.18533       0.18533
   23  H            1.0     0.0000718       0.18498       0.18490
   24  H            1.0     0.0000383       0.16137       0.16133

          ---------------------
          ELECTROSTATIC MOMENTS
          ---------------------

 POINT   1           X           Y           Z (BOHR)    CHARGE
                -0.040299   -0.020153   -0.051050        1.00 (A.U.)
         DX          DY          DZ         /D/  (DEBYE)
     0.407333    0.902745    1.599511    1.881304
 ...... END OF PROPERTY EVALUATION ......
 CPU     0: STEP CPU TIME=     0.07 TOTAL CPU TIME=          7.8 (      0.1 MIN)
 TOTAL WALL CLOCK TIME=         13.4 SECONDS, CPU UTILIZATION IS    58.45%
               580000  WORDS OF DYNAMIC MEMORY USED
 EXECUTION OF GAMESS TERMINATED NORMALLY Fri May 22 15:50:50 2020
 DDI: 263640 bytes (0.3 MB / 0 MWords) used by master data server.
Note: The following floating-point exceptions are signalling: IEEE_DENORMALNote: The following floating-point exceptions are signalling: IEEE_DENORMALNote: The following floating-point exceptions are signalling:
Note: The following floating-point exceptions are signalling: IEEE_DENORMALNote: The following floating-point exceptions are signalling: IEEE_DENORMALNote: The following floating-point exceptions are signalling:

 ----------------------------------------
 CPU timing information for all processes
 ========================================
 0: 7.565 + 0.266 = 7.832
 1: 7.339 + 0.32 = 7.371
 2: 7.255 + 0.48 = 7.303
 3: 7.202 + 0.43 = 7.245
 4: 7.126 + 0.59 = 7.186
 5: 7.191 + 0.36 = 7.227
 6: 7.42 + 0.71 = 7.113
 7: 7.88 + 0.36 = 7.125
 ----------------------------------------
 IEEE_DENORMAL


 IEEE_DENORMAL
Note: The following floating-point exceptions are signalling: IEEE_DENORMALNote: The following floating-point exceptions are signalling: IEEE_DENORMAL

 ddikick.x: exited gracefully.
unset echo
----- accounting info -----
Files used on the master node pietdev were:
-rwxr-xr-x 1 piet piet     1459 mei 22 15:50 /home/piet/scr/d-galactose_fukui_base.F05*
-rw-r--r-- 1 piet piet 68812800 mei 22 15:50 /home/piet/scr/d-galactose_fukui_base.F10
ls: No match.
ls: No match.
ls: No match.
vr 22 mei 2020 15:50:53 CEST
0.119u 0.027s 0:16.54 0.7%	0+0k 0+8io 0pf+0w
