----- GAMESS execution script 'rungms' -----
This job is running on host pietdev
under operating system Linux at vr 22 mei 2020 15:50:37 CEST
Available scratch disk space (Kbyte units) at beginning of the job is
Filesystem     1K-blocks     Used Available Use% Mounted on
/dev/sda2      244568380 31372720 200702604  14% /
GAMESS temporary binary files will be written to /home/piet/scr
GAMESS supplementary output files will be written to /home/piet/gamess/scr
Copying input file d-galactose_fukui_acid.inp to your run's scratch directory...
cp d-galactose_fukui_acid.inp /home/piet/scr/d-galactose_fukui_acid.F05
unset echo
 
Assuming a single but multicore node.
 
/home/piet/gamess/ddikick.x /home/piet/gamess/gamess.03.x d-galactose_fukui_acid -ddi 1 8 pietdev:cpus=8 -scr /home/piet/scr

 Distributed Data Interface kickoff program.
 Initiating 8 compute processes on 1 nodes to run the following command:
 /home/piet/gamess/gamess.03.x d-galactose_fukui_acid 

          ******************************************************
          *         GAMESS VERSION = 30 SEP 2019 (R2)          *
          *             FROM IOWA STATE UNIVERSITY             *
          * M.W.SCHMIDT, K.K.BALDRIDGE, J.A.BOATZ, S.T.ELBERT, *
          *   M.S.GORDON, J.H.JENSEN, S.KOSEKI, N.MATSUNAGA,   *
          *          K.A.NGUYEN, S.J.SU, T.L.WINDUS,           *
          *       TOGETHER WITH M.DUPUIS, J.A.MONTGOMERY       *
          *         J.COMPUT.CHEM.  14, 1347-1363(1993)        *
          **************** 64 BIT LINUX VERSION ****************

  SINCE 1993, STUDENTS AND POSTDOCS WORKING AT IOWA STATE UNIVERSITY
  AND ALSO IN THEIR VARIOUS JOBS AFTER LEAVING ISU HAVE MADE IMPORTANT
  CONTRIBUTIONS TO THE CODE:
     IVANA ADAMOVIC, CHRISTINE AIKENS, YURI ALEXEEV, POOJA ARORA,
     ANDREY ASADCHEV, ROB BELL, PRADIPTA BANDYOPADHYAY, JONATHAN BENTZ,
     COLLEEN BERTONI, BRETT BODE, KURT BRORSEN, CALEB CARLIN, GALINA CHABAN,
     WEI CHEN, CHEOL HO CHOI, PAUL DAY, ALBERT DEFUSCO, NUWAN DESILVA,
     TIM DUDLEY, DMITRI FEDOROV, ALEX FINDLATER, GRAHAM FLETCHER, 
     MARK FREITAG, KURT GLAESEMANN, EMILIE B GUIDEZ, ANASTASIA GUNINA, 
     DAN KEMP, SAROM SOK LEANG, GRANT MERRILL,
     NORIYUKI MINEZAWA, JONATHAN MULLIN,
     TAKESHI NAGATA, SEAN NEDD, HEATHER NETZLOFF, BOSILJKA NJEGIC, RYAN OLSON,
     MIKE PAK, BUU PHAM, DAVID POOLE,
     SPENCER PRUITT, LUKE ROSKOP, TOSAPORN SATTASATHUCHANA,
     JIM SHOEMAKER, LYUDMILA SLIPCHENKO,
     TONY SMITH, JIE SONG, TETSUYA TAKETSUGU, SIMON WEBB,
     JORGE LUIS GALVEZ VALLEJO, PENG XU, SOOHAENG YOO,
     FEDERICO ZAHARIEV

  ADDITIONAL CODE HAS BEEN PROVIDED BY COLLABORATORS IN OTHER GROUPS:
     IOWA STATE UNIVERSITY:
          JOE IVANIC, AARON WEST, LAIMUTIS BYTAUTAS, KLAUS RUEDENBERG
     UNIVERSITY OF TOKYO: KIMIHIKO HIRAO, TAKAHITO NAKAJIMA,
          TAKAO TSUNEDA, MUNEAKI KAMIYA, SUSUMU YANAGISAWA,
          KIYOSHI YAGI, MAHITO CHIBA, SEIKEN TOKURA, NAOAKI KAWAKAMI
     UNIVERSITY OF AARHUS: FRANK JENSEN
     UNIVERSITY OF IOWA: VISVALDAS KAIRYS, HUI LI
     NATIONAL INST. OF STANDARDS AND TECHNOLOGY: WALT STEVENS, DAVID GARMER
     UNIVERSITY OF PISA: BENEDETTA MENNUCCI, JACOPO TOMASI
     UNIVERSITY OF MEMPHIS: HENRY KURTZ, PRAKASHAN KORAMBATH
     UNIVERSITY OF ALBERTA: TOBY ZENG, MARIUSZ KLOBUKOWSKI
     UNIVERSITY OF NEW ENGLAND: MARK SPACKMAN
     MIE UNIVERSITY: HIROAKI UMEDA
     NAT. INST. OF ADVANCED INDUSTRIAL SCIENCE AND TECHNOLOGY: KAZUO KITAURA
     MICHIGAN STATE UNIVERSITY:
          KAROL KOWALSKI, MARTA WLOCH, JEFFREY GOUR, JESSE LUTZ,
          WEI LI, JUN SHEN, J. EMILIANO DEUSTUA, PIOTR PIECUCH
     UNIVERSITY OF MINNESOTA:
          ANDREW SAND, PRACHI SHARMA, YINAN SHU
     UNIVERSITY OF SILESIA: MONIKA MUSIAL, STANISLAW KUCHARSKI
     FACULTES UNIVERSITAIRES NOTRE-DAME DE LA PAIX:
          OLIVIER QUINET, BENOIT CHAMPAGNE
     UNIVERSITY OF CALIFORNIA - SANTA BARBARA: BERNARD KIRTMAN
     INSTITUTE FOR MOLECULAR SCIENCE:
          KAZUYA ISHIMURA, MICHIO KATOUDA, AND SHIGERU NAGASE
     UNIVERSITY OF NOTRE DAME: ANNA POMOGAEVA, DAN CHIPMAN
     KYUSHU UNIVERSITY:
          HARUYUKI NAKANO,
          FENG LONG GU, JACEK KORCHOWIEC, MARCIN MAKOWSKI, AND YURIKO AOKI,
          HIROTOSHI MORI AND EISAKU MIYOSHI
     PENNSYLVANIA STATE UNIVERSITY:
          TZVETELIN IORDANOV, CHET SWALINA, JONATHAN SKONE,
          SHARON HAMMES-SCHIFFER
     WASEDA UNIVERSITY:
          MASATO KOBAYASHI, TOMOKO AKAMA, TSUGUKI TOUMA,
          TAKESHI YOSHIKAWA, YASUHIRO IKABATA, JUNJI SEINO,
          YUYA NAKAJIMA, HIROMI NAKAI
     NANJING UNIVERSITY: SHUHUA LI
     UNIVERSITY OF NEBRASKA:
          PEIFENG SU, DEJUN SI, NANDUN THELLAMUREGE, YALI WANG, HUI LI
     UNIVERSITY OF ZURICH: ROBERTO PEVERATI, KIM BALDRIDGE
     N. COPERNICUS UNIVERSITY AND JACKSON STATE UNIVERSITY:
          MARIA BARYSZ
     UNIVERSITY OF COPENHAGEN: Jimmy Kromann, CASPER STEINMANN
     TOKYO INSTITUTE OF TECHNOLOGY: HIROYA NAKATA
     NAGOYA UNIVERSITY: YOSHIO NISHIMOTO, STEPHAN IRLE
     MOSCOW STATE UNIVERSITY: VLADIMIR MIRONOV
     A.N.NESMEYANOV INSTITUTE OF ORGANOELEMENT COMPOUNDS OF RUSSIAN ACADEMY OF SCIENCES:
          IGOR S. GERASIMOV
     JOHANNES KEPLER UNIVERSITY LINZ:
          CHRISTIAN FRIEDL


 PARALLEL VERSION RUNNING ON        8 PROCESSORS IN        1 NODES.

 EXECUTION OF GAMESS BEGUN Fri May 22 15:50:37 2020

            ECHO OF THE FIRST FEW INPUT CARDS -
 INPUT CARD> $BASIS GBASIS=N21 NGAUSS=3 $END                                                
 INPUT CARD> $CONTRL SCFTYP=UHF MAXIT=60 MULT=2 ICHARG=-1 $END                              
 INPUT CARD> $SYSTEM MEMDDI=1000 MWORDS=30 $END                                             
 INPUT CARD> $SCF DIRSCF=.TRUE. $END                                                        
 INPUT CARD> $STATPT OPTTOL=0.0001 NSTEP=999 $END                                           
 INPUT CARD> $DATA                                                                          
 INPUT CARD>                                                                                
 INPUT CARD>C1                                                                              
 INPUT CARD>O 8.0000000 -4.1531956046 0.4249179813 -0.0737026564                            
 INPUT CARD>C 6.0000000 -3.1074765091 0.2884559046 -0.7205394863                            
 INPUT CARD>C 6.0000000 -1.9412965575 -0.4816108065 -0.1496999764                           
 INPUT CARD>H 1.0000000 -1.6902166052 -1.3485985579 -0.7751285039                           
 INPUT CARD>O 8.0000000 -2.2842498730 -0.8504457838 1.2228567702                            
 INPUT CARD>C 6.0000000 -0.6781370037 0.4009999654 -0.0556550313                            
 INPUT CARD>H 1.0000000 -0.5249767821 0.9900478251 -0.9648374604                            
 INPUT CARD>O 8.0000000 -0.8232898621 1.3028893261 1.0684729754                             
 INPUT CARD>C 6.0000000 0.5450008561 -0.5073485321 0.1433742409                             
 INPUT CARD>H 1.0000000 0.4283308399 -1.0660416104 1.0763243004                             
 INPUT CARD>O 8.0000000 0.6356170526 -1.4583820199 -0.9616193161                            
 INPUT CARD>C 6.0000000 1.8209738367 0.3373930390 0.1288057279                              
 INPUT CARD>H 1.0000000 1.7077343241 1.2115107987 0.7755828993                              
 INPUT CARD>O 8.0000000 1.9718945230 0.7185531966 -1.2868592279                             
 INPUT CARD>C 6.0000000 3.0489407536 -0.5115452329 0.4790773342                             
 INPUT CARD>O 8.0000000 4.1775741990 0.2210457732 -0.1248529392                             
 INPUT CARD>H 1.0000000 -2.9673259173 0.7100358217 -1.7266989415                            
 INPUT CARD>H 1.0000000 -3.2574748274 -0.5955622303 1.2981316193                            
 INPUT CARD>H 1.0000000 -1.3376574007 0.7241084458 1.7150436137                             
 INPUT CARD>H 1.0000000 1.1052586582 -0.8864587673 -1.6510910738                            
 INPUT CARD>H 1.0000000 2.9708140212 0.8137692101 -1.3741819185                             
 INPUT CARD>H 1.0000000 3.1632461641 -0.6245840585 1.5623657112                             
 INPUT CARD>H 1.0000000 2.9051693051 -1.4902815080 0.0049310064                             
 INPUT CARD>H 1.0000000 4.9507426094 -0.3944682800 -0.2164996672                            
 INPUT CARD> $END                                                                           
   30000000 WORDS OF MEMORY AVAILABLE

     BASIS OPTIONS
     -------------
     GBASIS=N21          IGAUSS=       3      POLAR=NONE    
     NDFUNC=       0     NFFUNC=       0     DIFFSP=       F
     NPFUNC=       0      DIFFS=       F     BASNAM=        


     RUN TITLE
     ---------
                                                                                 

 THE POINT GROUP OF THE MOLECULE IS C1      
 THE ORDER OF THE PRINCIPAL AXIS IS     0

 ATOM      ATOMIC                      COORDINATES (BOHR)
           CHARGE         X                   Y                   Z
 O           8.0    -7.8484016661        0.8029785519       -0.1392778252
 C           6.0    -5.8722791155        0.5451026192       -1.3616221924
 C           6.0    -3.6685185546       -0.9101124570       -0.2828919358
 H           1.0    -3.1940462437       -2.5484817419       -1.4647804776
 O           8.0    -4.3166063475       -1.6071094988        2.3108642179
 C           6.0    -1.2814931191        0.7577800557       -0.1051727590
 H           1.0    -0.9920622681        1.8709191042       -1.8232784228
 O           8.0    -1.5557922478        2.4621038187        2.0191211488
 C           6.0     1.0299022811       -0.9587497059        0.2709380290
 H           1.0     0.8094279195       -2.0145265352        2.0339580017
 O           8.0     1.2011420625       -2.7559424030       -1.8171970119
 C           6.0     3.4411415822        0.6375803939        0.2434075314
 H           1.0     3.2271499324        2.2894234407        1.4656391604
 O           8.0     3.7263403252        1.3578686492       -2.4318113255
 C           6.0     5.7616625771       -0.9666803205        0.9053248886
 O           8.0     7.8944705295        0.4177159421       -0.2359378438
 H           1.0    -5.6074329000        1.3417731445       -3.2629878627
 H           1.0    -6.1557348357       -1.1254494239        2.4531130565
 H           1.0    -2.5278059528        1.3683665480        3.2409624869
 H           1.0     2.0886360096       -1.6751641696       -3.1201097103
 H           1.0     5.6140244606        1.5378008243       -2.5968272832
 H           1.0     5.9776684819       -1.1802927269        2.9524430868
 H           1.0     5.4899739346       -2.8162236947        0.0093182509
 H           1.0     9.3555469675       -0.7454369600       -0.4091250474

          INTERNUCLEAR DISTANCES (ANGS.)
          ------------------------------

                1 O          2 C          3 C          4 H          5 O     

   1 O       0.0000000    1.2371533 *  2.3916662 *  3.1150642    2.6077916 *
   2 C       1.2371533 *  0.0000000    1.5095815 *  2.1659993 *  2.3982469 *
   3 C       2.3916662 *  1.5095815 *  0.0000000    1.0981210 *  1.4620425 *
   4 H       3.1150642    2.1659993 *  1.0981210 *  0.0000000    2.1431232 *
   5 O       2.6077916 *  2.3982469 *  1.4620425 *  2.1431232 *  0.0000000  
   6 C       3.4751878    2.5211957 *  1.5438323 *  2.1454702 *  2.4042270 *
   7 H       3.7785533    2.6872323 *  2.1991339 *  2.6197405 *  3.3568534  
   8 O       3.6281774    3.0736215    2.4327608 *  3.3437728    2.6067395 *
   9 C       4.7947151    3.8366968    2.5036433 *  2.5588173 *  3.0475659  
  10 H       4.9533733    4.1910997    2.7312687 *  2.8277127 *  2.7250775 *
  11 O       5.2218715    4.1376698    2.8729390 *  2.3358796 *  3.6969102  
  12 C       5.9782414    5.0013403    3.8604418    3.9985151    4.4114363  
  13 H       5.9741538    5.1260772    4.1277398    4.5282377    4.5152693  
  14 O       6.2509759    5.1289094    4.2481277    4.2362770    5.1841294  
  15 C       7.2837694    6.3230179    5.0297838    4.9732588    5.3954595  
  16 O       8.3334210    7.3096751    6.1591333    6.1088142    6.6872704  
  17 H       2.0542580 *  1.0998767 *  2.2270347 *  2.6027812 *  3.4061084  
  18 H       1.9301878 *  2.2088505 *  1.9599812 *  2.7058769 *  1.0088601 *
  19 H       3.3490870    3.0420582    2.3011753 *  3.2590443    1.9019743 *
  20 H       5.6443958    4.4714079    3.4204643    2.9657319 *  4.4440568  
  21 H       7.2521697    6.1358633    5.2255331    5.1729978    6.0934324  
  22 H       7.5702374    6.7355223    5.3859044    5.4354556    5.4627368  
  23 H       7.3140063    6.3120618    4.9527324    4.6632755    5.3686874  
  24 H       9.1418530    8.1027981    6.8929137    6.7323673    7.3908578  

                6 C          7 H          8 O          9 C         10 H     

   1 O       3.4751878    3.7785533    3.6281774    4.7947151    4.9533733  
   2 C       2.5211957 *  2.6872323 *  3.0736215    3.8366968    4.1910997  
   3 C       1.5438323 *  2.1991339 *  2.4327608 *  2.5036433 *  2.7312687 *
   4 H       2.1454702 *  2.6197405 *  3.3437728    2.5588173 *  2.8277127 *
   5 O       2.4042270 *  3.3568534    2.6067395 *  3.0475659    2.7250775 *
   6 C       0.0000000    1.0940969 *  1.4484949 *  1.5364817 *  2.1582074 *
   7 H       1.0940969 *  0.0000000    2.0787525 *  2.1482973 *  3.0500230  
   8 O       1.4484949 *  2.0787525 *  0.0000000    2.4505078 *  2.6792629 *
   9 C       1.5364817 *  2.1482973 *  2.4505078 *  0.0000000    1.0936844 *
  10 H       2.1582074 *  3.0500230    2.6792629 *  1.0936844 *  0.0000000  
  11 O       2.4503107 *  2.7095751 *  3.7248226    1.4607145 *  2.0856924 *
  12 C       2.5067163 *  2.6693628 *  2.9677076 *  1.5303292 *  2.1924586 *
  13 H       2.6533500 *  2.8395612 *  2.5495525 *  2.1693580 *  2.6295558 *
  14 O       2.9392807 *  2.5321480 *  3.7016340    2.3631395 *  3.3394616  
  15 C       3.8742465    4.1367328    4.3166804    2.5263470 *  2.7444064 *
  16 O       4.8595373    4.8384836    5.2538608    3.7145785    4.1420100  
  17 H       2.8510133 *  2.5736956 *  3.5723034    4.1612063    4.7478285  
  18 H       3.0787754    3.8860949    3.0954996    3.9749299    3.7223263  
  19 H       1.9169611 *  2.8129942 *  1.0087690 *  2.7442728 *  2.5944776 *
  20 H       2.7172534 *  2.5787378 *  3.9885553    1.9177380 *  2.8158970 *
  21 H       3.9017605    3.5240872    4.5388353    3.1516501    4.0003613  
  22 H       4.2925562    4.7536071    4.4555082    2.9803506 *  2.8126292 *
  23 H       4.0522463    4.3426244    4.7785283    2.5604138 *  2.7317745 *
  24 H       5.6870842    5.6974027    6.1539929    4.4218561    4.7512749  

               11 O         12 C         13 H         14 O         15 C     

   1 O       5.2218715    5.9782414    5.9741538    6.2509759    7.2837694  
   2 C       4.1376698    5.0013403    5.1260772    5.1289094    6.3230179  
   3 C       2.8729390 *  3.8604418    4.1277398    4.2481277    5.0297838  
   4 H       2.3358796 *  3.9985151    4.5282377    4.2362770    4.9732588  
   5 O       3.6969102    4.4114363    4.5152693    5.1841294    5.3954595  
   6 C       2.4503107 *  2.5067163 *  2.6533500 *  2.9392807 *  3.8742465  
   7 H       2.7095751 *  2.6693628 *  2.8395612 *  2.5321480 *  4.1367328  
   8 O       3.7248226    2.9677076 *  2.5495525 *  3.7016340    4.3166804  
   9 C       1.4607145 *  1.5303292 *  2.1693580 *  2.3631395 *  2.5263470 *
  10 H       2.0856924 *  2.1924586 *  2.6295558 *  3.3394616    2.7444064 *
  11 O       0.0000000    2.4122408 *  3.3608979    2.5749690 *  2.9658452 *
  12 C       2.4122408 *  0.0000000    1.0932638 *  1.4738275 *  1.5333914 *
  13 H       3.3608979    1.0932638 *  0.0000000    2.1369266 *  2.2035590 *
  14 O       2.5749690 *  1.4738275 *  2.1369266 *  0.0000000    2.4065957 *
  15 C       2.9658452 *  1.5333914 *  2.2035590 *  2.4065957 *  0.0000000  
  16 O       4.0082560    2.3730665 *  2.8092552 *  2.5422028 *  1.4748677 *
  17 H       4.2741760    5.1487450    5.3262632    4.9587730    6.5232794  
  18 H       4.5833499    5.2941826    5.3096019    5.9795803    6.3599360  
  19 H       3.9776376    3.5556505    3.2240593    4.4681747    4.7219377  
  20 H       1.0114498 *  2.2755426 *  3.2639240    1.8600500 *  2.9079336 *
  21 H       3.2842083    1.9514196 *  2.5248876 *  1.0072395 *  2.2797219 *
  22 H       3.6680551    2.1868217 *  2.4715959 *  3.3677024    1.0951517 *
  23 H       2.4670031 *  2.1286660 *  3.0540852    2.7237244 *  1.0970003 *
  24 H       4.5063760    3.2326938    3.7523991    3.3552976    2.0283946 *

               16 O         17 H         18 H         19 H         20 H     

   1 O       8.3334210    2.0542580 *  1.9301878 *  3.3490870    5.6443958  
   2 C       7.3096751    1.0998767 *  2.2088505 *  3.0420582    4.4714079  
   3 C       6.1591333    2.2270347 *  1.9599812 *  2.3011753 *  3.4204643  
   4 H       6.1088142    2.6027812 *  2.7058769 *  3.2590443    2.9657319 *
   5 O       6.6872704    3.4061084    1.0088601 *  1.9019743 *  4.4440568  
   6 C       4.8595373    2.8510133 *  3.0787754    1.9169611 *  2.7172534 *
   7 H       4.8384836    2.5736956 *  3.8860949    2.8129942 *  2.5787378 *
   8 O       5.2538608    3.5723034    3.0954996    1.0087690 *  3.9885553  
   9 C       3.7145785    4.1612063    3.9749299    2.7442728 *  1.9177380 *
  10 H       4.1420100    4.7478285    3.7223263    2.5944776 *  2.8158970 *
  11 O       4.0082560    4.2741760    4.5833499    3.9776376    1.0114498 *
  12 C       2.3730665 *  5.1487450    5.2941826    3.5556505    2.2755426 *
  13 H       2.8092552 *  5.3262632    5.3096019    3.2240593    3.2639240  
  14 O       2.5422028 *  4.9587730    5.9795803    4.4681747    1.8600500 *
  15 C       1.4748677 *  6.5232794    6.3599360    4.7219377    2.9079336 *
  16 O       0.0000000    7.3385707    7.6139141    5.8357580    3.6048706  
  17 H       7.3385707    0.0000000    3.3073211    3.8080979    4.3749808  
  18 H       7.6139141    3.3073211    0.0000000    2.3666528 *  5.2740856  
  19 H       5.8357580    3.8080979    2.3666528 *  0.0000000    4.4601153  
  20 H       3.6048706    4.3749808    5.2740856    4.4601153    0.0000000  
  21 H       1.8353240 *  5.9494987    6.9223592    5.3022900    2.5392421 *
  22 H       2.1425821 *  7.0840010    6.4262213    4.7011078    3.8249438  
  23 H       2.1364689 *  6.5058542    6.3601158    5.0822816    2.5192637 *
  24 H       0.9924949 *  8.1361195    8.3492143    6.6727841    4.1337458  

               21 H         22 H         23 H         24 H     

   1 O       7.2521697    7.5702374    7.3140063    9.1418530  
   2 C       6.1358633    6.7355223    6.3120618    8.1027981  
   3 C       5.2255331    5.3859044    4.9527324    6.8929137  
   4 H       5.1729978    5.4354556    4.6632755    6.7323673  
   5 O       6.0934324    5.4627368    5.3686874    7.3908578  
   6 C       3.9017605    4.2925562    4.0522463    5.6870842  
   7 H       3.5240872    4.7536071    4.3426244    5.6974027  
   8 O       4.5388353    4.4555082    4.7785283    6.1539929  
   9 C       3.1516501    2.9803506 *  2.5604138 *  4.4218561  
  10 H       4.0003613    2.8126292 *  2.7317745 *  4.7512749  
  11 O       3.2842083    3.6680551    2.4670031 *  4.5063760  
  12 C       1.9514196 *  2.1868217 *  2.1286660 *  3.2326938  
  13 H       2.5248876 *  2.4715959 *  3.0540852    3.7523991  
  14 O       1.0072395 *  3.3677024    2.7237244 *  3.3552976  
  15 C       2.2797219 *  1.0951517 *  1.0970003 *  2.0283946 *
  16 O       1.8353240 *  2.1425821 *  2.1364689 *  0.9924949 *
  17 H       5.9494987    7.0840010    6.5058542    8.1361195  
  18 H       6.9223592    6.4262213    6.3601158    8.3492143  
  19 H       5.3022900    4.7011078    5.0822816    6.6727841  
  20 H       2.5392421 *  3.8249438    2.5192637 *  4.1337458  
  21 H       0.0000000    3.2755461    2.6860587 *  2.5923316 *
  22 H       3.2755461    0.0000000    1.8004551 *  2.5322833 *
  23 H       2.6860587 *  1.8004551 *  0.0000000    2.3311388 *
  24 H       2.5923316 *  2.5322833 *  2.3311388 *  0.0000000  

  * ... LESS THAN  3.000


     ATOMIC BASIS SET
     ----------------
 THE CONTRACTED PRIMITIVE FUNCTIONS HAVE BEEN UNNORMALIZED
 THE CONTRACTED BASIS FUNCTIONS ARE NOW NORMALIZED TO UNITY

  SHELL TYPE  PRIMITIVE        EXPONENT          CONTRACTION COEFFICIENT(S)

 O         

      1   S       1           322.0370000    0.059239393389
      1   S       2            48.4308000    0.351499960776
      1   S       3            10.4206000    0.707657921031

      2   L       4             7.4029400   -0.404453583190    0.244586106967
      2   L       5             1.5762000    1.221561761397    0.853955373466

      3   L       6             0.3736840    1.000000000000    1.000000000000

 C         

      4   S       7           172.2560000    0.061766907377
      4   S       8            25.9109000    0.358794042852
      4   S       9             5.5333500    0.700713083689

      5   L      10             3.6649800   -0.395895162119    0.236459946619
      5   L      11             0.7705450    1.215834355681    0.860618805716

      6   L      12             0.1958570    1.000000000000    1.000000000000

 C         

      7   S      13           172.2560000    0.061766907377
      7   S      14            25.9109000    0.358794042852
      7   S      15             5.5333500    0.700713083689

      8   L      16             3.6649800   -0.395895162119    0.236459946619
      8   L      17             0.7705450    1.215834355681    0.860618805716

      9   L      18             0.1958570    1.000000000000    1.000000000000

 H         

     10   S      19             5.4471780    0.156284978695
     10   S      20             0.8245472    0.904690876670

     11   S      21             0.1831916    1.000000000000

 O         

     12   S      22           322.0370000    0.059239393389
     12   S      23            48.4308000    0.351499960776
     12   S      24            10.4206000    0.707657921031

     13   L      25             7.4029400   -0.404453583190    0.244586106967
     13   L      26             1.5762000    1.221561761397    0.853955373466

     14   L      27             0.3736840    1.000000000000    1.000000000000

 C         

     15   S      28           172.2560000    0.061766907377
     15   S      29            25.9109000    0.358794042852
     15   S      30             5.5333500    0.700713083689

     16   L      31             3.6649800   -0.395895162119    0.236459946619
     16   L      32             0.7705450    1.215834355681    0.860618805716

     17   L      33             0.1958570    1.000000000000    1.000000000000

 H         

     18   S      34             5.4471780    0.156284978695
     18   S      35             0.8245472    0.904690876670

     19   S      36             0.1831916    1.000000000000

 O         

     20   S      37           322.0370000    0.059239393389
     20   S      38            48.4308000    0.351499960776
     20   S      39            10.4206000    0.707657921031

     21   L      40             7.4029400   -0.404453583190    0.244586106967
     21   L      41             1.5762000    1.221561761397    0.853955373466

     22   L      42             0.3736840    1.000000000000    1.000000000000

 C         

     23   S      43           172.2560000    0.061766907377
     23   S      44            25.9109000    0.358794042852
     23   S      45             5.5333500    0.700713083689

     24   L      46             3.6649800   -0.395895162119    0.236459946619
     24   L      47             0.7705450    1.215834355681    0.860618805716

     25   L      48             0.1958570    1.000000000000    1.000000000000

 H         

     26   S      49             5.4471780    0.156284978695
     26   S      50             0.8245472    0.904690876670

     27   S      51             0.1831916    1.000000000000

 O         

     28   S      52           322.0370000    0.059239393389
     28   S      53            48.4308000    0.351499960776
     28   S      54            10.4206000    0.707657921031

     29   L      55             7.4029400   -0.404453583190    0.244586106967
     29   L      56             1.5762000    1.221561761397    0.853955373466

     30   L      57             0.3736840    1.000000000000    1.000000000000

 C         

     31   S      58           172.2560000    0.061766907377
     31   S      59            25.9109000    0.358794042852
     31   S      60             5.5333500    0.700713083689

     32   L      61             3.6649800   -0.395895162119    0.236459946619
     32   L      62             0.7705450    1.215834355681    0.860618805716

     33   L      63             0.1958570    1.000000000000    1.000000000000

 H         

     34   S      64             5.4471780    0.156284978695
     34   S      65             0.8245472    0.904690876670

     35   S      66             0.1831916    1.000000000000

 O         

     36   S      67           322.0370000    0.059239393389
     36   S      68            48.4308000    0.351499960776
     36   S      69            10.4206000    0.707657921031

     37   L      70             7.4029400   -0.404453583190    0.244586106967
     37   L      71             1.5762000    1.221561761397    0.853955373466

     38   L      72             0.3736840    1.000000000000    1.000000000000

 C         

     39   S      73           172.2560000    0.061766907377
     39   S      74            25.9109000    0.358794042852
     39   S      75             5.5333500    0.700713083689

     40   L      76             3.6649800   -0.395895162119    0.236459946619
     40   L      77             0.7705450    1.215834355681    0.860618805716

     41   L      78             0.1958570    1.000000000000    1.000000000000

 O         

     42   S      79           322.0370000    0.059239393389
     42   S      80            48.4308000    0.351499960776
     42   S      81            10.4206000    0.707657921031

     43   L      82             7.4029400   -0.404453583190    0.244586106967
     43   L      83             1.5762000    1.221561761397    0.853955373466

     44   L      84             0.3736840    1.000000000000    1.000000000000

 H         

     45   S      85             5.4471780    0.156284978695
     45   S      86             0.8245472    0.904690876670

     46   S      87             0.1831916    1.000000000000

 H         

     47   S      88             5.4471780    0.156284978695
     47   S      89             0.8245472    0.904690876670

     48   S      90             0.1831916    1.000000000000

 H         

     49   S      91             5.4471780    0.156284978695
     49   S      92             0.8245472    0.904690876670

     50   S      93             0.1831916    1.000000000000

 H         

     51   S      94             5.4471780    0.156284978695
     51   S      95             0.8245472    0.904690876670

     52   S      96             0.1831916    1.000000000000

 H         

     53   S      97             5.4471780    0.156284978695
     53   S      98             0.8245472    0.904690876670

     54   S      99             0.1831916    1.000000000000

 H         

     55   S     100             5.4471780    0.156284978695
     55   S     101             0.8245472    0.904690876670

     56   S     102             0.1831916    1.000000000000

 H         

     57   S     103             5.4471780    0.156284978695
     57   S     104             0.8245472    0.904690876670

     58   S     105             0.1831916    1.000000000000

 H         

     59   S     106             5.4471780    0.156284978695
     59   S     107             0.8245472    0.904690876670

     60   S     108             0.1831916    1.000000000000

 TOTAL NUMBER OF BASIS SET SHELLS             =   60
 NUMBER OF CARTESIAN GAUSSIAN BASIS FUNCTIONS =  132
 NUMBER OF ELECTRONS                          =   97
 CHARGE OF MOLECULE                           =   -1
 SPIN MULTIPLICITY                            =    2
 NUMBER OF OCCUPIED ORBITALS (ALPHA)          =   49
 NUMBER OF OCCUPIED ORBITALS (BETA )          =   48
 TOTAL NUMBER OF ATOMS                        =   24
 THE NUCLEAR REPULSION ENERGY IS      787.0722262712

     $CONTRL OPTIONS
     ---------------
 SCFTYP=UHF          RUNTYP=ENERGY       EXETYP=RUN     
 MPLEVL=       0     CITYP =NONE         CCTYP =NONE         VBTYP =NONE    
 DFTTYP=NONE         TDDFT =NONE    
 MULT  =       2     ICHARG=      -1     NZVAR =       0     COORD =UNIQUE  
 PP    =NONE         RELWFN=NONE         LOCAL =NONE         NUMGRD=       F
 ISPHER=      -1     NOSYM =       0     MAXIT =      60     UNITS =ANGS    
 PLTORB=       F     MOLPLT=       F     AIMPAC=       F     FRIEND=        
 NPRINT=       7     IREST =       0     GEOM  =INPUT   
 NORMF =       0     NORMP =       0     ITOL  =      20     ICUT  =       9
 INTTYP=BEST         GRDTYP=BEST         QMTTOL= 1.0E-06

     $SYSTEM OPTIONS
     ---------------
  REPLICATED MEMORY=    30000000 WORDS (ON EVERY NODE).
 DISTRIBUTED MEMDDI=        1000 MILLION WORDS IN AGGREGATE,
 MEMDDI DISTRIBUTED OVER   8 PROCESSORS IS   125000000 WORDS/PROCESSOR.
 TOTAL MEMORY REQUESTED ON EACH PROCESSOR=   155000000 WORDS.
 TIMLIM=      525600.00 MINUTES, OR     365.0 DAYS.
 PARALL= T  BALTYP=  DLB     KDIAG=    0  COREFL= F
 MXSEQ2=     300 MXSEQ3=     150  mem10=         0

          ----------------
          PROPERTIES INPUT
          ----------------

     MOMENTS            FIELD           POTENTIAL          DENSITY
 IEMOM =       1   IEFLD =       0   IEPOT =       0   IEDEN =       0
 WHERE =COMASS     WHERE =NUCLEI     WHERE =NUCLEI     WHERE =NUCLEI  
 OUTPUT=BOTH       OUTPUT=BOTH       OUTPUT=BOTH       OUTPUT=BOTH    
 IEMINT=       0   IEFINT=       0                     IEDINT=       0
                                                       MORB  =       0
          EXTRAPOLATION IN EFFECT
          SOSCF IN EFFECT
          DIIS or SOSCF will be reset if energy rises
 ORBITAL PRINTING OPTION: NPREO=     1   132     2     1

     -------------------------------
     INTEGRAL TRANSFORMATION OPTIONS
     -------------------------------
     NWORD  =            0
     CUTOFF = 1.0E-09     MPTRAN =       0
     DIRTRF =       T     AOINTS =DUP     

          ----------------------
          INTEGRAL INPUT OPTIONS
          ----------------------
 NOPK  =       1 NORDER=       0 SCHWRZ=       T

     ------------------------------------------
     THE POINT GROUP IS C1 , NAXIS= 0, ORDER= 1
     ------------------------------------------

     DIMENSIONS OF THE SYMMETRY SUBSPACES ARE
 A   =  132

 ..... DONE SETTING UP THE RUN .....
 CPU     0: STEP CPU TIME=     0.03 TOTAL CPU TIME=          0.0 (      0.0 MIN)
 TOTAL WALL CLOCK TIME=          0.0 SECONDS, CPU UTILIZATION IS    75.00%

          ********************
          1 ELECTRON INTEGRALS
          ********************
 ...... END OF ONE-ELECTRON INTEGRALS ......
 CPU     0: STEP CPU TIME=     0.01 TOTAL CPU TIME=          0.0 (      0.0 MIN)
 TOTAL WALL CLOCK TIME=          0.1 SECONDS, CPU UTILIZATION IS    66.67%

          -------------
          GUESS OPTIONS
          -------------
          GUESS =HUCKEL            NORB  =       0          NORDER=       0
          MIX   =       F          PRTMO =       F          PUNMO =       F
          TOLZ  = 1.0E-08          TOLE  = 1.0E-05
          SYMDEN=       F          PURIFY=       F

 INITIAL GUESS ORBITALS GENERATED BY HUCKEL   ROUTINE.
 HUCKEL GUESS REQUIRES    164928 WORDS.

 SYMMETRIES FOR INITIAL GUESS ORBITALS FOLLOW.  ALPHA SET(S).
    49 ORBITALS ARE OCCUPIED (   12 CORE ORBITALS).
    13=A       14=A       15=A       16=A       17=A       18=A       19=A   
    20=A       21=A       22=A       23=A       24=A       25=A       26=A   
    27=A       28=A       29=A       30=A       31=A       32=A       33=A   
    34=A       35=A       36=A       37=A       38=A       39=A       40=A   
    41=A       42=A       43=A       44=A       45=A       46=A       47=A   
    48=A       49=A       50=A       51=A       52=A       53=A       54=A   
    55=A       56=A       57=A       58=A       59=A   

 SYMMETRIES FOR INITIAL GUESS ORBITALS FOLLOW.   BETA SET(S).
    48 ORBITALS ARE OCCUPIED (   12 CORE ORBITALS).
    13=A       14=A       15=A       16=A       17=A       18=A       19=A   
    20=A       21=A       22=A       23=A       24=A       25=A       26=A   
    27=A       28=A       29=A       30=A       31=A       32=A       33=A   
    34=A       35=A       36=A       37=A       38=A       39=A       40=A   
    41=A       42=A       43=A       44=A       45=A       46=A       47=A   
    48=A       49=A       50=A       51=A       52=A       53=A       54=A   
    55=A       56=A       57=A       58=A   
 ...... END OF INITIAL ORBITAL SELECTION ......
 CPU     0: STEP CPU TIME=     0.05 TOTAL CPU TIME=          0.1 (      0.0 MIN)
 TOTAL WALL CLOCK TIME=          0.2 SECONDS, CPU UTILIZATION IS    56.25%

                    ----------------------
                    AO INTEGRAL TECHNOLOGY
                    ----------------------
     S,P,L SHELL ROTATED AXIS INTEGRALS, REPROGRAMMED BY
        KAZUYA ISHIMURA (IMS) AND JOSE SIERRA (SYNSTAR).
     S,P,D,L SHELL ROTATED AXIS INTEGRALS PROGRAMMED BY
        KAZUYA ISHIMURA (INSTITUTE FOR MOLECULAR SCIENCE).
     S,P,D,F,G SHELL TO TOTAL QUARTET ANGULAR MOMENTUM SUM 5,
        ERIC PROGRAM BY GRAHAM FLETCHER (ELORET AND NASA ADVANCED
        SUPERCOMPUTING DIVISION, AMES RESEARCH CENTER).
     S,P,D,F,G,L SHELL GENERAL RYS QUADRATURE PROGRAMMED BY
        MICHEL DUPUIS (PACIFIC NORTHWEST NATIONAL LABORATORY).

          --------------------
          2 ELECTRON INTEGRALS
          --------------------

 DIRECT SCF METHOD SKIPS INTEGRAL STORAGE ON DISK.
 DIRECT TRANSFORMATION SKIPS AO INTEGRAL STORAGE ON DISK.
  ...... END OF TWO-ELECTRON INTEGRALS .....
 CPU     0: STEP CPU TIME=     0.01 TOTAL CPU TIME=          0.1 (      0.0 MIN)
 TOTAL WALL CLOCK TIME=          0.2 SECONDS, CPU UTILIZATION IS    55.56%

          ---------------------------
                  UHF SCF CALCULATION
          ---------------------------

     NUCLEAR ENERGY =       787.0722262712
     MAXIT = 60     NPUNCH=  2     MULT=  2
     EXTRAP=T  DAMP=F  SHIFT=F  RSTRCT=F  DIIS=F  SOSCF=T
     DENSITY MATRIX CONV=  2.00E-05
     SOSCF WILL OPTIMIZE    4067 ALPHA AND    4032 BETA ROTATION ANGLES.
     SOGTOL= 2.500E-01
     MEMORY REQUIRED FOR UHF/ROHF ITERS=    281061 WORDS.

 DIRECT SCF CALCULATION, SCHWRZ=T   FDIFF=T
 SCHWARZ INEQUALITY OVERHEAD:      7783 INTEGRALS, T=        0.00

                                                                                NONZERO     BLOCKS
 ITER EX      TOTAL ENERGY        E CHANGE  DENSITY CHANGE    ORB. GRAD       INTEGRALS    SKIPPED
   1  0     -677.5312519409  -677.5312519409   0.870396739   0.000000000       18275231     963272
          ---------------START SECOND ORDER SCF---------------
   2  1     -679.3180002641    -1.7867483232   0.141962056   0.077690180       18225246     975759
   3  2     -679.4185541605    -0.1005538964   0.147306294   0.047606731       17970080    1011043
   4  3     -679.4524566751    -0.0339025146   0.023205002   0.003878270       17661532    1038677
   5  4     -679.4532624205    -0.0008057454   0.007006452   0.001296008       16953571    1085456
   6  5     -679.4533879005    -0.0001254800   0.003739472   0.001023852       16355150    1115332
   7  6     -679.4534043113    -0.0000164108   0.001966271   0.000725523       15715694    1148186
   8  7     -679.4534099643    -0.0000056530   0.000796813   0.000237802       15014561    1179434
   9  8     -679.4534110198    -0.0000010555   0.000699185   0.000082499       14144735    1214422
  10  9     -679.4534113810    -0.0000003612   0.000141416   0.000028755       13613743    1236646
  11 10     -679.4534114334    -0.0000000525   0.000051431   0.000012275       12784524    1270417
  12 11     -679.4534114449    -0.0000000115   0.000053612   0.000005927       12184207    1291970
  13 12     -679.4534114467    -0.0000000018   0.000031134   0.000003211       11513043    1321562
  14 13     -679.4534114482    -0.0000000015   0.000014473   0.000001271       10776364    1348794
  15 14     -679.4534114499    -0.0000000017   0.000003678   0.000000773       10217985    1369497

          -----------------
          DENSITY CONVERGED
          -----------------
     TIME TO FORM FOCK OPERATORS=       2.7 SECONDS (       0.2 SEC/ITER)
     FOCK TIME ON FIRST ITERATION=       0.2, LAST ITERATION=       0.2
     TIME TO SOLVE SCF EQUATIONS=       0.2 SECONDS (       0.0 SEC/ITER)

 FINAL UHF ENERGY IS     -679.4534114499 AFTER  15 ITERATIONS

          --------------------
          SPIN SZ   =    0.500
          S-SQUARED =    0.761
          --------------------

  ----- ALPHA SET ----- 

          ------------
          EIGENVECTORS
          ------------

                      1          2          3          4          5
                  -20.3947   -20.3484   -20.3139   -20.2752   -20.2642
                     A          A          A          A          A   
    1  O  1  S    0.000023  -0.000008   0.000170   0.000319  -0.000846
    2  O  1  S    0.000029  -0.000014   0.000158   0.000252  -0.000650
    3  O  1  X    0.000007   0.000003  -0.000016  -0.000036  -0.000050
    4  O  1  Y   -0.000005  -0.000007   0.000025   0.000028  -0.000154
    5  O  1  Z    0.000008  -0.000014   0.000004  -0.000033   0.000262
    6  O  1  S   -0.000152   0.000123  -0.000789  -0.001466   0.004266
    7  O  1  X   -0.000097   0.000055  -0.000124  -0.000219   0.001493
    8  O  1  Y    0.000043  -0.000000  -0.000045   0.000024   0.000257
    9  O  1  Z   -0.000038   0.000056   0.000043   0.000195  -0.001348
   10  C  2  S   -0.000019   0.000011   0.000028   0.000073   0.000170
   11  C  2  S   -0.000089   0.000067   0.000272   0.000726   0.000230
   12  C  2  X    0.000027   0.000031   0.000059   0.000332  -0.000605
   13  C  2  Y   -0.000010  -0.000009  -0.000013   0.000062   0.000287
   14  C  2  Z   -0.000000   0.000016  -0.000055  -0.000141  -0.000259
   15  C  2  S    0.000892  -0.000324  -0.000948  -0.001039  -0.007209
   16  C  2  X    0.000339  -0.000143  -0.001105  -0.001901   0.001822
   17  C  2  Y   -0.000242   0.000165   0.000091  -0.000473   0.001838
   18  C  2  Z    0.000418  -0.000479   0.001216   0.002806  -0.007729
   19  C  3  S    0.000030  -0.000000   0.000128   0.000161  -0.000987
   20  C  3  S    0.000131   0.000041   0.000882   0.000403  -0.004384
   21  C  3  X   -0.000196   0.000106   0.000029  -0.000906  -0.000255
   22  C  3  Y    0.000040  -0.000025  -0.000112  -0.000640  -0.000981
   23  C  3  Z   -0.000029  -0.000037   0.000354   0.000230   0.000975
   24  C  3  S   -0.001558  -0.000223  -0.002495  -0.004423   0.021735
   25  C  3  X    0.000396  -0.000938   0.000057   0.000783  -0.005861
   26  C  3  Y   -0.000851   0.000136   0.000862  -0.001551   0.002316
   27  C  3  Z    0.000028   0.000762  -0.003563  -0.005912   0.014538
   28  H  4  S   -0.000038   0.000200  -0.000712  -0.000498  -0.000517
   29  H  4  S   -0.000069   0.000100   0.001273  -0.000506   0.001629
   30  O  5  S    0.000007   0.000223  -0.001958   0.002900   0.983564
   31  O  5  S   -0.000004   0.000106  -0.000672   0.000284   0.098584
   32  O  5  X    0.000025   0.000010  -0.000011   0.000406  -0.001466
   33  O  5  Y   -0.000005  -0.000020   0.000067   0.000332   0.001712
   34  O  5  Z   -0.000007  -0.000016   0.000130   0.000253  -0.002764
   35  O  5  S    0.000089  -0.000385   0.002270   0.001750  -0.047564
   36  O  5  X   -0.000124  -0.000004   0.000279  -0.001289   0.002282
   37  O  5  Y    0.000074   0.000007  -0.000045  -0.000899  -0.004930
   38  O  5  Z   -0.000042   0.000185  -0.001184  -0.001881   0.009279
   39  C  6  S   -0.000037   0.000104   0.000124  -0.000912   0.000167
   40  C  6  S   -0.000218   0.000797   0.000176  -0.003975   0.000426
   41  C  6  X    0.000200   0.000313  -0.000424  -0.000025   0.000546
   42  C  6  Y    0.000096   0.000009   0.000525   0.001254   0.000639
   43  C  6  Z   -0.000033   0.000192  -0.000374   0.000755   0.000141
   44  C  6  S    0.002100  -0.001829  -0.003986   0.019946  -0.004191
   45  C  6  X   -0.000512  -0.001012  -0.003056  -0.002392   0.003930
   46  C  6  Y   -0.001359  -0.001058   0.001730   0.005051  -0.001932
   47  C  6  Z    0.000500  -0.002430   0.005557   0.013840  -0.005663
   48  H  7  S    0.000092  -0.000232   0.000976  -0.000775  -0.000463
   49  H  7  S    0.000222   0.000112   0.001311   0.000869  -0.000254
   50  O  8  S    0.000030  -0.001225   0.000805   0.983554  -0.002937
   51  O  8  S    0.000022  -0.000537   0.000303   0.098400  -0.000287
   52  O  8  X   -0.000013  -0.000031  -0.000255  -0.000801  -0.000288
   53  O  8  Y   -0.000037   0.000023   0.000103  -0.003631  -0.000059
   54  O  8  Z    0.000025   0.000080  -0.000023  -0.001030   0.000324
   55  O  8  S   -0.000097   0.001792  -0.001812  -0.047145   0.001424
   56  O  8  X    0.000103   0.000256   0.000928   0.001452   0.001191
   57  O  8  Y    0.000218  -0.000453   0.000162   0.009910  -0.000323
   58  O  8  Z   -0.000077  -0.000712   0.000487   0.005003  -0.002237
   59  C  9  S   -0.000115   0.000192  -0.000974   0.000063   0.000115
   60  C  9  S   -0.000656   0.000592  -0.004334  -0.000192   0.000826
   61  C  9  X   -0.000410  -0.000695  -0.000063   0.000387  -0.000257
   62  C  9  Y    0.000199  -0.000634  -0.001331  -0.000546   0.000039
   63  C  9  Z   -0.000129  -0.000035  -0.000634   0.000368  -0.000203
   64  C  9  S    0.002437  -0.006073   0.021348  -0.001766  -0.002651
   65  C  9  X    0.004198  -0.003237   0.001802   0.003287   0.001061
   66  C  9  Y   -0.000906   0.000733  -0.004478  -0.000743   0.000171
   67  C  9  Z   -0.000271   0.004821  -0.013615  -0.005675   0.002979
   68  H 10  S   -0.000416  -0.000353  -0.000827   0.000908  -0.000110
   69  H 10  S    0.000207  -0.000013   0.000941   0.001410  -0.000677
   70  O 11  S    0.000054   0.001853   0.983555  -0.000724   0.001842
   71  O 11  S    0.000076   0.000342   0.098334   0.000154  -0.000264
   72  O 11  X   -0.000021   0.000276   0.000981   0.000233   0.000062
   73  O 11  Y   -0.000042   0.000053   0.003651  -0.000088  -0.000045
   74  O 11  Z    0.000084  -0.000288   0.000844  -0.000027  -0.000059
   75  O 11  S   -0.000609   0.000537  -0.046819  -0.001769   0.001723
   76  O 11  X   -0.000128  -0.001108  -0.001661  -0.000926  -0.000291
   77  O 11  Y   -0.000065   0.000276  -0.010102  -0.000296   0.000608
   78  O 11  Z   -0.000627   0.001979  -0.004339  -0.000303   0.000625
   79  C 12  S    0.000335  -0.001004   0.000176   0.000157  -0.000011
   80  C 12  S    0.001527  -0.004568   0.000471   0.001055  -0.000005
   81  C 12  X   -0.000460   0.000254   0.000938  -0.000151  -0.000124
   82  C 12  Y   -0.000076   0.001005   0.000670   0.000093   0.000033
   83  C 12  Z   -0.000139  -0.001167  -0.000186  -0.000316   0.000025
   84  C 12  S   -0.010308   0.021641  -0.005521  -0.003424   0.000227
   85  C 12  X   -0.003424   0.001496   0.000354   0.001369   0.000498
   86  C 12  Y    0.003466  -0.002104   0.002024   0.000074  -0.000460
   87  C 12  Z    0.001765  -0.012761   0.004972   0.003361  -0.000896
   88  H 13  S    0.000422  -0.000892  -0.000390  -0.000359   0.000146
   89  H 13  S   -0.001119   0.000951  -0.000419   0.000368   0.000287
   90  O 14  S    0.001602   0.983539  -0.001854   0.001115  -0.000210
   91  O 14  S    0.000397   0.098272  -0.000033  -0.000329   0.000064
   92  O 14  X    0.000232   0.002148  -0.000511   0.000011  -0.000026
   93  O 14  Y    0.000028  -0.000887  -0.000384  -0.000055   0.000021
   94  O 14  Z   -0.000204   0.002785  -0.000202  -0.000112   0.000008
   95  O 14  S   -0.000196  -0.046226   0.001273   0.001952  -0.000352
   96  O 14  X   -0.001237  -0.003993   0.001917  -0.000173   0.000030
   97  O 14  Y   -0.000521   0.003037   0.001211  -0.000019   0.000002
   98  O 14  Z    0.001423  -0.008820   0.001538   0.001124  -0.000157
   99  C 15  S   -0.000856   0.000183   0.000063   0.000010   0.000023
  100  C 15  S   -0.003440   0.000446   0.000631   0.000115   0.000147
  101  C 15  X    0.001304   0.000842  -0.000308  -0.000085  -0.000016
  102  C 15  Y    0.000590  -0.000550   0.000039   0.000119  -0.000030
  103  C 15  Z   -0.000531   0.000339   0.000180   0.000070  -0.000010
  104  C 15  S    0.019953  -0.006032  -0.000821  -0.000356  -0.000657
  105  C 15  X    0.004192   0.000763   0.000645   0.000403   0.000319
  106  C 15  Y    0.006058  -0.000814   0.000354  -0.000781   0.000098
  107  C 15  Z   -0.005894   0.003818  -0.002154  -0.001130   0.000371
  108  O 16  S    0.983451  -0.001570  -0.000029  -0.000025  -0.000009
  109  O 16  S    0.097561   0.000106   0.000031   0.000020  -0.000001
  110  O 16  X   -0.000607  -0.000219   0.000044   0.000024  -0.000014
  111  O 16  Y   -0.003240   0.000416  -0.000073  -0.000034   0.000009
  112  O 16  Z    0.000803  -0.000173   0.000012  -0.000034   0.000016
  113  O 16  S   -0.043386   0.000236  -0.000381  -0.000127   0.000027
  114  O 16  X    0.003771   0.000628  -0.000016  -0.000045   0.000022
  115  O 16  Y    0.007290  -0.001800   0.000374   0.000188  -0.000051
  116  O 16  Z   -0.002439   0.000887  -0.000040   0.000152  -0.000065
  117  H 17  S   -0.000006   0.000010   0.000244   0.000477  -0.000781
  118  H 17  S    0.000108  -0.000289   0.000575   0.001594  -0.001875
  119  H 18  S   -0.000039   0.000026  -0.000084  -0.000041   0.003298
  120  H 18  S   -0.000006  -0.000114   0.000264  -0.000468   0.005792
  121  H 19  S    0.000042   0.000006  -0.000150   0.002949  -0.000496
  122  H 19  S    0.000007   0.000120   0.000320   0.005945   0.003470
  123  H 20  S    0.000083  -0.000436   0.002984  -0.000195  -0.000016
  124  H 20  S   -0.000408   0.003456   0.006074   0.000521   0.000159
  125  H 21  S   -0.000536   0.003087  -0.000403  -0.000124   0.000018
  126  H 21  S    0.003566   0.006202  -0.000493   0.000311  -0.000120
  127  H 22  S   -0.001092  -0.000351   0.000338   0.000193   0.000011
  128  H 22  S   -0.000217  -0.000011   0.001079   0.000331  -0.000105
  129  H 23  S   -0.001225   0.000684  -0.000393  -0.000049   0.000063
  130  H 23  S   -0.001994   0.000460   0.000370  -0.000773   0.000250
  131  H 24  S    0.002942  -0.000418   0.000154   0.000082  -0.000020
  132  H 24  S    0.005015  -0.000212  -0.000174  -0.000079  -0.000024

                      6          7          8          9         10
                  -20.1364   -11.1474   -11.1218   -11.0896   -11.0532
                     A          A          A          A          A   
    1  O  1  S    0.983456  -0.000002   0.000014   0.000011   0.000027
    2  O  1  S    0.099754  -0.000016   0.000105   0.000092   0.000255
    3  O  1  X    0.003811   0.000019   0.000013   0.000112   0.000084
    4  O  1  Y   -0.000744   0.000011  -0.000016   0.000020   0.000065
    5  O  1  Z   -0.001875   0.000014   0.000020   0.000066   0.000025
    6  O  1  S   -0.052282   0.000128  -0.000635  -0.000328  -0.001027
    7  O  1  X   -0.012798  -0.000062  -0.000291  -0.000706  -0.000434
    8  O  1  Y    0.002466  -0.000047   0.000183   0.000000  -0.000137
    9  O  1  Z    0.006209  -0.000068  -0.000049  -0.000324   0.000166
   10  C  2  S   -0.000011  -0.000162  -0.000212  -0.000808  -0.001543
   11  C  2  S    0.000250  -0.000262  -0.000381  -0.001242  -0.001251
   12  C  2  X   -0.001949  -0.000119  -0.000036  -0.000245  -0.000855
   13  C  2  Y    0.000612  -0.000015   0.000043  -0.000156   0.000071
   14  C  2  Z    0.000581  -0.000024  -0.000045  -0.000102  -0.000214
   15  C  2  S    0.020247   0.000535   0.002901   0.005741   0.001334
   16  C  2  X   -0.014148   0.000496   0.000693   0.003047  -0.000944
   17  C  2  Y   -0.001362   0.000050  -0.001264  -0.000783  -0.000442
   18  C  2  Z    0.015949  -0.000097   0.001415   0.001426   0.000182
   19  C  3  S    0.000223  -0.000318  -0.001022  -0.001470  -0.005070
   20  C  3  S    0.000829  -0.000369  -0.001125  -0.000565  -0.003570
   21  C  3  X   -0.000069  -0.000046  -0.000570  -0.001147   0.000831
   22  C  3  Y   -0.000072  -0.000024   0.000243   0.000002   0.000098
   23  C  3  Z    0.000759  -0.000068  -0.000133  -0.000268   0.000117
   24  C  3  S   -0.004633   0.001487   0.003538  -0.003293   0.025060
   25  C  3  X    0.006925   0.000589   0.005656   0.002995   0.012135
   26  C  3  Y   -0.001083   0.000552  -0.000816  -0.001222   0.007778
   27  C  3  Z   -0.008555   0.000589   0.000974   0.003104   0.001057
   28  H  4  S   -0.000615   0.000013  -0.000714  -0.000288  -0.001459
   29  H  4  S   -0.001935   0.000088  -0.000144   0.001342   0.000260
   30  O  5  S    0.000674   0.000011   0.000016   0.000044   0.000034
   31  O  5  S   -0.000524   0.000091   0.000105   0.000484  -0.000103
   32  O  5  X   -0.000382   0.000006   0.000055   0.000372  -0.000437
   33  O  5  Y    0.000077   0.000023  -0.000035  -0.000019  -0.000183
   34  O  5  Z    0.000211  -0.000021  -0.000041  -0.000079   0.000301
   35  O  5  S    0.003609  -0.000404  -0.000569  -0.001383  -0.001326
   36  O  5  X    0.001852  -0.000090  -0.000622  -0.001669   0.000586
   37  O  5  Y    0.000240  -0.000136   0.000124   0.000059  -0.000229
   38  O  5  Z   -0.002375   0.000200   0.000357   0.000508  -0.000026
   39  C  6  S    0.000013  -0.001171  -0.001501  -0.005830   0.988273
   40  C  6  S    0.000219  -0.001296  -0.000608  -0.004203   0.105700
   41  C  6  X    0.000162  -0.000408  -0.001037   0.000500   0.000598
   42  C  6  Y   -0.000022  -0.000110  -0.000063  -0.000098  -0.000820
   43  C  6  Z   -0.000063  -0.000027  -0.000173   0.000097   0.000418
   44  C  6  S   -0.002052   0.005321  -0.002440   0.028361  -0.096498
   45  C  6  X   -0.001645   0.004722   0.002545   0.014587  -0.002641
   46  C  6  Y    0.001503  -0.000429   0.002374  -0.008484   0.012176
   47  C  6  Z    0.003015   0.000671   0.001690  -0.000469  -0.001733
   48  H  7  S    0.000087  -0.000628  -0.000211  -0.001914   0.000795
   49  H  7  S    0.001635   0.000200   0.000479  -0.000829   0.014668
   50  O  8  S   -0.000263   0.000022   0.000056  -0.000004  -0.000259
   51  O  8  S    0.000188   0.000155   0.000572  -0.000420  -0.001000
   52  O  8  X    0.000017   0.000057   0.000278  -0.000046  -0.000154
   53  O  8  Y    0.000088  -0.000005  -0.000011   0.000373  -0.000293
   54  O  8  Z   -0.000120  -0.000034  -0.000106   0.000069  -0.000314
   55  O  8  S   -0.001097  -0.000794  -0.001672   0.000016   0.010293
   56  O  8  X   -0.000131  -0.000532  -0.001283  -0.000915   0.001417
   57  O  8  Y    0.000018   0.000265   0.000198  -0.000249  -0.003214
   58  O  8  Z    0.000706   0.000416   0.000697   0.000378  -0.003479
   59  C  9  S   -0.000023  -0.002100  -0.004753   0.988310   0.004612
   60  C  9  S   -0.000033  -0.000880  -0.003658   0.105916  -0.003039
   61  C  9  X   -0.000286  -0.001263   0.000352   0.000332  -0.000525
   62  C  9  Y   -0.000082   0.000149   0.000175   0.000732  -0.000040
   63  C  9  Z   -0.000024  -0.000321   0.000193  -0.000620   0.000066
   64  C  9  S    0.001657  -0.001796   0.028570  -0.097116   0.027759
   65  C  9  X    0.000935   0.004537   0.016219   0.000749  -0.014135
   66  C  9  Y    0.001203  -0.002746   0.007866  -0.011809   0.009329
   67  C  9  Z   -0.001081   0.000792  -0.002213   0.004429  -0.001134
   68  H 10  S    0.000078  -0.000377  -0.001172   0.000708  -0.001765
   69  H 10  S    0.000676  -0.000423   0.000859   0.013629   0.000439
   70  O 11  S   -0.000139   0.000050   0.000048  -0.000293   0.000007
   71  O 11  S    0.000092   0.000512  -0.000007  -0.001209  -0.000288
   72  O 11  X   -0.000057   0.000281  -0.000322   0.000135   0.000065
   73  O 11  Y    0.000041  -0.000034  -0.000433   0.000317  -0.000378
   74  O 11  Z   -0.000004   0.000187  -0.000275   0.000314  -0.000040
   75  O 11  S   -0.000307  -0.001292  -0.002466   0.011317  -0.000436
   76  O 11  X    0.000048  -0.001352   0.000169  -0.001065   0.000743
   77  O 11  Y   -0.000250   0.000056  -0.000130   0.003739   0.000116
   78  O 11  Z   -0.000027  -0.001016  -0.000128   0.003754  -0.000474
   79  C 12  S    0.000042  -0.006369   0.988384   0.003665   0.001535
   80  C 12  S    0.000227  -0.003235   0.106321  -0.002557  -0.000315
   81  C 12  X    0.000065   0.000007   0.000144  -0.000759   0.001249
   82  C 12  Y   -0.000021   0.000139  -0.001274   0.000022  -0.000123
   83  C 12  Z    0.000024   0.000288  -0.000593   0.000081   0.000168
   84  C 12  S   -0.001604   0.022270  -0.098912   0.025544  -0.003181
   85  C 12  X    0.000408   0.012348   0.001848  -0.011944  -0.003110
   86  C 12  Y    0.000719  -0.007762   0.014902  -0.008835   0.001664
   87  C 12  Z    0.000183   0.002456   0.002541  -0.001330  -0.002127
   88  H 13  S    0.000063  -0.001165   0.000366  -0.001252  -0.000312
   89  H 13  S   -0.000225   0.001160   0.012464   0.001322   0.000840
   90  O 14  S    0.000002   0.000023  -0.000333   0.000044   0.000051
   91  O 14  S   -0.000015  -0.000167  -0.001442  -0.000030   0.000526
   92  O 14  X   -0.000016  -0.000090   0.000059   0.000617  -0.000369
   93  O 14  Y    0.000005   0.000359  -0.000084   0.000324  -0.000010
   94  O 14  Z    0.000000  -0.000336   0.000488  -0.000386   0.000071
   95  O 14  S    0.000139  -0.001329   0.012576  -0.001914  -0.001456
   96  O 14  X    0.000064  -0.000441  -0.001166  -0.001624   0.001746
   97  O 14  Y   -0.000059  -0.000436  -0.002402  -0.000272   0.000062
   98  O 14  Z    0.000072  -0.000002   0.005319   0.000118  -0.000534
   99  C 15  S   -0.000015   0.987689   0.005345   0.002118   0.000827
  100  C 15  S   -0.000067   0.101757  -0.002880  -0.000294  -0.001089
  101  C 15  X   -0.000034  -0.000347  -0.000744   0.000776   0.000259
  102  C 15  Y    0.000015  -0.000016   0.000375  -0.000209   0.000069
  103  C 15  Z   -0.000005  -0.000225   0.000269  -0.000074  -0.000071
  104  C 15  S    0.000507  -0.080251   0.027447  -0.001796   0.004982
  105  C 15  X   -0.000190   0.009341  -0.012590   0.000379  -0.003501
  106  C 15  Y    0.000024  -0.002648   0.006011   0.000607   0.000997
  107  C 15  Z   -0.000144   0.002337  -0.007538   0.001927   0.000180
  108  O 16  S   -0.000016  -0.000200   0.000086  -0.000031  -0.000008
  109  O 16  S    0.000022  -0.000439   0.000439  -0.000291  -0.000094
  110  O 16  X   -0.000013  -0.000458   0.000386   0.000216   0.000013
  111  O 16  Y    0.000005  -0.000408  -0.000166  -0.000105   0.000009
  112  O 16  Z    0.000001   0.000258  -0.000232  -0.000082  -0.000041
  113  O 16  S   -0.000077   0.007734  -0.002915   0.000906   0.000332
  114  O 16  X    0.000076  -0.002808   0.000348  -0.001128   0.000001
  115  O 16  Y   -0.000007  -0.000986   0.001004   0.000254  -0.000115
  116  O 16  Z   -0.000005   0.001118   0.000669   0.000256   0.000157
  117  H 17  S    0.000486  -0.000091   0.000004  -0.000343   0.000182
  118  H 17  S    0.004320  -0.000106   0.000520   0.000077  -0.001013
  119  H 18  S   -0.000747   0.000012  -0.000117  -0.000338   0.000390
  120  H 18  S    0.002899  -0.000011   0.000076  -0.000410   0.000259
  121  H 19  S    0.000215  -0.000042   0.000048  -0.000656  -0.000261
  122  H 19  S   -0.000611  -0.000113  -0.000580   0.000144   0.003389
  123  H 20  S    0.000042   0.000187  -0.000543  -0.000200  -0.000698
  124  H 20  S   -0.000078  -0.000785   0.002106   0.003103   0.000268
  125  H 21  S   -0.000028  -0.000423  -0.000471   0.000787  -0.000278
  126  H 21  S   -0.000020   0.001865   0.002477   0.000918  -0.000432
  127  H 22  S   -0.000014   0.000032  -0.001193   0.000125  -0.000372
  128  H 22  S    0.000015   0.014317   0.002427  -0.001540  -0.000419
  129  H 23  S   -0.000024   0.000536  -0.001892  -0.000204  -0.000643
  130  H 23  S   -0.000119   0.015322  -0.001967   0.001785   0.000866
  131  H 24  S   -0.000013  -0.000475   0.000512   0.000236  -0.000087
  132  H 24  S   -0.000001   0.002040   0.000840   0.000256   0.000364

                     11         12         13         14         15
                  -11.0215   -10.9335    -1.2873    -1.2416    -1.1981
                     A          A          A          A          A   
    1  O  1  S    0.000048   0.000173  -0.000143  -0.001280  -0.011655
    2  O  1  S    0.000112   0.001193   0.000096   0.001147   0.010886
    3  O  1  X   -0.000139  -0.000465   0.000053   0.000749   0.006368
    4  O  1  Y   -0.000074   0.000059  -0.000023  -0.000201  -0.001614
    5  O  1  Z    0.000293   0.000112  -0.000059  -0.000240  -0.002043
    6  O  1  S   -0.002050  -0.002062   0.000589   0.004029   0.034673
    7  O  1  X   -0.001602  -0.003110   0.000443   0.001016   0.006328
    8  O  1  Y    0.001206   0.000255  -0.000077  -0.000305  -0.001898
    9  O  1  Z   -0.001532   0.002928   0.000254   0.000125  -0.001060
   10  C  2  S   -0.001647   0.986359  -0.000116  -0.001449  -0.010409
   11  C  2  S   -0.002645   0.096776   0.000696   0.001987   0.011327
   12  C  2  X    0.000430   0.000138   0.000216   0.000595  -0.000294
   13  C  2  Y    0.000065  -0.000019   0.000008  -0.000365  -0.002128
   14  C  2  Z   -0.000092   0.000611   0.000177   0.001066   0.007444
   15  C  2  S    0.025850  -0.051831  -0.002791  -0.000131   0.012703
   16  C  2  X    0.012111  -0.012673  -0.001819  -0.000917   0.001294
   17  C  2  Y   -0.008058   0.003326   0.000623   0.000803  -0.000025
   18  C  2  Z    0.009576   0.003276  -0.001450  -0.001798  -0.001532
   19  C  3  S    0.988375   0.001242  -0.001187  -0.005914  -0.025925
   20  C  3  S    0.105772  -0.000561   0.000848   0.006041   0.026517
   21  C  3  X    0.000565   0.000455   0.001315   0.003423   0.003766
   22  C  3  Y    0.000808  -0.000227   0.000143   0.000950   0.003245
   23  C  3  Z    0.000350   0.000331   0.000252   0.001784   0.014722
   24  C  3  S   -0.098538   0.010570   0.006053   0.009249   0.039060
   25  C  3  X   -0.000782  -0.008380  -0.001048  -0.002034   0.000159
   26  C  3  Y   -0.012742   0.002708   0.002396   0.001673   0.002399
   27  C  3  Z    0.001328  -0.007933   0.000119   0.002286   0.008328
   28  H  4  S    0.000702  -0.001420   0.000767   0.003419   0.009797
   29  H  4  S    0.014125   0.001052   0.000542   0.002466   0.004324
   30  O  5  S   -0.000294  -0.000043  -0.000991  -0.007227  -0.049501
   31  O  5  S   -0.001196  -0.000577   0.000951   0.006791   0.045519
   32  O  5  X   -0.000034  -0.000087   0.000027  -0.000074  -0.004515
   33  O  5  Y    0.000130  -0.000231   0.000256   0.001611   0.009553
   34  O  5  Z   -0.000470   0.000404  -0.000354  -0.002266  -0.012771
   35  O  5  S    0.011300   0.001411   0.002601   0.020985   0.151335
   36  O  5  X    0.001865   0.001104   0.000293  -0.000348  -0.005938
   37  O  5  Y    0.001824   0.000638   0.000097   0.001870   0.013046
   38  O  5  Z   -0.004562  -0.001430  -0.000067  -0.001443  -0.012894
   39  C  6  S    0.003966   0.001304  -0.004234  -0.017075  -0.041323
   40  C  6  S   -0.002743  -0.001383   0.006439   0.018502   0.043336
   41  C  6  X   -0.000389   0.001661   0.002800   0.008374   0.001845
   42  C  6  Y   -0.000179  -0.000440  -0.001446  -0.004226  -0.000751
   43  C  6  Z   -0.000155   0.000220   0.000351   0.002964   0.020611
   44  C  6  S    0.026713   0.001679  -0.008014   0.021882   0.070848
   45  C  6  X   -0.014637  -0.009277  -0.002326   0.000985   0.002078
   46  C  6  Y   -0.007847   0.003684   0.004587  -0.004197  -0.009632
   47  C  6  Z   -0.000593   0.001332  -0.001340  -0.002224  -0.018454
   48  H  7  S   -0.001254  -0.000490   0.001967   0.006017   0.011468
   49  H  7  S    0.000093   0.000072   0.002329   0.004997  -0.012114
   50  O  8  S    0.000036   0.000087  -0.003480  -0.017616  -0.074586
   51  O  8  S   -0.000078   0.000725   0.003165   0.016325   0.067889
   52  O  8  X    0.000214  -0.000075   0.000272   0.000072  -0.005765
   53  O  8  Y    0.000389  -0.000024  -0.001473  -0.007133  -0.026746
   54  O  8  Z    0.000299  -0.000184  -0.000700  -0.002445  -0.005383
   55  O  8  S   -0.001840  -0.003072   0.010917   0.054374   0.237176
   56  O  8  X    0.000173   0.000860   0.000048  -0.001656  -0.008179
   57  O  8  Y    0.000066   0.000597  -0.002070  -0.007592  -0.033875
   58  O  8  Z   -0.000036   0.001594  -0.000502  -0.002505  -0.009620
   59  C  9  S    0.001525   0.000432  -0.017165  -0.049046  -0.057941
   60  C  9  S   -0.000284  -0.001277   0.018598   0.050487   0.061918
   61  C  9  X    0.001047   0.000156   0.011329   0.013860  -0.007182
   62  C  9  Y    0.000092  -0.000053   0.000413  -0.007337  -0.031116
   63  C  9  Z    0.000110   0.000111  -0.008506  -0.030900  -0.041117
   64  C  9  S   -0.002856   0.007139   0.029935   0.079931   0.101824
   65  C  9  X   -0.002837  -0.003645  -0.012572   0.001999   0.001539
   66  C  9  Y   -0.002375   0.001914   0.009429   0.005403   0.006543
   67  C  9  Z   -0.000329  -0.002021  -0.004740  -0.006563   0.026429
   68  H 10  S   -0.000260  -0.000383   0.005883   0.013965   0.016965
   69  H 10  S   -0.000075   0.000762  -0.000973  -0.002319  -0.008580
   70  O 11  S    0.000050   0.000034  -0.027559  -0.103083  -0.163765
   71  O 11  S    0.000501   0.000274   0.025139   0.095534   0.149593
   72  O 11  X   -0.000286  -0.000082   0.004605   0.013371   0.014723
   73  O 11  Y   -0.000051   0.000041   0.011470   0.037829   0.050168
   74  O 11  Z    0.000057   0.000011   0.001716   0.005086   0.007655
   75  O 11  S   -0.001296  -0.001203   0.084803   0.317087   0.526043
   76  O 11  X    0.001418   0.000465   0.007539   0.018153   0.020811
   77  O 11  Y    0.000092  -0.000576   0.012778   0.046167   0.069014
   78  O 11  Z   -0.000450  -0.000386   0.003764   0.007521   0.014669
   79  C 12  S    0.000715   0.000155  -0.045585  -0.057321   0.020418
   80  C 12  S   -0.001017  -0.000155   0.045331   0.060532  -0.023160
   81  C 12  X    0.000540   0.000292   0.017979  -0.008365  -0.020638
   82  C 12  Y   -0.000251  -0.000058  -0.003408   0.002959  -0.022068
   83  C 12  Z    0.000048   0.000058  -0.025696  -0.051801   0.035503
   84  C 12  S    0.004132  -0.000371   0.085943   0.102282  -0.039805
   85  C 12  X   -0.005288  -0.001022   0.012996  -0.001671   0.006278
   86  C 12  Y    0.000645   0.000657  -0.004848  -0.010709  -0.009193
   87  C 12  Z   -0.000651  -0.000074  -0.001196   0.001860  -0.021718
   88  H 13  S   -0.000689  -0.000090   0.012237   0.016895  -0.004580
   89  H 13  S   -0.000016  -0.000145  -0.004134  -0.005259   0.009811
   90  O 14  S    0.000019   0.000004  -0.092831  -0.159613   0.117759
   91  O 14  S    0.000120   0.000037   0.085892   0.146192  -0.107797
   92  O 14  X    0.000001  -0.000003   0.023578   0.027755  -0.031609
   93  O 14  Y    0.000048  -0.000023  -0.009723  -0.015353   0.001291
   94  O 14  Z    0.000046   0.000024   0.025006   0.036284  -0.022021
   95  O 14  S   -0.000733  -0.000128   0.283453   0.505355  -0.383735
   96  O 14  X    0.000319   0.000124   0.027497   0.035835  -0.039744
   97  O 14  Y   -0.000149   0.000046  -0.013378  -0.021614   0.005239
   98  O 14  Z   -0.000508  -0.000108   0.030611   0.048588  -0.039317
   99  C 15  S    0.000230   0.000088  -0.066909   0.016820  -0.004180
  100  C 15  S   -0.000386  -0.000336   0.072222  -0.018138   0.005645
  101  C 15  X   -0.000011   0.000079   0.035777  -0.041541   0.011897
  102  C 15  Y   -0.000016   0.000021   0.033144  -0.006671  -0.003091
  103  C 15  Z   -0.000010  -0.000004  -0.030718   0.004502   0.000794
  104  C 15  S    0.002538   0.001439   0.107667  -0.034504   0.000937
  105  C 15  X   -0.000695  -0.000937  -0.000088   0.002648  -0.001182
  106  C 15  Y    0.001046   0.000175  -0.006837   0.002053  -0.000255
  107  C 15  Z   -0.000322  -0.000148   0.000260  -0.009169   0.013866
  108  O 16  S    0.000007  -0.000001  -0.194409   0.109509  -0.029709
  109  O 16  S    0.000037  -0.000015   0.180050  -0.102161   0.027937
  110  O 16  X    0.000062   0.000007  -0.006401  -0.009480   0.006278
  111  O 16  Y   -0.000044   0.000000  -0.053997   0.032590  -0.010131
  112  O 16  Z    0.000002  -0.000018   0.010716  -0.008984   0.004261
  113  O 16  S   -0.000308   0.000047   0.608882  -0.348945   0.097104
  114  O 16  X   -0.000105   0.000002  -0.017609  -0.002460   0.006033
  115  O 16  Y    0.000221  -0.000010  -0.068977   0.044581  -0.016220
  116  O 16  Z   -0.000073   0.000074   0.014743  -0.014946   0.006751
  117  H 17  S   -0.000879  -0.001268   0.000190   0.000463   0.002184
  118  H 17  S    0.002861   0.013428  -0.000585  -0.001306  -0.002039
  119  H 18  S   -0.000625  -0.000389   0.000409   0.002597   0.019366
  120  H 18  S    0.002683   0.002223  -0.000022  -0.000105   0.001468
  121  H 19  S   -0.000521  -0.000058   0.001326   0.007535   0.034474
  122  H 19  S    0.001981  -0.000061  -0.000248  -0.000644   0.003308
  123  H 20  S    0.000083   0.000029   0.016345   0.052569   0.064993
  124  H 20  S   -0.000636  -0.000197   0.001617   0.006864   0.004776
  125  H 21  S    0.000023  -0.000011   0.048807   0.061369  -0.053577
  126  H 21  S    0.000092   0.000018   0.008063   0.003511  -0.008674
  127  H 22  S   -0.000110  -0.000090   0.019558  -0.005080   0.001356
  128  H 22  S   -0.000031  -0.000032  -0.007204   0.001395  -0.002999
  129  H 23  S   -0.000065  -0.000163   0.021063  -0.003125   0.004330
  130  H 23  S    0.000083   0.000039  -0.003987   0.002881   0.008913
  131  H 24  S    0.000105  -0.000013   0.086531  -0.054321   0.016118
  132  H 24  S    0.000073   0.000092   0.017057  -0.013788   0.004515

                     16         17         18         19         20
                   -1.1842    -1.1459    -1.0938    -0.9327    -0.8589
                     A          A          A          A          A   
    1  O  1  S   -0.030519  -0.069691  -0.203572   0.001091   0.016441
    2  O  1  S    0.028396   0.065321   0.189924  -0.001315  -0.015691
    3  O  1  X    0.016076   0.033058   0.084073  -0.000182   0.001750
    4  O  1  Y   -0.003852  -0.007605  -0.012381   0.000077  -0.000177
    5  O  1  Z   -0.005445  -0.013755  -0.049898  -0.000166  -0.000361
    6  O  1  S    0.091956   0.210391   0.647889  -0.002146  -0.054501
    7  O  1  X    0.016172   0.034147   0.091964   0.001265   0.001561
    8  O  1  Y   -0.005535  -0.009482  -0.016038  -0.000280  -0.000163
    9  O  1  Z   -0.003643  -0.010632  -0.050707   0.000329   0.001166
   10  C  2  S   -0.024809  -0.044580  -0.103110  -0.001346  -0.022098
   11  C  2  S    0.025610   0.047115   0.107192   0.004143   0.029134
   12  C  2  X   -0.005190  -0.025391  -0.105966   0.003709   0.038276
   13  C  2  Y   -0.004240  -0.005255   0.013527  -0.000687  -0.010682
   14  C  2  Z    0.017985   0.031796   0.064618   0.000057  -0.000835
   15  C  2  S    0.027754   0.055509   0.123234  -0.010070   0.022770
   16  C  2  X    0.004193   0.005775   0.040255  -0.004368   0.001171
   17  C  2  Y    0.002904  -0.004798   0.002345   0.003863   0.006140
   18  C  2  Z   -0.003258   0.001952  -0.043188  -0.004985  -0.014666
   19  C  3  S   -0.048137  -0.048739   0.010076  -0.009199  -0.079393
   20  C  3  S    0.049199   0.049568  -0.015301   0.012379   0.078686
   21  C  3  X   -0.003547  -0.030798  -0.010095   0.011697   0.048696
   22  C  3  Y    0.006202  -0.014611   0.017981   0.002798   0.025621
   23  C  3  Z    0.036462   0.043493  -0.035730  -0.002102  -0.024447
   24  C  3  S    0.084150   0.090648  -0.014862   0.012637   0.195783
   25  C  3  X   -0.005502   0.010042  -0.023219  -0.015449  -0.006042
   26  C  3  Y    0.005963  -0.001981   0.010589  -0.003666   0.007889
   27  C  3  Z    0.001872  -0.011036   0.034551  -0.009877  -0.018255
   28  H  4  S    0.011904   0.012713  -0.000641   0.006629   0.047889
   29  H  4  S   -0.009870  -0.008007   0.008619  -0.007795  -0.005606
   30  O  5  S   -0.113844  -0.161876   0.093801   0.005230   0.035962
   31  O  5  S    0.103844   0.148572  -0.082970  -0.004992  -0.031032
   32  O  5  X   -0.013692  -0.031129   0.010709   0.003936   0.030773
   33  O  5  Y    0.021526   0.020641  -0.008637  -0.000915   0.001396
   34  O  5  Z   -0.026938  -0.035747   0.013343  -0.002754  -0.027742
   35  O  5  S    0.355091   0.514769  -0.321695  -0.016740  -0.137257
   36  O  5  X   -0.014873  -0.036897   0.010896   0.005613   0.024534
   37  O  5  Y    0.028546   0.027302  -0.015179  -0.001537  -0.004246
   38  O  5  Z   -0.032080  -0.050756   0.027810  -0.002159  -0.012650
   39  C  6  S   -0.055535   0.037805  -0.002727  -0.031643  -0.121945
   40  C  6  S    0.057337  -0.038753   0.005177   0.034549   0.118937
   41  C  6  X   -0.020631  -0.007792   0.000217   0.030141   0.018321
   42  C  6  Y    0.025646  -0.035713   0.009211  -0.021255  -0.063848
   43  C  6  Z    0.044814  -0.038810   0.003307  -0.005986  -0.033463
   44  C  6  S    0.102064  -0.078039   0.008272   0.064939   0.326717
   45  C  6  X    0.011533   0.000527   0.018616  -0.016180   0.011243
   46  C  6  Y   -0.010515   0.004286  -0.006435  -0.005014  -0.046450
   47  C  6  Z    0.009583   0.020767  -0.019527  -0.000189  -0.003579
   48  H  7  S    0.015989  -0.009477   0.001784   0.018776   0.069043
   49  H  7  S   -0.001547   0.006762  -0.007421  -0.006025   0.008230
   50  O  8  S   -0.150533   0.139733  -0.018864   0.027699   0.062534
   51  O  8  S    0.138685  -0.127645   0.015640  -0.024622  -0.054964
   52  O  8  X   -0.014470   0.008027  -0.000390   0.012908   0.022826
   53  O  8  Y   -0.050915   0.040020  -0.003491  -0.001419  -0.014342
   54  O  8  Z   -0.008303   0.006514  -0.001278  -0.012044  -0.050511
   55  O  8  S    0.469737  -0.450939   0.070823  -0.100199  -0.237230
   56  O  8  X   -0.016563   0.007285  -0.000777   0.013539   0.015968
   57  O  8  Y   -0.064769   0.056490  -0.007422   0.006031   0.006135
   58  O  8  Z   -0.013065   0.012229  -0.005512  -0.006471  -0.031511
   59  C  9  S    0.017452   0.006426  -0.000223  -0.084486  -0.097043
   60  C  9  S   -0.016425  -0.006363   0.001180   0.086539   0.092199
   61  C  9  X   -0.014644   0.007152   0.001076   0.042643  -0.065774
   62  C  9  Y    0.031937  -0.012082   0.001369   0.046381   0.049657
   63  C  9  Z    0.028959  -0.004242  -0.000781   0.030336   0.010986
   64  C  9  S   -0.050199  -0.012790  -0.008568   0.198367   0.273731
   65  C  9  X    0.002516  -0.001458   0.000771  -0.010457   0.024270
   66  C  9  Y   -0.003214  -0.004741  -0.006173   0.020809   0.031810
   67  C  9  Z    0.001864  -0.018885   0.010430   0.007609  -0.007330
   68  H 10  S   -0.003454  -0.001688  -0.000337   0.048541   0.053884
   69  H 10  S    0.005880   0.009495  -0.008218  -0.000369   0.005131
   70  O 11  S    0.099748  -0.011349  -0.000989   0.053449   0.044825
   71  O 11  S   -0.091694   0.011207   0.000387  -0.048363  -0.037938
   72  O 11  X   -0.012318   0.001699   0.000525  -0.003762  -0.032967
   73  O 11  Y   -0.028788   0.002388   0.000175   0.006349   0.018786
   74  O 11  Z   -0.001698  -0.000545  -0.000235   0.035797   0.041075
   75  O 11  S   -0.317525   0.031961   0.005668  -0.193017  -0.180438
   76  O 11  X   -0.014362   0.001006   0.000074  -0.003064  -0.034167
   77  O 11  Y   -0.040491   0.002794   0.001949  -0.008874   0.001096
   78  O 11  Z   -0.005978  -0.001734   0.000629   0.020587   0.024927
   79  C 12  S   -0.006886   0.002368  -0.000486  -0.133779   0.010222
   80  C 12  S    0.007516  -0.002267   0.000035   0.128372  -0.004584
   81  C 12  X    0.004970   0.002870  -0.000814   0.004395  -0.089917
   82  C 12  Y    0.010508  -0.000196  -0.000005  -0.057275   0.016880
   83  C 12  Z   -0.008327  -0.002776   0.000309   0.054212  -0.014605
   84  C 12  S    0.014494  -0.000523   0.005043   0.359853  -0.048713
   85  C 12  X   -0.005478   0.004701  -0.000994   0.005425   0.007442
   86  C 12  Y    0.002878  -0.000488  -0.003198  -0.039412   0.023912
   87  C 12  Z    0.005866   0.005619  -0.001797   0.020324   0.008932
   88  H 13  S    0.003374  -0.002152   0.000284   0.069397   0.001808
   89  H 13  S    0.003096  -0.007200   0.002322  -0.002157  -0.011099
   90  O 14  S   -0.035188  -0.003785   0.000766   0.063978  -0.008533
   91  O 14  S    0.032600   0.003091  -0.000663  -0.055999   0.007920
   92  O 14  X    0.010091   0.001626  -0.000350  -0.034358  -0.017898
   93  O 14  Y    0.001642  -0.000581  -0.000019  -0.019205   0.008610
   94  O 14  Z    0.007032  -0.000312   0.000027   0.049060  -0.002796
   95  O 14  S    0.114278   0.014294  -0.003077  -0.243861   0.033457
   96  O 14  X    0.013646   0.000855  -0.000719  -0.027884  -0.018826
   97  O 14  Y    0.001086  -0.000667   0.000047  -0.003531   0.005329
   98  O 14  Z    0.011714   0.001680  -0.000342   0.019422   0.001219
   99  C 15  S    0.001564   0.000297  -0.000017  -0.123302   0.095474
  100  C 15  S   -0.001377  -0.000273   0.000510   0.127258  -0.089846
  101  C 15  X   -0.002947   0.000434  -0.000127  -0.074335   0.023565
  102  C 15  Y    0.001611  -0.000159  -0.000044   0.012073   0.005143
  103  C 15  Z    0.000047  -0.000233   0.000004   0.005458  -0.005980
  104  C 15  S   -0.000716  -0.003145  -0.002149   0.312218  -0.295354
  105  C 15  X    0.003513   0.000085   0.001460  -0.015358   0.024165
  106  C 15  Y    0.000900  -0.002062   0.000146  -0.014444  -0.000003
  107  C 15  Z   -0.004255  -0.000812   0.000871   0.012887  -0.001246
  108  O 16  S    0.006831   0.000362  -0.000030   0.044421  -0.032329
  109  O 16  S   -0.006307  -0.000473   0.000018  -0.039325   0.029012
  110  O 16  X   -0.001747  -0.000117   0.000038  -0.065186   0.067551
  111  O 16  Y    0.002528   0.000161  -0.000037  -0.002728   0.006354
  112  O 16  Z   -0.001124  -0.000227   0.000060   0.027068  -0.023885
  113  O 16  S   -0.023290  -0.000594   0.000108  -0.172923   0.131193
  114  O 16  X   -0.001920  -0.000418  -0.000112  -0.044298   0.054239
  115  O 16  Y    0.004673   0.000141  -0.000014   0.003713   0.000247
  116  O 16  Z   -0.002440   0.000209  -0.000084   0.016932  -0.017098
  117  H 17  S    0.004962   0.009480   0.019808   0.001173   0.013264
  118  H 17  S   -0.005693  -0.004270  -0.023220  -0.000361  -0.001029
  119  H 18  S    0.046261   0.072722  -0.029268  -0.003745  -0.030351
  120  H 18  S    0.005887   0.011950   0.000893  -0.001789  -0.019899
  121  H 19  S    0.070122  -0.051908   0.002871  -0.017323  -0.044584
  122  H 19  S    0.009794  -0.005232  -0.001475  -0.009715  -0.038600
  123  H 20  S   -0.042118   0.004928   0.000526  -0.034398  -0.034946
  124  H 20  S   -0.006509   0.001959   0.000605  -0.032194  -0.026642
  125  H 21  S    0.016650   0.001982  -0.000373  -0.048463  -0.004491
  126  H 21  S    0.002517   0.001144  -0.000138  -0.041104   0.008783
  127  H 22  S   -0.000276  -0.000048   0.000073   0.070987  -0.060070
  128  H 22  S    0.000816   0.000278  -0.000082   0.001524  -0.008519
  129  H 23  S   -0.001713  -0.000078   0.000248   0.070182  -0.058168
  130  H 23  S   -0.004960  -0.000236   0.000537  -0.006265  -0.014561
  131  H 24  S   -0.003692  -0.000245   0.000067  -0.049127   0.045489
  132  H 24  S   -0.001395  -0.000012  -0.000100  -0.031212   0.029078

                     21         22         23         24         25
                   -0.7868    -0.6976    -0.6493    -0.6307    -0.5850
                     A          A          A          A          A   
    1  O  1  S    0.035208   0.039722  -0.031041   0.012477  -0.009953
    2  O  1  S   -0.032441  -0.036005   0.027632  -0.011530   0.009267
    3  O  1  X    0.010532   0.022424  -0.023029   0.009703  -0.009656
    4  O  1  Y   -0.002773  -0.007267   0.008153  -0.002372   0.000433
    5  O  1  Z   -0.001990  -0.007009   0.012162  -0.002715   0.002821
    6  O  1  S   -0.126687  -0.151748   0.123237  -0.047786   0.038462
    7  O  1  X    0.004976   0.013909  -0.015981   0.007337  -0.007969
    8  O  1  Y   -0.001475  -0.004555   0.005045  -0.001920   0.000219
    9  O  1  Z    0.001018  -0.003548   0.008177  -0.002239   0.002862
   10  C  2  S   -0.052555  -0.065380   0.054549  -0.020842   0.016968
   11  C  2  S    0.060421   0.070371  -0.057966   0.021356  -0.017018
   12  C  2  X    0.073966   0.069055  -0.043232   0.017748  -0.012326
   13  C  2  Y   -0.025460  -0.030170   0.028661  -0.003410  -0.004363
   14  C  2  Z   -0.002547  -0.008009   0.010271  -0.005490   0.006446
   15  C  2  S    0.099737   0.160256  -0.144273   0.060143  -0.054921
   16  C  2  X    0.016941   0.031926  -0.023644   0.016321  -0.016882
   17  C  2  Y   -0.000304  -0.012599   0.016859  -0.002504   0.000210
   18  C  2  Z   -0.017555  -0.013000   0.011347  -0.005389   0.004298
   19  C  3  S   -0.120368  -0.073922   0.052712   0.002114  -0.012931
   20  C  3  S    0.111317   0.064825  -0.044381  -0.001772   0.011249
   21  C  3  X    0.016136  -0.063663   0.063025  -0.031583   0.020402
   22  C  3  Y    0.033469   0.011431   0.023349   0.018065  -0.030810
   23  C  3  Z   -0.043052  -0.041813   0.026452  -0.013634   0.008977
   24  C  3  S    0.349881   0.250520  -0.199166  -0.009714   0.051837
   25  C  3  X    0.007267  -0.009912   0.002845  -0.020729   0.015672
   26  C  3  Y    0.037460   0.030525  -0.000215   0.008613  -0.009258
   27  C  3  Z   -0.016842  -0.015625   0.013966  -0.004291   0.000415
   28  H  4  S    0.071064   0.044841  -0.045017  -0.010276   0.023876
   29  H  4  S    0.016805   0.017966  -0.012970  -0.011763   0.024164
   30  O  5  S    0.045672   0.024624  -0.021389  -0.001146   0.002970
   31  O  5  S   -0.039236  -0.021848   0.019461   0.000901  -0.002508
   32  O  5  X    0.040164   0.009197  -0.027709  -0.025062   0.032084
   33  O  5  Y    0.009096   0.008780  -0.005878   0.002026  -0.005239
   34  O  5  Z   -0.052407  -0.044542   0.043385   0.004651  -0.018149
   35  O  5  S   -0.183830  -0.102241   0.087667   0.004856  -0.013261
   36  O  5  X    0.029165   0.003715  -0.023450  -0.024550   0.031150
   37  O  5  Y    0.000992   0.004210  -0.004485   0.001247  -0.005301
   38  O  5  Z   -0.030843  -0.033489   0.035321   0.004719  -0.017932
   39  C  6  S   -0.051853   0.056298  -0.106500  -0.004787   0.015289
   40  C  6  S    0.050446  -0.048857   0.091185   0.005304  -0.014280
   41  C  6  X   -0.097051  -0.071708   0.030525   0.006436  -0.003126
   42  C  6  Y   -0.020902   0.023268   0.068947   0.047041  -0.037803
   43  C  6  Z   -0.032077  -0.007577  -0.057575  -0.029151   0.024521
   44  C  6  S    0.154325  -0.194074   0.411783   0.020767  -0.059854
   45  C  6  X    0.008629  -0.001821   0.028407   0.008900   0.006577
   46  C  6  Y   -0.024801   0.034841   0.003777   0.024879  -0.025043
   47  C  6  Z   -0.016903  -0.011099  -0.041929  -0.015847   0.020572
   48  H  7  S    0.031963  -0.028760   0.116622   0.033053  -0.033735
   49  H  7  S    0.005460  -0.014690   0.045785   0.026786  -0.007848
   50  O  8  S    0.017283  -0.017487   0.024623  -0.002632   0.000609
   51  O  8  S   -0.016837   0.013710  -0.020406   0.002770  -0.001132
   52  O  8  X   -0.017297  -0.024155   0.041077   0.004284   0.004892
   53  O  8  Y   -0.006128   0.019443  -0.003714   0.014398  -0.008818
   54  O  8  Z   -0.026969   0.029358  -0.111460  -0.021173   0.030587
   55  O  8  S   -0.061457   0.080525  -0.113394   0.008720   0.001739
   56  O  8  X   -0.018866  -0.020716   0.036023   0.002609   0.005654
   57  O  8  Y   -0.002607   0.010481   0.002505   0.013177  -0.008731
   58  O  8  Z   -0.020435   0.023527  -0.097125  -0.018875   0.028248
   59  C  9  S    0.081118   0.065433   0.078258   0.020398   0.008771
[...]
   15 C             0.000655                     0.000728
   16 O             0.000077                     0.000168
   17 H            -0.088322                    -0.047964
   18 H            -0.006437                    -0.004391
   19 H             0.000929                     0.000609
   20 H             0.000017                     0.000027
   21 H            -0.000038                    -0.000026
   22 H            -0.000079                    -0.000046
   23 H            -0.000061                    -0.000008
   24 H             0.000178                     0.000136


          ********* ALL ELECTRONS ********

               ----- POPULATIONS IN EACH AO -----
                             MULLIKEN      LOWDIN
              1  O  1  S      1.98641     1.98091
              2  O  1  S      0.41123     0.56826
              3  O  1  X      0.67122     0.67067
              4  O  1  Y      0.71658     0.72652
              5  O  1  Z      0.71413     0.71579
              6  O  1  S      1.53953     1.05859
              7  O  1  X      0.85885     0.88606
              8  O  1  Y      0.93335     0.94032
              9  O  1  Z      0.92208     0.95412
             10  C  2  S      1.98627     1.97539
             11  C  2  S      0.37962     0.40834
             12  C  2  X      0.54262     0.53655
             13  C  2  Y      0.54755     0.54927
             14  C  2  Z      0.52491     0.49957
             15  C  2  S      0.69179     0.54912
             16  C  2  X      0.20675     0.45897
             17  C  2  Y      0.63817     0.68395
             18  C  2  Z      0.40510     0.55383
             19  C  3  S      1.99009     1.97569
             20  C  3  S      0.35021     0.42589
             21  C  3  X      0.56358     0.55648
             22  C  3  Y      0.54889     0.52448
             23  C  3  Z      0.42906     0.41719
             24  C  3  S      1.04424     0.56280
             25  C  3  X      0.37403     0.52175
             26  C  3  Y      0.47787     0.55146
             27  C  3  Z      0.25099     0.43448
             28  H  4  S      0.48140     0.49881
             29  H  4  S      0.33531     0.45104
             30  O  5  S      1.98600     1.98011
             31  O  5  S      0.40705     0.56673
             32  O  5  X      0.63723     0.62631
             33  O  5  Y      0.82455     0.83738
             34  O  5  Z      0.62379     0.62111
             35  O  5  S      1.51828     1.04659
             36  O  5  X      0.84457     0.84114
             37  O  5  Y      1.05770     1.04917
             38  O  5  Z      0.86041     0.88644
             39  C  6  S      1.99012     1.97581
             40  C  6  S      0.35265     0.43088
             41  C  6  X      0.55375     0.54912
             42  C  6  Y      0.51096     0.49195
             43  C  6  Z      0.48099     0.46587
             44  C  6  S      1.01019     0.55690
             45  C  6  X      0.29532     0.49758
             46  C  6  Y      0.33629     0.49303
             47  C  6  Z      0.39328     0.48604
             48  H  7  S      0.47633     0.48898
             49  H  7  S      0.30331     0.43232
             50  O  8  S      1.98611     1.98038
             51  O  8  S      0.41105     0.57128
             52  O  8  X      0.79166     0.79806
             53  O  8  Y      0.69790     0.69959
             54  O  8  Z      0.58990     0.57698
             55  O  8  S      1.52251     1.04923
             56  O  8  X      1.00826     1.00371
             57  O  8  Y      0.94005     0.94967
             58  O  8  Z      0.76990     0.80646
             59  C  9  S      1.99016     1.97579
             60  C  9  S      0.35213     0.42911
             61  C  9  X      0.55910     0.55494
             62  C  9  Y      0.50858     0.49011
             63  C  9  Z      0.48103     0.46538
             64  C  9  S      1.01362     0.55679
             65  C  9  X      0.30296     0.50202
             66  C  9  Y      0.33262     0.48792
             67  C  9  Z      0.40913     0.49120
             68  H 10  S      0.47612     0.48753
             69  H 10  S      0.30506     0.43338
             70  O 11  S      1.98619     1.98054
             71  O 11  S      0.41299     0.57468
             72  O 11  X      0.80235     0.80925
             73  O 11  Y      0.69081     0.69174
             74  O 11  Z      0.57891     0.56414
             75  O 11  S      1.52680     1.05491
             76  O 11  X      1.01689     1.01363
             77  O 11  Y      0.92891     0.94256
             78  O 11  Z      0.75195     0.79406
             79  C 12  S      1.99023     1.97581
             80  C 12  S      0.35131     0.42625
             81  C 12  X      0.56262     0.55382
             82  C 12  Y      0.55909     0.53723
             83  C 12  Z      0.42504     0.41379
             84  C 12  S      1.03597     0.55924
             85  C 12  X      0.31323     0.50007
             86  C 12  Y      0.48414     0.54942
             87  C 12  Z      0.27401     0.43231
             88  H 13  S      0.47312     0.48266
             89  H 13  S      0.27738     0.42180
             90  O 14  S      1.98609     1.98036
             91  O 14  S      0.41140     0.57273
             92  O 14  X      0.63952     0.62738
             93  O 14  Y      0.83609     0.84925
             94  O 14  Z      0.60115     0.59547
             95  O 14  S      1.52209     1.05141
             96  O 14  X      0.83844     0.83594
             97  O 14  Y      1.05080     1.04529
             98  O 14  Z      0.81653     0.86143
             99  C 15  S      1.98858     1.97591
            100  C 15  S      0.36198     0.42657
            101  C 15  X      0.45648     0.45309
            102  C 15  Y      0.54145     0.51455
            103  C 15  Z      0.54586     0.51223
            104  C 15  S      1.01756     0.57851
            105  C 15  X      0.28052     0.44227
            106  C 15  Y      0.43758     0.54488
            107  C 15  Z      0.50640     0.55995
            108  O 16  S      1.98582     1.98024
            109  O 16  S      0.41283     0.57076
            110  O 16  X      0.57569     0.56029
            111  O 16  Y      0.69690     0.69509
            112  O 16  Z      0.80764     0.81695
            113  O 16  S      1.50487     1.05093
            114  O 16  X      0.74575     0.76782
            115  O 16  Y      0.93432     0.94157
            116  O 16  Z      1.02202     1.02159
            117  H 17  S      0.47706     0.48590
            118  H 17  S      0.49034     0.53694
            119  H 18  S      0.37468     0.39794
            120  H 18  S      0.23345     0.34980
            121  H 19  S      0.38772     0.40702
            122  H 19  S      0.22620     0.34635
            123  H 20  S      0.39024     0.40864
            124  H 20  S      0.22144     0.34600
            125  H 21  S      0.38817     0.40748
            126  H 21  S      0.20559     0.33743
            127  H 22  S      0.47996     0.48290
            128  H 22  S      0.32356     0.44363
            129  H 23  S      0.47398     0.48093
            130  H 23  S      0.30288     0.43596
            131  H 24  S      0.41369     0.43119
            132  H 24  S      0.21229     0.32223

          ----- MULLIKEN ATOMIC OVERLAP POPULATIONS -----
          (OFF-DIAGONAL ELEMENTS NEED TO BE MULTIPLIED BY 2)

             1           2           3           4           5

    1    8.4778844
    2    0.3680616   5.2212606
    3   -0.0878545   0.1473114   5.6637871
    4    0.0013874  -0.0484084   0.3567723   0.5997790
    5   -0.0112413  -0.0366547   0.2212407  -0.0271738   8.3858120
    6    0.0012075  -0.0827893   0.1366923  -0.0926440  -0.0512643
    7    0.0000080  -0.0017823  -0.0402643   0.0034312   0.0013845
    8   -0.0000141   0.0013828  -0.0379733   0.0015609  -0.0105377
    9   -0.0000289   0.0051285  -0.0796082  -0.0001422  -0.0005131
   10    0.0000001   0.0000677  -0.0042662   0.0007799   0.0048058
   11   -0.0000000   0.0000305  -0.0045903   0.0135685   0.0000201
   12    0.0000000  -0.0000743   0.0047763   0.0001776  -0.0000016
   13    0.0000000  -0.0000019   0.0002409  -0.0000308   0.0000002
   14   -0.0000000  -0.0000002  -0.0000130  -0.0000010  -0.0000000
   15   -0.0000000   0.0000003  -0.0000817   0.0000031   0.0000001
   16    0.0000000  -0.0000000   0.0000000  -0.0000000  -0.0000000
   17   -0.0571003   0.3426751  -0.1369678   0.0034148   0.0014445
   18    0.0609624   0.0042872  -0.0965818   0.0028435   0.2366611
   19    0.0001186   0.0023144  -0.0136889   0.0014100   0.0456020
   20    0.0000000  -0.0000167   0.0000361  -0.0000132  -0.0000024
   21    0.0000000  -0.0000000   0.0000034   0.0000001   0.0000000
   22    0.0000000  -0.0000000   0.0000011  -0.0000001  -0.0000000
   23   -0.0000000   0.0000000  -0.0000045  -0.0000048  -0.0000000
   24   -0.0000000   0.0000000  -0.0000000   0.0000000   0.0000000

             6           7           8           9          10

    6    5.5716934
    7    0.3836430   0.5063236
    8    0.2243633  -0.0238630   8.3457890
    9    0.0644546  -0.0688692  -0.0494240   5.5825068
   10   -0.0495996   0.0032704   0.0017503   0.3789937   0.5108840
   11   -0.0362527   0.0022981   0.0002200   0.2011225  -0.0240193
   12   -0.0745578  -0.0051112  -0.0007630   0.1571760  -0.0519325
   13   -0.0034674   0.0004948   0.0125443  -0.0456356   0.0020418
   14   -0.0017332   0.0069732   0.0000181  -0.0508439   0.0013372
   15    0.0043291   0.0001274   0.0000050  -0.0780817  -0.0009906
   16   -0.0000150   0.0000008   0.0000000   0.0015376   0.0000085
   17    0.0033031   0.0042792   0.0000089  -0.0002835  -0.0000044
   18    0.0076556  -0.0000517   0.0002724  -0.0003311  -0.0001237
   19   -0.0827801   0.0052179   0.2520165   0.0019206   0.0031222
   20    0.0012580   0.0022467  -0.0000093  -0.0751121   0.0051635
   21   -0.0002649  -0.0001025  -0.0000012   0.0071139  -0.0000984
   22   -0.0001098  -0.0000038   0.0000007   0.0019178   0.0011204
   23    0.0004100  -0.0000159  -0.0000036  -0.0034951  -0.0011240
   24    0.0000016  -0.0000000  -0.0000000  -0.0001746  -0.0000009

            11          12          13          14          15

   11    8.3294527
   12   -0.0387931   5.4675783
   13    0.0014838   0.3591691   0.4894996
   14   -0.0105927   0.2095286  -0.0248763   8.3288177
   15   -0.0074485   0.1880742  -0.0458468  -0.0446802   5.2813272
   16    0.0000004  -0.0457104   0.0003788  -0.0100339   0.2036516
   17    0.0000032   0.0000071   0.0000002  -0.0000007  -0.0000000
   18   -0.0000026   0.0000029   0.0000001   0.0000000  -0.0000000
   19   -0.0000158  -0.0003747  -0.0002085  -0.0000026  -0.0000043
   20    0.2532463  -0.0196526   0.0010518   0.0408505   0.0015947
   21    0.0001745  -0.0638185   0.0007277   0.2541988  -0.0153865
   22    0.0001036  -0.0445711  -0.0000356   0.0015506   0.3460085
   23    0.0157884  -0.0510118   0.0030429   0.0013333   0.3461683
   24    0.0000049   0.0055131  -0.0000765   0.0002821  -0.0423606

            16          17          18          19          20

   16    8.2938780
   17    0.0000000   0.8035122
   18    0.0000000   0.0031987   0.3918309
   19   -0.0000000  -0.0000842  -0.0024942   0.4018400
   20   -0.0000173   0.0000016   0.0000003   0.0000044   0.4019304
   21    0.0392323   0.0000000   0.0000000   0.0000002  -0.0015936
   22   -0.0285396   0.0000000   0.0000000  -0.0000001   0.0000072
   23   -0.0284932  -0.0000000   0.0000000   0.0000006   0.0007002
   24    0.2599603  -0.0000000  -0.0000000   0.0000000  -0.0000012

            21          22          23          24

   21    0.3742126
   22    0.0010423   0.5563783
   23    0.0001671  -0.0312300   0.5280577
   24   -0.0018473  -0.0001172  -0.0034309   0.4082271

          TOTAL MULLIKEN AND LOWDIN ATOMIC POPULATIONS
       ATOM         MULL.POP.    CHARGE          LOW.POP.     CHARGE
    1 O             8.753391   -0.753391         8.501247   -0.501247
    2 C             5.922792    0.077208         6.214993   -0.214993
    3 C             6.028967   -0.028967         5.970214    0.029786
    4 H             0.816710    0.183290         0.949854    0.050146
    5 O             8.759582   -0.759582         8.454986   -0.454986
    6 C             5.923533    0.076467         5.947171    0.052829
    7 H             0.779635    0.220365         0.921300    0.078700
    8 O             8.717343   -0.717343         8.435353   -0.435353
    9 C             5.949328    0.050672         5.953265    0.046735
   10 H             0.781186    0.218814         0.920911    0.079089
   11 O             8.695803   -0.695803         8.425497   -0.425497
   12 C             5.995631    0.004369         5.947942    0.052058
   13 H             0.750497    0.249503         0.904457    0.095543
   14 O             8.702112   -0.702112         8.419261   -0.419261
   15 C             6.136408   -0.136408         6.007956   -0.007956
   16 O             8.685839   -0.685839         8.405247   -0.405247
   17 H             0.967408    0.032592         1.022845   -0.022845
   18 H             0.608130    0.391870         0.747741    0.252259
   19 H             0.613914    0.386086         0.753369    0.246631
   20 H             0.611673    0.388327         0.754643    0.245357
   21 H             0.593760    0.406240         0.744909    0.255091
   22 H             0.803523    0.196477         0.926525    0.073475
   23 H             0.776855    0.223145         0.916896    0.083104
   24 H             0.625980    0.374020         0.753420    0.246580

          -------------------------------
          BOND ORDER AND VALENCE ANALYSIS     BOND ORDER THRESHOLD=0.050
          -------------------------------

                   BOND                       BOND                       BOND
  ATOM PAIR DIST  ORDER      ATOM PAIR DIST  ORDER      ATOM PAIR DIST  ORDER
    1   2  1.237  1.444        1  18  1.930  0.134        2   3  1.510  0.840
    2  17  1.100  0.879        3   4  1.098  0.884        3   5  1.462  0.822
    3   6  1.544  0.828        5  18  1.009  0.711        5  19  1.902  0.093
    6   7  1.094  0.905        6   8  1.448  0.865        6   9  1.536  0.819
    8  19  1.009  0.749        9  10  1.094  0.905        9  11  1.461  0.850
    9  12  1.530  0.857       11  20  1.011  0.755       12  13  1.093  0.878
   12  14  1.474  0.844       12  15  1.533  0.885       14  20  1.860  0.079
   14  21  1.007  0.745       15  16  1.475  0.821       15  22  1.095  0.899
   15  23  1.097  0.885       16  21  1.835  0.075       16  24  0.992  0.817

                       TOTAL       BONDED        FREE
      ATOM            VALENCE     VALENCE     VALENCE
    1 O                 1.808       1.652       0.156
    2 C                 3.542       3.170       0.372
    3 C                 3.369       3.361       0.008
    4 H                 0.921       0.920       0.002
    5 O                 1.717       1.716       0.000
    6 C                 3.401       3.399       0.002
    7 H                 0.917       0.917       0.000
    8 O                 1.716       1.716       0.000
    9 C                 3.403       3.403       0.000
   10 H                 0.913       0.913       0.000
   11 O                 1.740       1.740       0.000
   12 C                 3.428       3.428       0.000
   13 H                 0.906       0.906       0.000
   14 O                 1.754       1.754       0.000
   15 C                 3.483       3.483       0.000
   16 O                 1.754       1.754       0.000
   17 H                 0.937       0.929       0.008
   18 H                 0.858       0.858       0.000
   19 H                 0.848       0.848       0.000
   20 H                 0.841       0.841       0.000
   21 H                 0.828       0.828       0.000
   22 H                 0.911       0.911       0.000
   23 H                 0.917       0.917       0.000
   24 H                 0.833       0.833       0.000

          -----------------------------------------
          ATOMIC SPIN DENSITY AT THE NUCLEUS (A.U.)
          -----------------------------------------
                            SPIN DENS    ALPHA DENS     BETA DENS
    1  O            8.0     0.1652473     116.86706     116.70182
    2  C            6.0     0.1383930      46.97814      46.83974
    3  C            6.0    -0.0504201      47.04867      47.09909
    4  H            1.0     0.0159059       0.19747       0.18156
    5  O            8.0    -0.0036281     116.70657     116.71020
    6  C            6.0     0.0473062      47.10787      47.06056
    7  H            1.0    -0.0008981       0.18662       0.18751
    8  O            8.0     0.0011159     116.74555     116.74444
    9  C            6.0     0.0028496      47.08507      47.08222
   10  H            1.0    -0.0001053       0.18683       0.18693
   11  O            8.0     0.0007895     116.76887     116.76808
   12  C            6.0     0.0008883      47.07922      47.07833
   13  H            1.0     0.0000477       0.18535       0.18530
   14  O            8.0     0.0000984     116.74628     116.74618
   15  C            6.0     0.0008107      47.00887      47.00806
   16  O            8.0     0.0007599     116.71465     116.71389
   17  H            1.0    -0.0196306       0.17683       0.19646
   18  H            1.0    -0.0002188       0.15156       0.15178
   19  H            1.0     0.0002485       0.15699       0.15674
   20  H            1.0    -0.0000035       0.15779       0.15779
   21  H            1.0    -0.0000114       0.15697       0.15698
   22  H            1.0    -0.0000206       0.18744       0.18746
   23  H            1.0    -0.0000173       0.18562       0.18564
   24  H            1.0     0.0000455       0.16742       0.16737

          ---------------------
          ELECTROSTATIC MOMENTS
          ---------------------

 POINT   1           X           Y           Z (BOHR)    CHARGE
                -0.040299   -0.020153   -0.051050       -1.00 (A.U.)
         DX          DY          DZ         /D/  (DEBYE)
    15.679862   -2.754497    1.101905   15.958055
 ...... END OF PROPERTY EVALUATION ......
 CPU     0: STEP CPU TIME=     0.08 TOTAL CPU TIME=          3.2 (      0.1 MIN)
 TOTAL WALL CLOCK TIME=          9.5 SECONDS, CPU UTILIZATION IS    34.10%
               580000  WORDS OF DYNAMIC MEMORY USED
 EXECUTION OF GAMESS TERMINATED NORMALLY Fri May 22 15:50:46 2020
 DDI: 263640 bytes (0.3 MB / 0 MWords) used by master data server.
Note: The following floating-point exceptions are signalling: IEEE_DENORMALNote: The following floating-point exceptions are signalling: IEEE_DENORMALNote: The following floating-point exceptions are signalling: IEEE_DENORMAL
Note: The following floating-point exceptions are signalling: IEEE_DENORMALNote: The following floating-point exceptions are signalling: IEEE_DENORMALNote: The following floating-point exceptions are signalling: IEEE_DENORMAL
Note: The following floating-point exceptions are signalling: IEEE_DENORMAL
 ----------------------------------------
 CPU timing information for all processes
 ========================================
 0: 3.86 + 0.171 = 3.258
 1: 3.246 + 0.24 = 3.271
 2: 2.927 + 0.63 = 2.991
 3: 2.899 + 0.27 = 2.927
 4: 2.937 + 0.20 = 2.958
 5: 2.954 + 0.32 = 2.986
 6: 3.261 + 0.34 = 3.295
 7: 2.993 + 0.16 = 3.09
 ----------------------------------------
Note: The following floating-point exceptions are signalling:




 IEEE_DENORMAL
 ddikick.x: exited gracefully.
unset echo
----- accounting info -----
Files used on the master node pietdev were:
-rwxr-xr-x 1 piet piet     1460 mei 22 15:50 /home/piet/scr/d-galactose_fukui_acid.F05*
-rw-r--r-- 1 piet piet 68812800 mei 22 15:50 /home/piet/scr/d-galactose_fukui_acid.F10
ls: No match.
ls: No match.
ls: No match.
vr 22 mei 2020 15:50:50 CEST
0.108u 0.046s 0:12.83 1.0%	0+0k 0+8io 0pf+0w
