----- GAMESS execution script 'rungms' -----
This job is running on host pietdev
under operating system Linux at ma 25 mei 2020 19:23:34 CEST
Available scratch disk space (Kbyte units) at beginning of the job is
Filesystem     1K-blocks     Used Available Use% Mounted on
/dev/sda2      244568380 31071536 201003788  14% /
GAMESS temporary binary files will be written to /home/piet/scr
GAMESS supplementary output files will be written to /home/piet/gamess/scr
Copying input file nerol_fukui_neu.inp to your run's scratch directory...
cp nerol_fukui_neu.inp /home/piet/scr/nerol_fukui_neu.F05
unset echo
 
Assuming a single but multicore node.
 
/home/piet/gamess/ddikick.x /home/piet/gamess/gamess.03.x nerol_fukui_neu -ddi 1 6 pietdev:cpus=6 -scr /home/piet/scr

 Distributed Data Interface kickoff program.
 Initiating 6 compute processes on 1 nodes to run the following command:
 /home/piet/gamess/gamess.03.x nerol_fukui_neu 

          ******************************************************
          *         GAMESS VERSION = 30 SEP 2019 (R2)          *
          *             FROM IOWA STATE UNIVERSITY             *
          * M.W.SCHMIDT, K.K.BALDRIDGE, J.A.BOATZ, S.T.ELBERT, *
          *   M.S.GORDON, J.H.JENSEN, S.KOSEKI, N.MATSUNAGA,   *
          *          K.A.NGUYEN, S.J.SU, T.L.WINDUS,           *
          *       TOGETHER WITH M.DUPUIS, J.A.MONTGOMERY       *
          *         J.COMPUT.CHEM.  14, 1347-1363(1993)        *
          **************** 64 BIT LINUX VERSION ****************

  SINCE 1993, STUDENTS AND POSTDOCS WORKING AT IOWA STATE UNIVERSITY
  AND ALSO IN THEIR VARIOUS JOBS AFTER LEAVING ISU HAVE MADE IMPORTANT
  CONTRIBUTIONS TO THE CODE:
     IVANA ADAMOVIC, CHRISTINE AIKENS, YURI ALEXEEV, POOJA ARORA,
     ANDREY ASADCHEV, ROB BELL, PRADIPTA BANDYOPADHYAY, JONATHAN BENTZ,
     COLLEEN BERTONI, BRETT BODE, KURT BRORSEN, CALEB CARLIN, GALINA CHABAN,
     WEI CHEN, CHEOL HO CHOI, PAUL DAY, ALBERT DEFUSCO, NUWAN DESILVA,
     TIM DUDLEY, DMITRI FEDOROV, ALEX FINDLATER, GRAHAM FLETCHER, 
     MARK FREITAG, KURT GLAESEMANN, EMILIE B GUIDEZ, ANASTASIA GUNINA, 
     DAN KEMP, SAROM SOK LEANG, GRANT MERRILL,
     NORIYUKI MINEZAWA, JONATHAN MULLIN,
     TAKESHI NAGATA, SEAN NEDD, HEATHER NETZLOFF, BOSILJKA NJEGIC, RYAN OLSON,
     MIKE PAK, BUU PHAM, DAVID POOLE,
     SPENCER PRUITT, LUKE ROSKOP, TOSAPORN SATTASATHUCHANA,
     JIM SHOEMAKER, LYUDMILA SLIPCHENKO,
     TONY SMITH, JIE SONG, TETSUYA TAKETSUGU, SIMON WEBB,
     JORGE LUIS GALVEZ VALLEJO, PENG XU, SOOHAENG YOO,
     FEDERICO ZAHARIEV

  ADDITIONAL CODE HAS BEEN PROVIDED BY COLLABORATORS IN OTHER GROUPS:
     IOWA STATE UNIVERSITY:
          JOE IVANIC, AARON WEST, LAIMUTIS BYTAUTAS, KLAUS RUEDENBERG
     UNIVERSITY OF TOKYO: KIMIHIKO HIRAO, TAKAHITO NAKAJIMA,
          TAKAO TSUNEDA, MUNEAKI KAMIYA, SUSUMU YANAGISAWA,
          KIYOSHI YAGI, MAHITO CHIBA, SEIKEN TOKURA, NAOAKI KAWAKAMI
     UNIVERSITY OF AARHUS: FRANK JENSEN
     UNIVERSITY OF IOWA: VISVALDAS KAIRYS, HUI LI
     NATIONAL INST. OF STANDARDS AND TECHNOLOGY: WALT STEVENS, DAVID GARMER
     UNIVERSITY OF PISA: BENEDETTA MENNUCCI, JACOPO TOMASI
     UNIVERSITY OF MEMPHIS: HENRY KURTZ, PRAKASHAN KORAMBATH
     UNIVERSITY OF ALBERTA: TOBY ZENG, MARIUSZ KLOBUKOWSKI
     UNIVERSITY OF NEW ENGLAND: MARK SPACKMAN
     MIE UNIVERSITY: HIROAKI UMEDA
     NAT. INST. OF ADVANCED INDUSTRIAL SCIENCE AND TECHNOLOGY: KAZUO KITAURA
     MICHIGAN STATE UNIVERSITY:
          KAROL KOWALSKI, MARTA WLOCH, JEFFREY GOUR, JESSE LUTZ,
          WEI LI, JUN SHEN, J. EMILIANO DEUSTUA, PIOTR PIECUCH
     UNIVERSITY OF MINNESOTA:
          ANDREW SAND, PRACHI SHARMA, YINAN SHU
     UNIVERSITY OF SILESIA: MONIKA MUSIAL, STANISLAW KUCHARSKI
     FACULTES UNIVERSITAIRES NOTRE-DAME DE LA PAIX:
          OLIVIER QUINET, BENOIT CHAMPAGNE
     UNIVERSITY OF CALIFORNIA - SANTA BARBARA: BERNARD KIRTMAN
     INSTITUTE FOR MOLECULAR SCIENCE:
          KAZUYA ISHIMURA, MICHIO KATOUDA, AND SHIGERU NAGASE
     UNIVERSITY OF NOTRE DAME: ANNA POMOGAEVA, DAN CHIPMAN
     KYUSHU UNIVERSITY:
          HARUYUKI NAKANO,
          FENG LONG GU, JACEK KORCHOWIEC, MARCIN MAKOWSKI, AND YURIKO AOKI,
          HIROTOSHI MORI AND EISAKU MIYOSHI
     PENNSYLVANIA STATE UNIVERSITY:
          TZVETELIN IORDANOV, CHET SWALINA, JONATHAN SKONE,
          SHARON HAMMES-SCHIFFER
     WASEDA UNIVERSITY:
          MASATO KOBAYASHI, TOMOKO AKAMA, TSUGUKI TOUMA,
          TAKESHI YOSHIKAWA, YASUHIRO IKABATA, JUNJI SEINO,
          YUYA NAKAJIMA, HIROMI NAKAI
     NANJING UNIVERSITY: SHUHUA LI
     UNIVERSITY OF NEBRASKA:
          PEIFENG SU, DEJUN SI, NANDUN THELLAMUREGE, YALI WANG, HUI LI
     UNIVERSITY OF ZURICH: ROBERTO PEVERATI, KIM BALDRIDGE
     N. COPERNICUS UNIVERSITY AND JACKSON STATE UNIVERSITY:
          MARIA BARYSZ
     UNIVERSITY OF COPENHAGEN: Jimmy Kromann, CASPER STEINMANN
     TOKYO INSTITUTE OF TECHNOLOGY: HIROYA NAKATA
     NAGOYA UNIVERSITY: YOSHIO NISHIMOTO, STEPHAN IRLE
     MOSCOW STATE UNIVERSITY: VLADIMIR MIRONOV
     A.N.NESMEYANOV INSTITUTE OF ORGANOELEMENT COMPOUNDS OF RUSSIAN ACADEMY OF SCIENCES:
          IGOR S. GERASIMOV
     JOHANNES KEPLER UNIVERSITY LINZ:
          CHRISTIAN FRIEDL


 PARALLEL VERSION RUNNING ON        6 PROCESSORS IN        1 NODES.

 EXECUTION OF GAMESS BEGUN Mon May 25 19:23:34 2020

            ECHO OF THE FIRST FEW INPUT CARDS -
 INPUT CARD> $BASIS GBASIS=N21 NGAUSS=3 $END                                                
 INPUT CARD> $CONTRL SCFTYP=RHF MAXIT=60 MULT=1 ICHARG=0 $END                               
 INPUT CARD> $SYSTEM MEMDDI=1000 MWORDS=30 $END                                             
 INPUT CARD> $SCF DIRSCF=.TRUE. $END                                                        
 INPUT CARD> $DATA                                                                          
 INPUT CARD>                                                                                
 INPUT CARD>C1                                                                              
 INPUT CARD>O 8.0000000 -2.52029 2.48217 0.42397                                            
 INPUT CARD>C 6.0000000 -2.45477 1.55258 -0.67516                                           
 INPUT CARD>C 6.0000000 -2.75856 0.18176 -0.15067                                           
 INPUT CARD>C 6.0000000 -1.94497 -0.88933 -0.12523                                          
 INPUT CARD>C 6.0000000 -0.51234 -0.89438 -0.62308                                          
 INPUT CARD>C 6.0000000 0.53133 -0.78642 0.52209                                            
 INPUT CARD>C 6.0000000 1.94372 -0.92199 0.01813                                            
 INPUT CARD>C 6.0000000 2.95467 -0.03832 0.09679                                            
 INPUT CARD>C 6.0000000 2.86642 1.32280 0.74618                                             
 INPUT CARD>C 6.0000000 4.31534 -0.36812 -0.47476                                           
 INPUT CARD>C 6.0000000 -2.43347 -2.20409 0.44011                                           
 INPUT CARD>H 1.0000000 -2.51047 3.38088 0.06861                                            
 INPUT CARD>H 1.0000000 -3.20532 1.82699 -1.43354                                           
 INPUT CARD>H 1.0000000 -1.46751 1.59759 -1.15009                                           
 INPUT CARD>H 1.0000000 -3.76117 0.07749 0.26379                                            
 INPUT CARD>H 1.0000000 -0.33076 -1.82766 -1.17497                                          
 INPUT CARD>H 1.0000000 -0.33187 -0.08102 -1.33143                                          
 INPUT CARD>H 1.0000000 0.37597 0.15839 1.05070                                             
 INPUT CARD>H 1.0000000 0.33781 -1.58446 1.25274                                            
 INPUT CARD>H 1.0000000 2.15368 -1.87207 -0.47863                                           
 INPUT CARD>H 1.0000000 1.87519 1.55348 1.14104                                             
 INPUT CARD>H 1.0000000 3.58534 1.39874 1.57313                                             
 INPUT CARD>H 1.0000000 3.13580 2.10918 0.02802                                             
 INPUT CARD>H 1.0000000 4.61440 0.36959 -1.23206                                            
 INPUT CARD>H 1.0000000 5.08767 -0.34297 0.30640                                            
 INPUT CARD>H 1.0000000 4.33353 -1.35866 -0.93897                                           
 INPUT CARD>H 1.0000000 -2.43390 -2.98463 -0.33293                                          
 INPUT CARD>H 1.0000000 -1.77792 -2.56016 1.24479                                           
 INPUT CARD>H 1.0000000 -3.44754 -2.12234 0.84213                                           
 INPUT CARD> $END                                                                           
   30000000 WORDS OF MEMORY AVAILABLE

     BASIS OPTIONS
     -------------
     GBASIS=N21          IGAUSS=       3      POLAR=NONE    
     NDFUNC=       0     NFFUNC=       0     DIFFSP=       F
     NPFUNC=       0      DIFFS=       F     BASNAM=        


     RUN TITLE
     ---------
                                                                                 

 THE POINT GROUP OF THE MOLECULE IS C1      
 THE ORDER OF THE PRINCIPAL AXIS IS     0

 ATOM      ATOMIC                      COORDINATES (BOHR)
           CHARGE         X                   Y                   Z
 O           8.0    -4.7626575096        4.6906211549        0.8011871270
 C           6.0    -4.6388426629        2.9339507740       -1.2758673979
 C           6.0    -5.2129225207        0.3434765955       -0.2847250146
 C           6.0    -3.6754603543       -1.6805900127       -0.2366503854
 C           6.0    -0.9681822125       -1.6901331289       -1.1774504684
 C           6.0     1.0040681091       -1.4861183113        0.9866070409
 C           6.0     3.6730981969       -1.7423084634        0.0342607322
 C           6.0     5.5835166841       -0.0724142998        0.1829065784
 C           6.0     5.4167483657        2.4997295366        1.4100757375
 C           6.0     8.1548101439       -0.6956459306       -0.8971663099
 C           6.0    -4.5985914993       -4.1651261523        0.8316873045
 H           1.0    -4.7441004004        6.3889367974        0.1296541000
 H           1.0    -6.0571765030        3.4525104823       -2.7089977924
 H           1.0    -2.7731917842        3.0190073407       -2.1733549612
 H           1.0    -7.1075806932        0.1464348668        0.4984908183
 H           1.0    -0.6250457677       -3.4537765987       -2.2203713438
 H           1.0    -0.6271433635       -0.1531055995       -2.5160378718
 H           1.0     0.7104802796        0.2993136992        1.9855350953
 H           1.0     0.6383683359       -2.9941952385        2.3673353339
 H           1.0     4.0698650652       -3.5376993298       -0.9044795495
 H           1.0     3.5435952749        2.9356515274        2.1562529410
 H           1.0     6.7753101728        2.6432353281        2.9727846431
 H           1.0     5.9258027523        3.9857722588        0.0529501222
 H           1.0     8.7199515977        0.6984238278       -2.3282558004
 H           1.0     9.6143022160       -0.6481193220        0.5790120426
 H           1.0     8.1891842596       -2.5674951105       -1.7743960107
 H           1.0    -4.5994040815       -5.6401328747       -0.6291464731
 H           1.0    -3.3597816281       -4.8380008847        2.3523120123
 H           1.0    -6.5149059317       -4.0106410528        1.5913949460

          INTERNUCLEAR DISTANCES (ANGS.)
          ------------------------------

                1 O          2 C          3 C          4 C          5 C     

   1 O       0.0000000    1.4410126 *  2.3830380 *  3.4640476    4.0656201  
   2 C       1.4410126 *  0.0000000    1.4988414 *  2.5544556 *  3.1246376  
   3 C       2.3830380 *  1.4988414 *  0.0000000    1.3452917 *  2.5351041 *
   4 C       3.4640476    2.5544556 *  1.3452917 *  0.0000000    1.5166769 *
   5 C       4.0656201    3.1246376    2.5351041 *  1.5166769 *  0.0000000  
   6 C       4.4727724    3.9775774    3.4947610    2.5615767 *  1.5531635 *
   7 C       5.6285342    5.0941989    4.8330316    3.8914687    2.5385317 *
   8 C       6.0361497    5.6911256    5.7228200    4.9779497    3.6429672  
   9 C       5.5194749    5.5125375    5.8091920    5.3667819    4.2669403  
  10 C       7.4604093    7.0401447    7.1026378    6.2916860    4.8585433  
  11 C       4.6870920    3.9187817    2.4793113 *  1.5122286 *  2.5566489 *
  12 H       0.9664662 *  1.9745828 *  3.2162091    4.3118508    4.7695709  
  13 H       2.0853945 *  1.1017107 *  2.1335725 *  3.2678053    3.9134181  
  14 H       2.0900939 *  1.0964792 *  2.1610703 *  2.7318633 *  2.7202948 *
  15 H       2.7107059 *  2.1827044 *  1.0898973 *  2.0939580 *  3.5051342  
  16 H       5.0916879    4.0233383    3.3137852    2.1419830 *  1.0993477 *
  17 H       3.8000729    2.7579057 *  2.7114704 *  2.1703399 *  1.0935646 *
  18 H       3.7657756    3.5965883    3.3569502    2.8048692 *  2.1677082 *
  19 H       5.0391542    4.6212900    3.8310051    2.7555565 *  2.1720189 *
  20 H       6.4513633    5.7449685    5.3344051    4.2296101    2.8433090 *
  21 H       4.5493845    4.6954379    5.0021765    4.7079064    3.8476535  
  22 H       6.3065923    6.4468134    6.6856259    6.2212555    5.1838903  
  23 H       5.6821873    5.6620437    6.2040598    5.9015906    4.7701393  
  24 H       7.6229411    7.1890728    7.4542084    6.7701763    5.3152554  
  25 H       8.1164213    7.8386843    7.8770286    7.0670248    5.7033410  
  26 H       7.9739845    7.3909357    7.3001405    6.3483861    4.8782987  
  27 H       5.5196253    4.5501463    3.1882046    2.1615906 *  2.8540716 *
  28 H       5.1623590    4.5890047    3.2291003    2.1671487 *  2.8045417 *
  29 H       4.7155236    4.0979017    2.6017729 *  2.1711323 *  3.5028738  

                6 C          7 C          8 C          9 C         10 C     

   1 O       4.4727724    5.6285342    6.0361497    5.5194749    7.4604093  
   2 C       3.9775774    5.0941989    5.6911256    5.5125375    7.0401447  
   3 C       3.4947610    4.8330316    5.7228200    5.8091920    7.1026378  
   4 C       2.5615767 *  3.8914687    4.9779497    5.3667819    6.2916860  
   5 C       1.5531635 *  2.5385317 *  3.6429672    4.2669403    4.8585433  
   6 C       0.0000000    1.5057226 *  2.5715969 *  3.1546269    3.9354055  
   7 C       1.5057226 *  0.0000000    1.3450204 *  2.5338734 *  2.4848127 *
   8 C       2.5715969 *  1.3450204 *  0.0000000    1.5106764 *  1.5122369 *
   9 C       3.1546269    2.5338734 *  1.5106764 *  0.0000000    2.5395421 *
  10 C       3.9354055    2.4848127 *  1.5122369 *  2.5395421 *  0.0000000  
  11 C       3.2873314    4.5805720    5.8172572    6.3734972    7.0536664  
  12 H       5.1792452    6.1933066    6.4466641    5.7970458    7.8065315  
  13 H       4.9615475    6.0147194    6.6156457    6.4708124    7.8929142  
  14 H       3.5320038    4.3988080    4.8771495    4.7385967    6.1450338  
  15 H       4.3861846    5.7969888    6.7189142    6.7608022    8.1224404  
  16 H       2.1696526 *  2.7234142 *  3.9513493    4.8824354    4.9200403  
  17 H       2.1629239 *  2.7761219 *  3.5837105    4.0640168    4.7342233  
  18 H       1.0937235 *  2.1659321 *  2.7565074 *  2.7660304 *  4.2570972  
  19 H       1.0991666 *  2.1312145 *  3.2518803    3.8862105    4.5038299  
  20 H       2.1936490 *  1.0924769 *  2.0821461 *  3.4950468    2.6333732 *
  21 H       2.7684275 *  2.7191129 *  2.1885069 *  1.0916339 *  3.5010981  
  22 H       3.8995623    3.2401742    2.1546382 *  1.0983893 *  2.8015260 *
  23 H       3.9257953    3.2571681    2.1562221 *  1.0985048 *  2.7894655 *
  24 H       4.5918256    3.2192679    2.1649334 *  2.8066843 *  1.0987066 *
  25 H       4.5829471    3.2097952    2.1648180 *  2.8110759 *  1.0987889 *
  26 H       4.1132566    2.6111134 *  2.1719465 *  3.4903252    1.0940710 *
  27 H       3.7889016    4.8519361    6.1564672    6.9146094    7.2400608  
  28 H       3.0001807    4.2472226    5.4840668    6.0741982    6.6999783  
  29 H       4.2093366    5.5843980    6.7739917    7.1933502    8.0668329  

               11 C         12 H         13 H         14 H         15 H     

   1 O       4.6870920    0.9664662 *  2.0853945 *  2.0900939 *  2.7107059 *
   2 C       3.9187817    1.9745828 *  1.1017107 *  1.0964792 *  2.1827044 *
   3 C       2.4793113 *  3.2162091    2.1335725 *  2.1610703 *  1.0898973 *
   4 C       1.5122286 *  4.3118508    3.2678053    2.7318633 *  2.0939580 *
   5 C       2.5566489 *  4.7695709    3.9134181    2.7202948 *  3.5051342  
   6 C       3.2873314    5.1792452    4.9615475    3.5320038    4.3861846  
   7 C       4.5805720    6.1933066    6.0147194    4.3988080    5.7969888  
   8 C       5.8172572    6.4466641    6.6156457    4.8771495    6.7189142  
   9 C       6.3734972    5.7970458    6.4708124    4.7385967    6.7608022  
  10 C       7.0536664    7.8065315    7.8929142    6.1450338    8.1224404  
  11 C       0.0000000    5.5978417    4.5117538    4.2325625    2.6456537 *
  12 H       5.5978417    0.0000000    2.2702082 *  2.3985659 *  3.5376166  
  13 H       4.5117538    2.2702082 *  0.0000000    1.7756553 *  2.5001297 *
  14 H       4.2325625    2.3985659 *  1.7756553 *  0.0000000    3.0936446  
  15 H       2.6456537 *  3.5376166    2.5001297 *  3.0936446    0.0000000  
  16 H       2.6779791 *  5.7815669    4.6568681    3.6090383    4.1793946  
  17 H       3.4731114    4.3233276    3.4507454    2.0347712 *  3.7854921  
  18 H       3.7211672    4.4362685    4.6670454    3.2114159    4.2120897  
  19 H       2.9536929 *  5.8454653    5.6042717    4.3770098    4.5322993  
  20 H       4.6900177    7.0460805    6.5813205    5.0598830    6.2719552  
  21 H       5.7597905    4.8706786    5.7021796    4.0527603    5.8920852  
  22 H       7.1056451    6.5841749    7.4388525    5.7434103    7.5783430  
  23 H       7.0562656    5.7878522    6.5134930    4.7791349    7.1938548  
  24 H       7.6871616    7.8436842    7.9569234    6.2051859    8.5131112  
  25 H       7.7491414    8.4649474    8.7469881    6.9898155    8.8589261  
  26 H       6.9576506    8.3856301    8.1992210    6.5142959    8.3086296  
  27 H       1.0985598 *  6.3786217    4.9958101    4.7537775    3.3903244  
  28 H       1.0972883 *  6.1004906    5.3346047    4.8081899    3.4427952  
  29 H       1.0939109 *  5.6357665    4.5644881    4.6612593    2.2961039 *

               16 H         17 H         18 H         19 H         20 H     

   1 O       5.0916879    3.8000729    3.7657756    5.0391542    6.4513633  
   2 C       4.0233383    2.7579057 *  3.5965883    4.6212900    5.7449685  
   3 C       3.3137852    2.7114704 *  3.3569502    3.8310051    5.3344051  
   4 C       2.1419830 *  2.1703399 *  2.8048692 *  2.7555565 *  4.2296101  
   5 C       1.0993477 *  1.0935646 *  2.1677082 *  2.1720189 *  2.8433090 *
   6 C       2.1696526 *  2.1629239 *  1.0937235 *  1.0991666 *  2.1936490 *
   7 C       2.7234142 *  2.7761219 *  2.1659321 *  2.1312145 *  1.0924769 *
   8 C       3.9513493    3.5837105    2.7565074 *  3.2518803    2.0821461 *
   9 C       4.8824354    4.0640168    2.7660304 *  3.8862105    3.4950468  
  10 C       4.9200403    4.7342233    4.2570972    4.5038299    2.6333732 *
  11 C       2.6779791 *  3.4731114    3.7211672    2.9536929 *  4.6900177  
  12 H       5.7815669    4.3233276    4.4362685    5.8454653    7.0460805  
  13 H       4.6568681    3.4507454    4.6670454    5.6042717    6.5813205  
  14 H       3.6090383    2.0347712 *  3.2114159    4.3770098    5.0598830  
  15 H       4.1793946    3.7854921    4.2120897    4.5322993    6.2719552  
  16 H       0.0000000    1.7536340 *  3.0655291    2.5298039 *  2.5805627 *
  17 H       1.7536340 *  0.0000000    2.4965772 *  3.0637783    3.1801080  
  18 H       3.0655291    2.4965772 *  0.0000000    1.7549366 *  3.1019141  
  19 H       2.5298039 *  3.0637783    1.7549366 *  0.0000000    2.5254199 *
  20 H       2.5805627 *  3.1801080    3.1019141    2.5254199 *  0.0000000  
  21 H       4.6542696    3.6953771    2.0499020 *  3.4960952    3.7993789  
  22 H       5.7704029    5.0961449    3.4801519    4.4213780    4.1179567  
  23 H       5.3817221    4.3208582    3.5310222    4.7928763    4.1317799  
  24 H       5.4116332    4.9677470    4.8187019    5.3180602    3.4128931  
  25 H       5.8101760    5.6676731    4.7964009    4.9998027    3.4003994  
  26 H       4.6937467    4.8530759    4.6821479    4.5629329    2.2863177 *
  27 H       2.5437784 *  3.7210863    4.4371586    3.4867179    4.7228073  
  28 H       2.9130854 *  3.8566962    3.4738203    2.3298856 *  4.3475422  
  29 H       3.7242243    4.3126268    4.4569563    3.8453596    5.7602697  

               21 H         22 H         23 H         24 H         25 H     

   1 O       4.5493845    6.3065923    5.6821873    7.6229411    8.1164213  
   2 C       4.6954379    6.4468134    5.6620437    7.1890728    7.8386843  
   3 C       5.0021765    6.6856259    6.2040598    7.4542084    7.8770286  
   4 C       4.7079064    6.2212555    5.9015906    6.7701763    7.0670248  
   5 C       3.8476535    5.1838903    4.7701393    5.3152554    5.7033410  
   6 C       2.7684275 *  3.8995623    3.9257953    4.5918256    4.5829471  
   7 C       2.7191129 *  3.2401742    3.2571681    3.2192679    3.2097952  
   8 C       2.1885069 *  2.1546382 *  2.1562221 *  2.1649334 *  2.1648180 *
   9 C       1.0916339 *  1.0983893 *  1.0985048 *  2.8066843 *  2.8110759 *
  10 C       3.5010981    2.8015260 *  2.7894655 *  1.0987066 *  1.0987889 *
  11 C       5.7597905    7.1056451    7.0562656    7.6871616    7.7491414  
  12 H       4.8706786    6.5841749    5.7878522    7.8436842    8.4649474  
  13 H       5.7021796    7.4388525    6.5134930    7.9569234    8.7469881  
  14 H       4.0527603    5.7434103    4.7791349    6.2051859    6.9898155  
  15 H       5.8920852    7.5783430    7.1938548    8.5131112    8.8589261  
  16 H       4.6542696    5.7704029    5.3817221    5.4116332    5.8101760  
  17 H       3.6953771    5.0961449    4.3208582    4.9677470    5.6676731  
  18 H       2.0499020 *  3.4801519    3.5310222    4.8187019    4.7964009  
  19 H       3.4960952    4.4213780    4.7928763    5.3180602    4.9998027  
  20 H       3.7993789    4.1179567    4.1317799    3.4128931    3.4003994  
  21 H       0.0000000    1.7706663 *  1.7710882 *  3.8126724    3.8227182  
  22 H       1.7706663 *  0.0000000    1.7590270 *  3.1602540    2.6258625 *
  23 H       1.7710882 *  1.7590270 *  0.0000000    2.6077256 *  3.1464792  
  24 H       3.8126724    3.1602540    2.6077256 *  0.0000000    1.7602799 *
  25 H       3.8227182    2.6258625 *  3.1464792    1.7602799 *  0.0000000  
  26 H       4.3417089    3.8044302    3.7941456    1.7752853 *  1.7751901 *
  27 H       6.4292524    7.6862375    7.5563710    7.8573379    7.9975700  
  28 H       5.5025458    6.6742231    6.8867924    7.4551979    7.2754954  
  29 H       6.4755274    7.8989725    7.8682210    8.6894681    8.7351574  

               26 H         27 H         28 H         29 H     

   1 O       7.9739845    5.5196253    5.1623590    4.7155236  
   2 C       7.3909357    4.5501463    4.5890047    4.0979017  
   3 C       7.3001405    3.1882046    3.2291003    2.6017729 *
   4 C       6.3483861    2.1615906 *  2.1671487 *  2.1711323 *
   5 C       4.8782987    2.8540716 *  2.8045417 *  3.5028738  
   6 C       4.1132566    3.7889016    3.0001807    4.2093366  
   7 C       2.6111134 *  4.8519361    4.2472226    5.5843980  
   8 C       2.1719465 *  6.1564672    5.4840668    6.7739917  
   9 C       3.4903252    6.9146094    6.0741982    7.1933502  
  10 C       1.0940710 *  7.2400608    6.6999783    8.0668329  
  11 C       6.9576506    1.0985598 *  1.0972883 *  1.0939109 *
  12 H       8.3856301    6.3786217    6.1004906    5.6357665  
  13 H       8.1992210    4.9958101    5.3346047    4.5644881  
  14 H       6.5142959    4.7537775    4.8081899    4.6612593  
  15 H       8.3086296    3.3903244    3.4427952    2.2961039 *
  16 H       4.6937467    2.5437784 *  2.9130854 *  3.7242243  
  17 H       4.8530759    3.7210863    3.8566962    4.3126268  
  18 H       4.6821479    4.4371586    3.4738203    4.4569563  
  19 H       4.5629329    3.4867179    2.3298856 *  3.8453596  
  20 H       2.2863177 *  4.7228073    4.3475422    5.7602697  
  21 H       4.3417089    6.4292524    5.5025458    6.4755274  
  22 H       3.8044302    7.6862375    6.6742231    7.8989725  
  23 H       3.7941456    7.5563710    6.8867924    7.8682210  
  24 H       1.7752853 *  7.8573379    7.4551979    8.6894681  
  25 H       1.7751901 *  7.9975700    7.2754954    8.7351574  
  26 H       0.0000000    6.9863561    6.6001690    8.0187639  
  27 H       6.9863561    0.0000000    1.7605922 *  1.7753242 *
  28 H       6.6001690    1.7605922 *  0.0000000    1.7724143 *
  29 H       8.0187639    1.7753242 *  1.7724143 *  0.0000000  

  * ... LESS THAN  3.000


     ATOMIC BASIS SET
     ----------------
 THE CONTRACTED PRIMITIVE FUNCTIONS HAVE BEEN UNNORMALIZED
 THE CONTRACTED BASIS FUNCTIONS ARE NOW NORMALIZED TO UNITY

  SHELL TYPE  PRIMITIVE        EXPONENT          CONTRACTION COEFFICIENT(S)

 O         

      1   S       1           322.0370000    0.059239393389
      1   S       2            48.4308000    0.351499960776
      1   S       3            10.4206000    0.707657921031

      2   L       4             7.4029400   -0.404453583190    0.244586106967
      2   L       5             1.5762000    1.221561761397    0.853955373466

      3   L       6             0.3736840    1.000000000000    1.000000000000

 C         

      4   S       7           172.2560000    0.061766907377
      4   S       8            25.9109000    0.358794042852
      4   S       9             5.5333500    0.700713083689

      5   L      10             3.6649800   -0.395895162119    0.236459946619
      5   L      11             0.7705450    1.215834355681    0.860618805716

      6   L      12             0.1958570    1.000000000000    1.000000000000

 C         

      7   S      13           172.2560000    0.061766907377
      7   S      14            25.9109000    0.358794042852
      7   S      15             5.5333500    0.700713083689

      8   L      16             3.6649800   -0.395895162119    0.236459946619
      8   L      17             0.7705450    1.215834355681    0.860618805716

      9   L      18             0.1958570    1.000000000000    1.000000000000

 C         

     10   S      19           172.2560000    0.061766907377
     10   S      20            25.9109000    0.358794042852
     10   S      21             5.5333500    0.700713083689

     11   L      22             3.6649800   -0.395895162119    0.236459946619
     11   L      23             0.7705450    1.215834355681    0.860618805716

     12   L      24             0.1958570    1.000000000000    1.000000000000

 C         

     13   S      25           172.2560000    0.061766907377
     13   S      26            25.9109000    0.358794042852
     13   S      27             5.5333500    0.700713083689

     14   L      28             3.6649800   -0.395895162119    0.236459946619
     14   L      29             0.7705450    1.215834355681    0.860618805716

     15   L      30             0.1958570    1.000000000000    1.000000000000

 C         

     16   S      31           172.2560000    0.061766907377
     16   S      32            25.9109000    0.358794042852
     16   S      33             5.5333500    0.700713083689

     17   L      34             3.6649800   -0.395895162119    0.236459946619
     17   L      35             0.7705450    1.215834355681    0.860618805716

     18   L      36             0.1958570    1.000000000000    1.000000000000

 C         

     19   S      37           172.2560000    0.061766907377
     19   S      38            25.9109000    0.358794042852
     19   S      39             5.5333500    0.700713083689

     20   L      40             3.6649800   -0.395895162119    0.236459946619
     20   L      41             0.7705450    1.215834355681    0.860618805716

     21   L      42             0.1958570    1.000000000000    1.000000000000

 C         

     22   S      43           172.2560000    0.061766907377
     22   S      44            25.9109000    0.358794042852
     22   S      45             5.5333500    0.700713083689

     23   L      46             3.6649800   -0.395895162119    0.236459946619
     23   L      47             0.7705450    1.215834355681    0.860618805716

     24   L      48             0.1958570    1.000000000000    1.000000000000

 C         

     25   S      49           172.2560000    0.061766907377
     25   S      50            25.9109000    0.358794042852
     25   S      51             5.5333500    0.700713083689

     26   L      52             3.6649800   -0.395895162119    0.236459946619
     26   L      53             0.7705450    1.215834355681    0.860618805716

     27   L      54             0.1958570    1.000000000000    1.000000000000

 C         

     28   S      55           172.2560000    0.061766907377
     28   S      56            25.9109000    0.358794042852
     28   S      57             5.5333500    0.700713083689

     29   L      58             3.6649800   -0.395895162119    0.236459946619
     29   L      59             0.7705450    1.215834355681    0.860618805716

     30   L      60             0.1958570    1.000000000000    1.000000000000

 C         

     31   S      61           172.2560000    0.061766907377
     31   S      62            25.9109000    0.358794042852
     31   S      63             5.5333500    0.700713083689

     32   L      64             3.6649800   -0.395895162119    0.236459946619
     32   L      65             0.7705450    1.215834355681    0.860618805716

     33   L      66             0.1958570    1.000000000000    1.000000000000

 H         

     34   S      67             5.4471780    0.156284978695
     34   S      68             0.8245472    0.904690876670

     35   S      69             0.1831916    1.000000000000

 H         

     36   S      70             5.4471780    0.156284978695
     36   S      71             0.8245472    0.904690876670

     37   S      72             0.1831916    1.000000000000

 H         

     38   S      73             5.4471780    0.156284978695
     38   S      74             0.8245472    0.904690876670

     39   S      75             0.1831916    1.000000000000

 H         

     40   S      76             5.4471780    0.156284978695
     40   S      77             0.8245472    0.904690876670

     41   S      78             0.1831916    1.000000000000

 H         

     42   S      79             5.4471780    0.156284978695
     42   S      80             0.8245472    0.904690876670

     43   S      81             0.1831916    1.000000000000

 H         

     44   S      82             5.4471780    0.156284978695
     44   S      83             0.8245472    0.904690876670

     45   S      84             0.1831916    1.000000000000

 H         

     46   S      85             5.4471780    0.156284978695
     46   S      86             0.8245472    0.904690876670

     47   S      87             0.1831916    1.000000000000

 H         

     48   S      88             5.4471780    0.156284978695
     48   S      89             0.8245472    0.904690876670

     49   S      90             0.1831916    1.000000000000

 H         

     50   S      91             5.4471780    0.156284978695
     50   S      92             0.8245472    0.904690876670

     51   S      93             0.1831916    1.000000000000

 H         

     52   S      94             5.4471780    0.156284978695
     52   S      95             0.8245472    0.904690876670

     53   S      96             0.1831916    1.000000000000

 H         

     54   S      97             5.4471780    0.156284978695
     54   S      98             0.8245472    0.904690876670

     55   S      99             0.1831916    1.000000000000

 H         

     56   S     100             5.4471780    0.156284978695
     56   S     101             0.8245472    0.904690876670

     57   S     102             0.1831916    1.000000000000

 H         

     58   S     103             5.4471780    0.156284978695
     58   S     104             0.8245472    0.904690876670

     59   S     105             0.1831916    1.000000000000

 H         

     60   S     106             5.4471780    0.156284978695
     60   S     107             0.8245472    0.904690876670

     61   S     108             0.1831916    1.000000000000

 H         

     62   S     109             5.4471780    0.156284978695
     62   S     110             0.8245472    0.904690876670

     63   S     111             0.1831916    1.000000000000

 H         

     64   S     112             5.4471780    0.156284978695
     64   S     113             0.8245472    0.904690876670

     65   S     114             0.1831916    1.000000000000

 H         

     66   S     115             5.4471780    0.156284978695
     66   S     116             0.8245472    0.904690876670

     67   S     117             0.1831916    1.000000000000

 H         

     68   S     118             5.4471780    0.156284978695
     68   S     119             0.8245472    0.904690876670

     69   S     120             0.1831916    1.000000000000

 TOTAL NUMBER OF BASIS SET SHELLS             =   69
 NUMBER OF CARTESIAN GAUSSIAN BASIS FUNCTIONS =  135
 NUMBER OF ELECTRONS                          =   86
 CHARGE OF MOLECULE                           =    0
 SPIN MULTIPLICITY                            =    1
 NUMBER OF OCCUPIED ORBITALS (ALPHA)          =   43
 NUMBER OF OCCUPIED ORBITALS (BETA )          =   43
 TOTAL NUMBER OF ATOMS                        =   29
 THE NUCLEAR REPULSION ENERGY IS      598.1739947073

     $CONTRL OPTIONS
     ---------------
 SCFTYP=RHF          RUNTYP=ENERGY       EXETYP=RUN     
 MPLEVL=       0     CITYP =NONE         CCTYP =NONE         VBTYP =NONE    
 DFTTYP=NONE         TDDFT =NONE    
 MULT  =       1     ICHARG=       0     NZVAR =       0     COORD =UNIQUE  
 PP    =NONE         RELWFN=NONE         LOCAL =NONE         NUMGRD=       F
 ISPHER=      -1     NOSYM =       0     MAXIT =      60     UNITS =ANGS    
 PLTORB=       F     MOLPLT=       F     AIMPAC=       F     FRIEND=        
 NPRINT=       7     IREST =       0     GEOM  =INPUT   
 NORMF =       0     NORMP =       0     ITOL  =      20     ICUT  =       9
 INTTYP=BEST         GRDTYP=BEST         QMTTOL= 1.0E-06

     $SYSTEM OPTIONS
     ---------------
  REPLICATED MEMORY=    30000000 WORDS (ON EVERY NODE).
 DISTRIBUTED MEMDDI=        1000 MILLION WORDS IN AGGREGATE,
 MEMDDI DISTRIBUTED OVER   6 PROCESSORS IS   166666666 WORDS/PROCESSOR.
 TOTAL MEMORY REQUESTED ON EACH PROCESSOR=   196666666 WORDS.
 TIMLIM=      525600.00 MINUTES, OR     365.0 DAYS.
 PARALL= T  BALTYP=  DLB     KDIAG=    0  COREFL= F
 MXSEQ2=     300 MXSEQ3=     150  mem10=         0

          ----------------
          PROPERTIES INPUT
          ----------------

     MOMENTS            FIELD           POTENTIAL          DENSITY
 IEMOM =       1   IEFLD =       0   IEPOT =       0   IEDEN =       0
 WHERE =COMASS     WHERE =NUCLEI     WHERE =NUCLEI     WHERE =NUCLEI  
 OUTPUT=BOTH       OUTPUT=BOTH       OUTPUT=BOTH       OUTPUT=BOTH    
 IEMINT=       0   IEFINT=       0                     IEDINT=       0
                                                       MORB  =       0
          EXTRAPOLATION IN EFFECT
          SOSCF IN EFFECT
 ORBITAL PRINTING OPTION: NPREO=     1   135     2     1

     -------------------------------
     INTEGRAL TRANSFORMATION OPTIONS
     -------------------------------
     NWORD  =            0
     CUTOFF = 1.0E-09     MPTRAN =       0
     DIRTRF =       T     AOINTS =DUP     

          ----------------------
          INTEGRAL INPUT OPTIONS
          ----------------------
 NOPK  =       1 NORDER=       0 SCHWRZ=       T

     ------------------------------------------
     THE POINT GROUP IS C1 , NAXIS= 0, ORDER= 1
     ------------------------------------------

     DIMENSIONS OF THE SYMMETRY SUBSPACES ARE
 A   =  135

 ..... DONE SETTING UP THE RUN .....
 CPU     0: STEP CPU TIME=     0.03 TOTAL CPU TIME=          0.0 (      0.0 MIN)
 TOTAL WALL CLOCK TIME=          0.1 SECONDS, CPU UTILIZATION IS    60.00%

          ********************
          1 ELECTRON INTEGRALS
          ********************
 ...... END OF ONE-ELECTRON INTEGRALS ......
 CPU     0: STEP CPU TIME=     0.02 TOTAL CPU TIME=          0.1 (      0.0 MIN)
 TOTAL WALL CLOCK TIME=          0.1 SECONDS, CPU UTILIZATION IS    71.43%

          -------------
          GUESS OPTIONS
          -------------
          GUESS =HUCKEL            NORB  =       0          NORDER=       0
          MIX   =       F          PRTMO =       F          PUNMO =       F
          TOLZ  = 1.0E-08          TOLE  = 1.0E-05
          SYMDEN=       F          PURIFY=       F

 INITIAL GUESS ORBITALS GENERATED BY HUCKEL   ROUTINE.
 HUCKEL GUESS REQUIRES    174540 WORDS.

 SYMMETRIES FOR INITIAL GUESS ORBITALS FOLLOW.   BOTH SET(S).
    43 ORBITALS ARE OCCUPIED (   11 CORE ORBITALS).
    12=A       13=A       14=A       15=A       16=A       17=A       18=A   
    19=A       20=A       21=A       22=A       23=A       24=A       25=A   
    26=A       27=A       28=A       29=A       30=A       31=A       32=A   
    33=A       34=A       35=A       36=A       37=A       38=A       39=A   
    40=A       41=A       42=A       43=A       44=A       45=A       46=A   
    47=A       48=A       49=A       50=A       51=A       52=A       53=A   
 ...... END OF INITIAL ORBITAL SELECTION ......
 CPU     0: STEP CPU TIME=     0.04 TOTAL CPU TIME=          0.1 (      0.0 MIN)
 TOTAL WALL CLOCK TIME=          0.1 SECONDS, CPU UTILIZATION IS    75.00%

                    ----------------------
                    AO INTEGRAL TECHNOLOGY
                    ----------------------
     S,P,L SHELL ROTATED AXIS INTEGRALS, REPROGRAMMED BY
        KAZUYA ISHIMURA (IMS) AND JOSE SIERRA (SYNSTAR).
     S,P,D,L SHELL ROTATED AXIS INTEGRALS PROGRAMMED BY
        KAZUYA ISHIMURA (INSTITUTE FOR MOLECULAR SCIENCE).
     S,P,D,F,G SHELL TO TOTAL QUARTET ANGULAR MOMENTUM SUM 5,
        ERIC PROGRAM BY GRAHAM FLETCHER (ELORET AND NASA ADVANCED
        SUPERCOMPUTING DIVISION, AMES RESEARCH CENTER).
     S,P,D,F,G,L SHELL GENERAL RYS QUADRATURE PROGRAMMED BY
        MICHEL DUPUIS (PACIFIC NORTHWEST NATIONAL LABORATORY).

          --------------------
          2 ELECTRON INTEGRALS
          --------------------

 DIRECT SCF METHOD SKIPS INTEGRAL STORAGE ON DISK.
 DIRECT TRANSFORMATION SKIPS AO INTEGRAL STORAGE ON DISK.
  ...... END OF TWO-ELECTRON INTEGRALS .....
 CPU     0: STEP CPU TIME=     0.02 TOTAL CPU TIME=          0.1 (      0.0 MIN)
 TOTAL WALL CLOCK TIME=          0.1 SECONDS, CPU UTILIZATION IS    78.57%

          --------------------------
                 RHF SCF CALCULATION
          --------------------------

     NUCLEAR ENERGY =       598.1739947073
     MAXIT =   60     NPUNCH=    2
     EXTRAP=T  DAMP=F  SHIFT=F  RSTRCT=F  DIIS=F  DEM=F  SOSCF=T
     DENSITY MATRIX CONV=  2.00E-05
     SOSCF WILL OPTIMIZE    3956 ORBITAL ROTATIONS, SOGTOL=   0.250
     MEMORY REQUIRED FOR RHF ITERS=    194475 WORDS.

 DIRECT SCF CALCULATION, SCHWRZ=T   FDIFF=T,  DIRTHR=  0.00E+00 NITDIR=10
 SCHWARZ INEQUALITY OVERHEAD:      8173 INTEGRALS, T=        0.00

                                                                                   NONZERO     BLOCKS
 ITER EX DEM     TOTAL ENERGY        E CHANGE  DENSITY CHANGE     ORB. GRAD      INTEGRALS    SKIPPED
   1  0  0     -460.4359221699  -460.4359221699   0.602500538   0.000000000       18779840    1826606
          ---------------START SECOND ORDER SCF---------------
   2  1  0     -461.3507179394    -0.9147957695   0.145841463   0.034220784       18694540    1861934
   3  2  0     -461.3916671838    -0.0409492445   0.071837666   0.007969364       18332377    1934255
   4  3  0     -461.3970322557    -0.0053650718   0.004454886   0.004323810       17959604    1986962
   5  4  0     -461.3972714166    -0.0002391609   0.002713240   0.000701746       16844306    2088737
   6  5  0     -461.3973088980    -0.0000374815   0.001396860   0.000394980       15951918    2147945
   7  6  0     -461.3973116567    -0.0000027587   0.000482541   0.000083137       14996171    2214111
   8  7  0     -461.3973119396    -0.0000002829   0.000106945   0.000024230       13847804    2286270
   9  8  0     -461.3973119666    -0.0000000270   0.000027276   0.000011357       12960786    2339695
  10  9  0     -461.3973119693    -0.0000000026   0.000006660   0.000002644       12019821    2396184
  11 10  0     -461.3973119689     0.0000000003   0.000001756   0.000001016       10683495    2470803

          -----------------
          DENSITY CONVERGED
          -----------------
     TIME TO FORM FOCK OPERATORS=       3.1 SECONDS (       0.3 SEC/ITER)
     FOCK TIME ON FIRST ITERATION=       0.4, LAST ITERATION=       0.2
     TIME TO SOLVE SCF EQUATIONS=       0.1 SECONDS (       0.0 SEC/ITER)

 FINAL RHF ENERGY IS     -461.3973119689 AFTER  11 ITERATIONS

          ------------
          EIGENVECTORS
          ------------

                      1          2          3          4          5
                  -20.4319   -11.2196   -11.1847   -11.1805   -11.1682
                     A          A          A          A          A   
    1  O  1  S    0.983450  -0.000193   0.000000  -0.000001   0.000028
    2  O  1  S    0.097674  -0.000580   0.000018  -0.000006   0.000235
    3  O  1  X    0.000154   0.000060  -0.000005   0.000000   0.000045
    4  O  1  Y    0.000364  -0.000147  -0.000034  -0.000001  -0.000033
    5  O  1  Z   -0.003793  -0.000599  -0.000025   0.000004  -0.000029
    6  O  1  S   -0.044060   0.008463  -0.000110   0.000027  -0.001041
    7  O  1  X   -0.000288  -0.000095   0.000176  -0.000000  -0.000196
    8  O  1  Y    0.001365  -0.003089   0.000007   0.000000   0.000398
    9  O  1  Z    0.009371  -0.001385   0.000168  -0.000021   0.000376
   10  C  2  S   -0.000855   0.987706   0.002360  -0.000053   0.001055
   11  C  2  S   -0.003543   0.101702   0.000121  -0.000001  -0.000674
   12  C  2  X    0.000123  -0.000127   0.000109   0.000001  -0.000314
   13  C  2  Y    0.001498   0.000033   0.000623  -0.000012  -0.000112
   14  C  2  Z    0.001162  -0.000272  -0.000223   0.000011  -0.000058
   15  C  2  S    0.021060  -0.084436  -0.001313   0.000116   0.006111
   16  C  2  X   -0.002137   0.001779  -0.003035   0.000024   0.000485
   17  C  2  Y    0.003531   0.009744   0.000950  -0.000119  -0.001663
   18  C  2  Z    0.008302  -0.000823   0.000808  -0.000031   0.001588
   19  C  3  S    0.000099  -0.003477  -0.003798   0.000354  -0.017505
   20  C  3  S    0.000067  -0.002899  -0.004843   0.000107  -0.002380
   21  C  3  X   -0.000079  -0.000500  -0.001606   0.000013  -0.000706
   22  C  3  Y   -0.000458  -0.000723   0.001485   0.000007   0.000427
   23  C  3  Z   -0.000009   0.000347   0.000108  -0.000016   0.000061
   24  C  3  S   -0.003269   0.021494   0.030978  -0.000579   0.004131
   25  C  3  X    0.000016   0.005343   0.012828  -0.000361  -0.001472
   26  C  3  Y   -0.006137   0.018371  -0.013595   0.000088  -0.008126
   27  C  3  Z    0.000078  -0.007378  -0.000213   0.000187   0.002622
   28  C  4  S    0.000005  -0.002266   0.987396  -0.001078   0.000966
   29  C  4  S    0.000043  -0.000401   0.100521  -0.000117  -0.000859
   30  C  4  X   -0.000076   0.000351   0.000260   0.000059  -0.000456
   31  C  4  Y   -0.000057  -0.000771  -0.000014  -0.000079  -0.000211
   32  C  4  Z    0.000148   0.000090   0.000302   0.000032   0.000399
   33  C  4  S   -0.001915  -0.000468  -0.087888   0.000757   0.013458
   34  C  4  X    0.002923  -0.005692   0.004495   0.000095   0.022564
   35  C  4  Y    0.000036   0.000730  -0.004906   0.000483   0.002675
   36  C  4  Z   -0.000755   0.001924  -0.001078  -0.000343  -0.007703
   37  C  5  S    0.000064  -0.001418  -0.002036   0.001263   0.986221
   38  C  5  S    0.000393  -0.000940  -0.001042   0.000250   0.105369
   39  C  5  X    0.000112  -0.000097   0.000097  -0.000053  -0.000084
   40  C  5  Y    0.000106  -0.000204  -0.000108  -0.000001  -0.000278
   41  C  5  Z    0.000042   0.000196   0.000295  -0.000058   0.000312
   42  C  5  S   -0.002604   0.006131   0.011792  -0.001220  -0.100064
   43  C  5  X    0.000369  -0.001674  -0.010144   0.000406   0.003749
   44  C  5  Y   -0.000580   0.000724   0.001087   0.000583   0.000364
   45  C  5  Z   -0.000516  -0.000294  -0.001209  -0.000204  -0.008164
   46  C  6  S   -0.000035   0.000114  -0.009949  -0.005056  -0.040957
   47  C  6  S   -0.000198   0.000136  -0.002350  -0.000599  -0.006880
   48  C  6  X   -0.000051   0.000035   0.001536  -0.000525  -0.000587
   49  C  6  Y   -0.000007   0.000080  -0.000077   0.000070   0.000141
   50  C  6  Z   -0.000047   0.000046  -0.000137   0.000197  -0.000212
   51  C  6  S    0.001286  -0.001055   0.000725  -0.000368   0.025883
   52  C  6  X   -0.000034  -0.000251  -0.009732  -0.000779  -0.009907
   53  C  6  Y    0.000183  -0.000479   0.000036  -0.003147  -0.002247
   54  C  6  Z   -0.000213   0.000234   0.001166  -0.001180  -0.009974
   55  C  7  S    0.000014  -0.000415  -0.005628  -0.004436  -0.026138
   56  C  7  S    0.000079  -0.000272  -0.001872  -0.004870  -0.003586
   57  C  7  X   -0.000001   0.000059   0.000410  -0.001467   0.000628
   58  C  7  Y    0.000022  -0.000087  -0.000138  -0.001616   0.000030
   59  C  7  Z   -0.000008   0.000034  -0.000105  -0.000294   0.000057
   60  C  7  S   -0.000489   0.001109   0.007318   0.031835   0.003868
   61  C  7  X    0.000256  -0.000440  -0.006237   0.013574   0.002253
   62  C  7  Y   -0.000227   0.000744   0.001738   0.013515   0.001036
   63  C  7  Z   -0.000070   0.000084   0.002505   0.001950   0.000660
   64  C  8  S   -0.000003   0.000059   0.001024   0.987363  -0.001524
   65  C  8  S   -0.000016   0.000052   0.000241   0.099810   0.000139
   66  C  8  X    0.000008  -0.000015  -0.000080   0.000021  -0.000165
   67  C  8  Y   -0.000011   0.000024   0.000234  -0.000228   0.000052
   68  C  8  Z   -0.000010   0.000010   0.000094  -0.000058  -0.000153
   69  C  8  S    0.000130  -0.000508  -0.000642  -0.087536  -0.002640
   70  C  8  X   -0.000221   0.000596   0.001772   0.005617   0.001740
   71  C  8  Y    0.000079  -0.000120  -0.002776   0.006028   0.001258
   72  C  8  Z    0.000072  -0.000101  -0.001629   0.000715   0.000423
   73  C  9  S    0.000004  -0.000068  -0.000527  -0.005204  -0.000560
   74  C  9  S    0.000019  -0.000058  -0.000307  -0.002160  -0.000137
   75  C  9  X   -0.000002   0.000011   0.000016   0.000363  -0.000017
   76  C  9  Y    0.000016  -0.000024  -0.000064   0.000328   0.000020
   77  C  9  Z    0.000000  -0.000010  -0.000054   0.000056  -0.000137
   78  C  9  S   -0.000173   0.000377   0.002289   0.014744   0.000226
   79  C  9  X    0.000072  -0.000181  -0.000176  -0.002467  -0.000461
   80  C  9  Y    0.000007  -0.000060  -0.001266  -0.009342  -0.000078
   81  C  9  Z    0.000018  -0.000025  -0.000491  -0.003549   0.000573
   82  C 10  S   -0.000001  -0.000009  -0.000376  -0.005527   0.001152
   83  C 10  S   -0.000003   0.000004  -0.000052  -0.002287   0.000190
   84  C 10  X   -0.000010   0.000017   0.000170   0.000282  -0.000000
   85  C 10  Y   -0.000002   0.000005   0.000036   0.000275  -0.000038
   86  C 10  Z    0.000005  -0.000010  -0.000030   0.000045   0.000074
   87  C 10  S    0.000116  -0.000235  -0.001320   0.016126  -0.000457
   88  C 10  X   -0.000030   0.000064   0.000316  -0.010205  -0.000121
   89  C 10  Y    0.000024  -0.000068  -0.000035  -0.000730  -0.000058
   90  C 10  Z    0.000014  -0.000055  -0.000179   0.002849  -0.000475
   91  C 11  S   -0.000003  -0.001409  -0.005566  -0.000153  -0.034145
   92  C 11  S    0.000041  -0.000884  -0.002548  -0.000067  -0.005754
   93  C 11  X   -0.000016   0.000027   0.000179   0.000037  -0.000939
   94  C 11  Y    0.000132  -0.000383  -0.000252   0.000021  -0.000003
   95  C 11  Z   -0.000113   0.000122  -0.000060  -0.000016   0.000461
   96  C 11  S    0.000927   0.000816   0.017457   0.000447   0.011468
   97  C 11  X   -0.000130   0.000453   0.001441   0.000021   0.001479
   98  C 11  Y    0.000331   0.001046   0.010513   0.000027   0.003073
   99  C 11  Z    0.000206  -0.000603  -0.002892   0.000051  -0.002373
  100  H 12  S    0.003108  -0.000182   0.000044  -0.000007   0.000046
  101  H 12  S    0.005454   0.002070  -0.000196   0.000014   0.000005
  102  H 13  S   -0.001567   0.000599  -0.000116  -0.000004  -0.000198
  103  H 13  S   -0.001657   0.014838  -0.000140  -0.000002   0.000493
  104  H 14  S   -0.001269   0.000066   0.000296  -0.000022  -0.000203
  105  H 14  S   -0.000845   0.016049   0.001625   0.000021  -0.001873
  106  H 15  S    0.000246  -0.000762  -0.000818  -0.000016  -0.000622
  107  H 15  S   -0.000223   0.003003   0.001698  -0.000103  -0.000772
  108  H 16  S    0.000104  -0.000327  -0.000792  -0.000079   0.001469
  109  H 16  S   -0.000240  -0.000073   0.000444   0.000811   0.014834
  110  H 17  S   -0.000028  -0.000049  -0.000909   0.000005   0.001032
  111  H 17  S    0.000922  -0.002979  -0.000985  -0.000241   0.014700
  112  H 18  S    0.000023   0.000061  -0.000775   0.000364  -0.001347
  113  H 18  S   -0.000413   0.000314  -0.000553   0.001405   0.000790
  114  H 19  S   -0.000051  -0.000007  -0.000548  -0.000127  -0.001496
  115  H 19  S   -0.000032  -0.000061  -0.001509  -0.000235  -0.000466
  116  H 20  S   -0.000006   0.000009  -0.000083  -0.000844   0.000222
  117  H 20  S   -0.000051   0.000231   0.001030   0.001388  -0.001309
  118  H 21  S   -0.000004   0.000008  -0.000207  -0.001055   0.000022
  119  H 21  S    0.000127  -0.000232   0.000232  -0.001243  -0.000549
  120  H 22  S    0.000005  -0.000007  -0.000072  -0.001050   0.000003
  121  H 22  S   -0.000015   0.000019   0.000010   0.002299  -0.000263
  122  H 23  S    0.000011  -0.000017  -0.000084  -0.001009   0.000014
  123  H 23  S    0.000011  -0.000005   0.000094   0.002169   0.000300
  124  H 24  S   -0.000004   0.000005   0.000046  -0.001072  -0.000012
  125  H 24  S   -0.000013   0.000029   0.000028   0.002146  -0.000111
  126  H 25  S   -0.000005   0.000014   0.000064  -0.001099   0.000069
  127  H 25  S    0.000000   0.000001   0.000045   0.002191   0.000233
  128  H 26  S    0.000002  -0.000001  -0.000030  -0.001003  -0.000058
  129  H 26  S   -0.000010  -0.000013   0.000253  -0.001757   0.000099
  130  H 27  S   -0.000017  -0.000077  -0.001225   0.000000  -0.000416
  131  H 27  S    0.000153  -0.000014   0.002359  -0.000063  -0.002343
  132  H 28  S   -0.000032  -0.000064  -0.001153   0.000037  -0.000550
  133  H 28  S   -0.000139   0.000138   0.001534  -0.000219  -0.000826
  134  H 29  S    0.000001  -0.000280  -0.000997  -0.000023  -0.000455
  135  H 29  S   -0.000369   0.000749  -0.001477  -0.000047   0.000449

                      6          7          8          9         10
                  -11.1656   -11.1625   -11.1623   -11.1612   -11.1602
                     A          A          A          A          A   
    1  O  1  S   -0.000008   0.000008   0.000004   0.000013   0.000001
    2  O  1  S   -0.000076   0.000056  -0.000318   0.000059   0.000003
    3  O  1  X   -0.000004   0.000010   0.000103   0.000047   0.000002
    4  O  1  Y    0.000045   0.000008   0.000721   0.000068   0.000003
    5  O  1  Z    0.000010  -0.000007   0.000017   0.000001  -0.000001
    6  O  1  S    0.000284  -0.000278  -0.000152  -0.000440  -0.000020
    7  O  1  X    0.000021  -0.000061  -0.000562  -0.000181  -0.000011
    8  O  1  Y   -0.000236   0.000069  -0.001692   0.000048  -0.000004
    9  O  1  Z   -0.000050   0.000103   0.000003   0.000088   0.000009
   10  C  2  S   -0.000014   0.000324   0.002692   0.001658   0.000005
   11  C  2  S   -0.000075  -0.000309  -0.001885  -0.000934  -0.000019
   12  C  2  X    0.000085  -0.000075  -0.000406  -0.000096  -0.000005
   13  C  2  Y   -0.000125  -0.000100   0.000177   0.000315  -0.000015
   14  C  2  Z    0.000200   0.000041  -0.000226  -0.000129   0.000007
   15  C  2  S    0.001142   0.002685   0.018769   0.004756   0.000205
   16  C  2  X    0.000243   0.000283   0.003132   0.000280   0.000053
   17  C  2  Y   -0.000060  -0.000916  -0.011817  -0.002758  -0.000063
   18  C  2  Z   -0.000985   0.000379   0.002931   0.001184   0.000024
   19  C  3  S    0.007716  -0.005957   0.977738   0.134415  -0.001188
   20  C  3  S    0.001004  -0.000543   0.097790   0.012321  -0.000085
   21  C  3  X    0.000158  -0.000013   0.000721   0.000019   0.000007
   22  C  3  Y    0.000157   0.000188   0.000221   0.000874   0.000023
   23  C  3  Z    0.000056  -0.000050  -0.000354  -0.000247   0.000005
   24  C  3  S   -0.001651   0.000454  -0.082080  -0.009155  -0.000152
   25  C  3  X   -0.001263  -0.001767  -0.014290   0.000754  -0.000287
   26  C  3  Y    0.000396  -0.002751   0.002202  -0.001901  -0.000134
   27  C  3  Z    0.000432   0.001234   0.004443   0.000117   0.000042
   28  C  4  S    0.009642   0.005420   0.002405   0.005605   0.000590
   29  C  4  S   -0.000411  -0.000724  -0.003724  -0.001606  -0.000082
   30  C  4  X   -0.000793  -0.000630   0.001030   0.000258  -0.000082
   31  C  4  Y    0.000021  -0.000073  -0.002500   0.000066  -0.000033
   32  C  4  Z    0.000048   0.000074   0.000388  -0.000236  -0.000014
   33  C  4  S    0.003307   0.005126   0.026560   0.017898   0.000431
   34  C  4  X    0.000149   0.007354  -0.005325  -0.007207   0.000493
   35  C  4  Y    0.000272   0.001297   0.023832  -0.010786   0.000375
   36  C  4  Z   -0.001692  -0.002431  -0.005218   0.005846  -0.000073
   37  C  5  S    0.039468   0.026492   0.012551   0.036026   0.000459
   38  C  5  S    0.001818   0.001832   0.001340   0.001614   0.000067
   39  C  5  X    0.000872  -0.001157   0.000729   0.000824  -0.000037
   40  C  5  Y    0.000199   0.000072  -0.000365   0.000637   0.000071
   41  C  5  Z    0.000036   0.000007  -0.000204  -0.000718  -0.000017
   42  C  5  S    0.016989  -0.003189  -0.004892   0.003365  -0.000331
   43  C  5  X    0.009228   0.007937   0.001141  -0.002773   0.000259
   44  C  5  Y   -0.000454  -0.001846  -0.002996  -0.000875  -0.000436
   45  C  5  Z    0.010349   0.000018   0.000777   0.003380   0.000230
   46  C  6  S    0.986662   0.026540  -0.007931  -0.002702   0.011388
   47  C  6  S    0.105208   0.001383  -0.000659   0.000088   0.000634
   48  C  6  X   -0.000088  -0.000310  -0.000056  -0.000097  -0.000360
   49  C  6  Y   -0.000294  -0.000452  -0.000001   0.000045  -0.000066
   50  C  6  Z   -0.000213  -0.000073   0.000052  -0.000007   0.000117
   51  C  6  S   -0.099133   0.013719   0.000376  -0.001252   0.000026
   52  C  6  X   -0.004319   0.012376   0.000093   0.001987   0.001449
   53  C  6  Y    0.002257   0.004732   0.000357   0.000171   0.000197
   54  C  6  Z    0.006530  -0.000522  -0.000712   0.000762  -0.000566
   55  C  7  S   -0.029144   0.984175   0.003666   0.015542   0.047869
   56  C  7  S   -0.004790   0.098708   0.000352   0.001396   0.003921
   57  C  7  X    0.000386  -0.000529  -0.000059   0.000152  -0.000696
   58  C  7  Y   -0.000324   0.000641  -0.000052   0.000106   0.000050
   59  C  7  Z   -0.000381   0.000144  -0.000008   0.000065   0.000233
   60  C  7  S    0.022402  -0.082502   0.000189  -0.001815  -0.002744
   61  C  7  X   -0.019584  -0.001037   0.000783  -0.000958  -0.000335
   62  C  7  Y    0.002354  -0.013337   0.000419  -0.001072   0.002070
   63  C  7  Z    0.006650  -0.004761   0.000138  -0.000748   0.001110
   64  C  8  S    0.004890   0.003475  -0.000386   0.000078   0.003870
   65  C  8  S    0.000439  -0.003715   0.000022  -0.000092  -0.000885
   66  C  8  X    0.000557   0.002469  -0.000033  -0.000034  -0.000341
   67  C  8  Y    0.000358   0.001251  -0.000004   0.000039   0.000449
   68  C  8  Z    0.000045  -0.000128   0.000010  -0.000001   0.000313
   69  C  8  S   -0.000427   0.026785  -0.000565   0.001477   0.011527
   70  C  8  X   -0.000035  -0.022492   0.000558  -0.000507   0.013460
   71  C  8  Y   -0.005924  -0.008543   0.000420  -0.000737  -0.009991
   72  C  8  Z   -0.002620   0.002667  -0.000052   0.000101  -0.008770
   73  C  9  S   -0.008685  -0.029110  -0.000248  -0.002490  -0.264665
   74  C  9  S   -0.001597  -0.003164  -0.000036  -0.000299  -0.029326
   75  C  9  X    0.000246   0.000282  -0.000002   0.000002  -0.000869
   76  C  9  Y   -0.000256   0.000833  -0.000014  -0.000016   0.000405
   77  C  9  Z   -0.000090   0.000269  -0.000015   0.000013   0.000444
   78  C  9  S    0.006677  -0.000378   0.000062   0.000465   0.028697
   79  C  9  X   -0.000933   0.003102  -0.000170  -0.000009   0.001855
   80  C  9  Y   -0.001203   0.000606   0.000069   0.000101  -0.003807
   81  C  9  Z   -0.000704  -0.000464   0.000137  -0.000104  -0.002239
   82  C 10  S   -0.012921  -0.058334   0.000972  -0.000585   0.950250
   83  C 10  S   -0.001977  -0.007270   0.000126  -0.000051   0.098504
   84  C 10  X    0.000407   0.000300  -0.000001   0.000022   0.000106
   85  C 10  Y    0.000063   0.000152  -0.000002  -0.000000   0.000451
   86  C 10  Z   -0.000136  -0.000037   0.000003  -0.000012   0.000172
   87  C 10  S    0.001187   0.012214  -0.000260  -0.000087  -0.081464
   88  C 10  X   -0.000958  -0.002904   0.000062   0.000039   0.005153
   89  C 10  Y    0.000402   0.002126  -0.000106   0.000138  -0.002048
   90  C 10  Z    0.000639   0.002031  -0.000068   0.000006  -0.002522
   91  C 11  S    0.000668  -0.015925  -0.135367   0.977499  -0.000687
   92  C 11  S    0.000211  -0.001826  -0.015321   0.100751  -0.000066
   93  C 11  X    0.000109  -0.000092   0.000070   0.000182   0.000016
   94  C 11  Y    0.000001  -0.000016  -0.000301  -0.000227   0.000001
   95  C 11  Z   -0.000250  -0.000003   0.000073  -0.000013  -0.000007
   96  C 11  S    0.000374   0.002796   0.018983  -0.081736   0.000217
   97  C 11  X   -0.000583  -0.000651   0.002806  -0.002039  -0.000131
   98  C 11  Y   -0.000370   0.001165   0.003117  -0.004042   0.000112
   99  C 11  Z    0.001910  -0.000065  -0.001923   0.001836  -0.000051
  100  H 12  S    0.000011   0.000018   0.000506   0.000037   0.000003
  101  H 12  S    0.000100   0.000063   0.001536   0.000278   0.000009
  102  H 13  S   -0.000091  -0.000086  -0.000979  -0.000257   0.000000
  103  H 13  S   -0.000443   0.000055   0.003012   0.000574  -0.000005
  104  H 14  S    0.000175  -0.000062  -0.001543  -0.000378  -0.000008
  105  H 14  S   -0.001340  -0.000641  -0.002008  -0.000370  -0.000066
  106  H 15  S   -0.000105  -0.000289  -0.001632  -0.000133  -0.000021
  107  H 15  S   -0.000224  -0.000833   0.009015   0.001508  -0.000101
  108  H 16  S   -0.001296  -0.000358   0.000026  -0.000539  -0.000087
  109  H 16  S    0.001006  -0.001307   0.000202   0.000613   0.000048
  110  H 17  S   -0.001264  -0.000713   0.000335  -0.000250   0.000041
  111  H 17  S    0.002846   0.001851   0.001698   0.002434   0.000276
  112  H 18  S    0.000755  -0.001414  -0.000140   0.000019  -0.000245
  113  H 18  S    0.015664  -0.001745   0.000262   0.000347   0.000838
  114  H 19  S    0.001270  -0.000904   0.000007   0.000458  -0.000034
  115  H 19  S    0.015731   0.003333   0.000672  -0.001329   0.000461
  116  H 20  S   -0.000562  -0.001427   0.000077  -0.000143   0.000137
  117  H 20  S    0.002003   0.009389  -0.000021  -0.000229   0.000812
  118  H 21  S   -0.000001   0.000300   0.000023   0.000055  -0.000296
  119  H 21  S   -0.003128   0.001186  -0.000261  -0.000279  -0.002565
  120  H 22  S   -0.000259  -0.000010  -0.000005  -0.000003  -0.000597
  121  H 22  S    0.000073  -0.000552  -0.000013  -0.000020  -0.004861
  122  H 23  S   -0.000304   0.000039   0.000005  -0.000033  -0.000597
  123  H 23  S   -0.000316  -0.000473   0.000023  -0.000104  -0.004814
  124  H 24  S   -0.000046  -0.000368   0.000013  -0.000009   0.000488
  125  H 24  S   -0.000001  -0.000900   0.000021  -0.000001   0.014070
  126  H 25  S   -0.000064  -0.000415   0.000009   0.000013   0.000489
  127  H 25  S   -0.000154  -0.000949   0.000037  -0.000023   0.014053
  128  H 26  S   -0.000273  -0.000120  -0.000001   0.000005   0.000332
  129  H 26  S    0.000769  -0.000947  -0.000030   0.000109   0.013006
  130  H 27  S    0.000148  -0.000072  -0.000441   0.000391   0.000006
  131  H 27  S    0.000621   0.000140  -0.002088   0.014153  -0.000012
  132  H 28  S    0.000425   0.000042  -0.000396   0.000190   0.000007
  133  H 28  S   -0.002458  -0.000221  -0.002251   0.014811   0.000051
  134  H 29  S   -0.000167  -0.000169  -0.000183   0.000279  -0.000019
  135  H 29  S   -0.000504  -0.000509  -0.001931   0.013738  -0.000073

                     11         12         13         14         15
                  -11.1593    -1.3366    -1.1097    -1.0875    -1.0193
                     A          A          A          A          A   
    1  O  1  S    0.000002  -0.221230   0.017570  -0.017459  -0.024122
    2  O  1  S    0.000011   0.205548  -0.015708   0.015475   0.021110
    3  O  1  X    0.000005   0.003005  -0.000026   0.000196   0.000992
    4  O  1  Y    0.000001   0.016217  -0.015300   0.017086   0.032472
    5  O  1  Z   -0.000001  -0.071595   0.000329   0.000613   0.006083
    6  O  1  S   -0.000056   0.690734  -0.063073   0.064007   0.092983
    7  O  1  X   -0.000027   0.003907   0.000673  -0.000391   0.000220
    8  O  1  Y    0.000022   0.009957  -0.008233   0.009484   0.020385
    9  O  1  Z    0.000016  -0.095784   0.004051  -0.003499  -0.001005
   10  C  2  S    0.000071  -0.075487  -0.028020   0.030917   0.054226
   11  C  2  S   -0.000061   0.082010   0.030336  -0.032013  -0.053801
   12  C  2  X   -0.000031  -0.005016   0.001101   0.000530   0.006616
   13  C  2  Y   -0.000011   0.047723  -0.031786   0.032587   0.042525
   14  C  2  Z   -0.000003   0.055083   0.000886  -0.001209  -0.000229
   15  C  2  S    0.000465   0.123330   0.055003  -0.073303  -0.152466
   16  C  2  X    0.000142   0.003072  -0.002140   0.001973   0.005377
   17  C  2  Y   -0.000202  -0.000026  -0.001794   0.005912   0.013097
   18  C  2  Z    0.000119  -0.011326  -0.004904   0.004660   0.007219
   19  C  3  S    0.000156  -0.017661  -0.075858   0.075812   0.086240
   20  C  3  S    0.000044   0.018332   0.084595  -0.084398  -0.094131
   21  C  3  X   -0.000021   0.004047   0.036951  -0.031870  -0.015708
   22  C  3  Y    0.000032   0.018077  -0.036226   0.031704   0.008839
   23  C  3  Z   -0.000017  -0.002651  -0.003103   0.003295   0.006115
   24  C  3  S   -0.000479   0.027701   0.147242  -0.151485  -0.194314
   25  C  3  X   -0.000491  -0.001221   0.010016  -0.003306  -0.000001
   26  C  3  Y   -0.000279   0.013206   0.006302   0.003627   0.015369
   27  C  3  Z    0.000171   0.008185  -0.007745   0.003003   0.000062
   28  C  4  S    0.000903  -0.004292  -0.111000   0.094482   0.041468
   29  C  4  S   -0.000152   0.004994   0.121660  -0.100078  -0.041992
   30  C  4  X   -0.000106  -0.001374   0.002044   0.020090   0.077383
   31  C  4  Y   -0.000100   0.005529   0.017703  -0.018685  -0.033302
   32  C  4  Z   -0.000026  -0.000308  -0.003393  -0.000459  -0.011172
   33  C  4  S    0.000976   0.012469   0.213971  -0.203521  -0.106742
   34  C  4  X    0.000942  -0.006869  -0.019016  -0.000768  -0.005370
   35  C  4  Y    0.000745  -0.004591  -0.009023   0.002812  -0.001426
   36  C  4  Z   -0.000201   0.000108   0.011320  -0.000675   0.004590
   37  C  5  S    0.001979  -0.001414  -0.098672   0.039726  -0.088066
   38  C  5  S    0.000158   0.001016   0.095689  -0.036665   0.082433
   39  C  5  X   -0.000117  -0.001350  -0.014155   0.039098   0.049431
   40  C  5  Y    0.000015   0.000602   0.001523  -0.000477  -0.003086
   41  C  5  Z   -0.000076   0.000070   0.025490  -0.004325   0.024998
   42  C  5  S   -0.000868   0.006288   0.246689  -0.105957   0.245408
   43  C  5  X    0.000705  -0.000297  -0.015350  -0.006629  -0.009428
   44  C  5  Y   -0.000325   0.001825   0.003439  -0.000532  -0.003459
   45  C  5  Z   -0.000081   0.002340   0.006504  -0.006255   0.005171
   46  C  6  S    0.012692  -0.000247  -0.087078  -0.023498  -0.126515
   47  C  6  S    0.000416   0.000841   0.084545   0.021315   0.116578
   48  C  6  X    0.000049  -0.000116  -0.000275   0.041070  -0.002694
   49  C  6  Y   -0.000211   0.000153  -0.001580   0.003909  -0.008077
   50  C  6  Z   -0.000117  -0.000070  -0.024075   0.000697  -0.025736
   51  C  6  S    0.005605  -0.003409   0.213706   0.057612   0.362141
   52  C  6  X    0.002235  -0.000008   0.016326  -0.011238   0.008789
   53  C  6  Y    0.000917  -0.001022  -0.005471  -0.002183  -0.008459
   54  C  6  Z   -0.000182   0.000466  -0.007490  -0.003827  -0.013047
   55  C  7  S    0.043217  -0.000084  -0.080349  -0.090448  -0.043020
   56  C  7  S    0.003435  -0.000014   0.091242   0.097810   0.046389
   57  C  7  X   -0.000674  -0.000089   0.001960   0.046473  -0.076427
   58  C  7  Y   -0.000689  -0.000003   0.027018   0.042936  -0.015747
   59  C  7  Z   -0.000123  -0.000005   0.008584   0.005976   0.013000
   60  C  7  S   -0.001613   0.001098   0.140210   0.190954   0.085010
   61  C  7  X    0.006227  -0.000572   0.013588  -0.009685   0.006268
   62  C  7  Y   -0.000814   0.000546   0.001087   0.007593  -0.000312
   63  C  7  Z   -0.002268   0.000317  -0.005650   0.006231  -0.003576
   64  C  8  S    0.006235  -0.000015  -0.076873  -0.125814   0.056667
   65  C  8  S   -0.001328   0.000037   0.082718   0.135154  -0.059723
   66  C  8  X    0.000418  -0.000040  -0.022795  -0.018024  -0.045341
   67  C  8  Y   -0.000514   0.000015  -0.016664  -0.016689  -0.023679
   68  C  8  Z   -0.000352   0.000022  -0.000527  -0.001418   0.002591
   69  C  8  S    0.018199  -0.000159   0.155730   0.263853  -0.131114
   70  C  8  X   -0.001949   0.000522   0.003272   0.011474  -0.007616
   71  C  8  Y    0.014685  -0.000161   0.002489  -0.009913   0.001787
   72  C  8  Z    0.007240  -0.000215  -0.000175  -0.006955   0.002087
   73  C  9  S    0.950967  -0.000016  -0.039998  -0.073445   0.058187
   74  C  9  S    0.097888  -0.000019   0.040938   0.072990  -0.056457
   75  C  9  X    0.000074  -0.000016  -0.000833   0.002564  -0.011540
   76  C  9  Y    0.000418  -0.000039  -0.022060  -0.036758   0.016637
   77  C  9  Z    0.000158  -0.000000  -0.009808  -0.017525   0.011024
   78  C  9  S   -0.081282   0.000426   0.090335   0.184538  -0.161964
   79  C  9  X   -0.000127  -0.000149   0.000055  -0.000341  -0.004118
   80  C  9  Y    0.004429   0.000039   0.000756  -0.003513   0.000102
   81  C  9  Z    0.002100  -0.000016   0.000108  -0.001459   0.001514
   82  C 10  S    0.262020   0.000001  -0.038162  -0.074357   0.071009
   83  C 10  S    0.024931   0.000019   0.040018   0.075947  -0.068471
   84  C 10  X    0.000168   0.000016  -0.022198  -0.037014   0.017685
   85  C 10  Y   -0.000766   0.000005   0.003778   0.008406  -0.010478
   86  C 10  Z   -0.000401  -0.000005   0.008562   0.015391  -0.010338
   87  C 10  S   -0.013782  -0.000310   0.084007   0.168883  -0.193067
   88  C 10  X   -0.001777   0.000102   0.003810   0.003815   0.003998
   89  C 10  Y    0.001367  -0.000068  -0.000204   0.000856  -0.004052
   90  C 10  Z    0.001179  -0.000051  -0.001122  -0.001206  -0.002851
   91  C 11  S    0.001816  -0.000556  -0.058685   0.055367   0.034559
   92  C 11  S    0.000143   0.001467   0.061114  -0.056221  -0.033490
   93  C 11  X    0.000009   0.000032   0.013073  -0.008382   0.007489
   94  C 11  Y    0.000009   0.000680   0.030428  -0.027261  -0.015513
   95  C 11  Z    0.000009  -0.000144  -0.012916   0.011318   0.003882
   96  C 11  S    0.000311  -0.004982   0.125439  -0.130263  -0.093375
   97  C 11  X   -0.000090  -0.000184   0.002056   0.000766   0.005588
   98  C 11  Y    0.000198  -0.003247  -0.005900   0.001506  -0.001392
   99  C 11  Z   -0.000187   0.001547  -0.000369  -0.000565  -0.001587
  100  H 12  S    0.000005   0.106428  -0.015428   0.016296   0.027041
  101  H 12  S    0.000005   0.017957  -0.007757   0.008161   0.014806
  102  H 13  S   -0.000007   0.024454   0.011851  -0.013479  -0.027697
  103  H 13  S    0.000064  -0.004876  -0.005999   0.005759   0.004957
  104  H 14  S   -0.000027   0.023515   0.016247  -0.016654  -0.026868
  105  H 14  S   -0.000102  -0.007489   0.004864  -0.000413   0.006940
  106  H 15  S   -0.000042   0.004946   0.031525  -0.032713  -0.044400
  107  H 15  S   -0.000151  -0.001231   0.001192   0.000122  -0.004088
  108  H 16  S   -0.000086   0.000416   0.044502  -0.016432   0.046374
  109  H 16  S    0.000123   0.000390  -0.003815   0.003128   0.003044
  110  H 17  S    0.000052   0.000942   0.044671  -0.016853   0.043450
  111  H 17  S    0.000090   0.000156  -0.006052   0.001413  -0.004270
  112  H 18  S   -0.000116   0.000045   0.040720   0.011226   0.059558
  113  H 18  S   -0.002558   0.002326  -0.001089   0.003942  -0.004793
  114  H 19  S   -0.000308   0.000197   0.038967   0.007751   0.062526
  115  H 19  S    0.000344  -0.000095  -0.004825  -0.007094  -0.002710
  116  H 20  S   -0.000563   0.000045   0.035016   0.039050   0.022787
  117  H 20  S    0.000044   0.000192  -0.000834   0.002189   0.002306
  118  H 21  S   -0.000004   0.000040   0.018846   0.032743  -0.023957
  119  H 21  S    0.015113  -0.000407   0.001855  -0.003564   0.009761
  120  H 22  S    0.000413  -0.000011   0.017307   0.033014  -0.031000
  121  H 22  S    0.013621   0.000023  -0.003086  -0.004260  -0.001135
  122  H 23  S    0.000416  -0.000017   0.017297   0.032914  -0.031001
  123  H 23  S    0.013649  -0.000047  -0.003258  -0.003871  -0.001247
  124  H 24  S   -0.000398   0.000012   0.016575   0.033614  -0.036598
  125  H 24  S    0.002766   0.000023  -0.003265  -0.004242  -0.001721
  126  H 25  S   -0.000408   0.000012   0.016568   0.033713  -0.036633
  127  H 25  S    0.002808   0.000008  -0.003408  -0.004124  -0.001677
  128  H 26  S   -0.000292  -0.000001   0.017760   0.033991  -0.032632
  129  H 26  S    0.004783   0.000015  -0.001261  -0.000016  -0.000859
  130  H 27  S   -0.000023   0.000496   0.025983  -0.024758  -0.015454
  131  H 27  S   -0.000010  -0.000442  -0.004312   0.003013   0.002316
  132  H 28  S    0.000004   0.000273   0.026698  -0.024899  -0.013494
  133  H 28  S    0.000102  -0.000268  -0.000996   0.004785   0.007753
  134  H 29  S   -0.000028   0.000587   0.025923  -0.025571  -0.021539
  135  H 29  S   -0.000013   0.000453  -0.000844   0.000659  -0.003693

                     16         17         18         19         20
                   -0.9729    -0.9381    -0.9241    -0.8672    -0.8328
                     A          A          A          A          A   
    1  O  1  S   -0.046922  -0.000188  -0.006394   0.038686  -0.015466
    2  O  1  S    0.041319   0.000168   0.005464  -0.035034   0.014609
    3  O  1  X    0.000381   0.000070   0.001928   0.002453  -0.006736
    4  O  1  Y    0.074724   0.000373   0.013753  -0.083837   0.028088
    5  O  1  Z    0.022359   0.000137   0.004332  -0.049787   0.027721
    6  O  1  S    0.185258   0.000728   0.026377  -0.159903   0.063647
    7  O  1  X   -0.000205   0.000082   0.001422   0.001925  -0.005542
    8  O  1  Y    0.050792   0.000261   0.009874  -0.067183   0.024369
    9  O  1  Z    0.008274   0.000088   0.001801  -0.037433   0.023487
   10  C  2  S    0.120023   0.000547   0.017033  -0.117480   0.048901
   11  C  2  S   -0.117979  -0.000537  -0.016658   0.112543  -0.046532
   12  C  2  X    0.008185   0.000282   0.009604  -0.002119  -0.018390
   13  C  2  Y    0.063524   0.000255   0.007092   0.018648  -0.026989
   14  C  2  Z    0.011215   0.000016  -0.000353  -0.044003   0.034820
   15  C  2  S   -0.352531  -0.001521  -0.052995   0.397314  -0.173573
   16  C  2  X    0.009781   0.000058   0.005151  -0.004313  -0.009266
   17  C  2  Y    0.030555  -0.000030   0.000579  -0.006818  -0.004005
   18  C  2  Z    0.016165   0.000238   0.001767  -0.034454   0.026237
   19  C  3  S    0.084058   0.000613   0.021597   0.065319  -0.065291
   20  C  3  S   -0.090731  -0.000643  -0.022862  -0.066858   0.066361
   21  C  3  X   -0.009434   0.000386   0.020966  -0.041388  -0.015325
   22  C  3  Y   -0.076078  -0.000080  -0.001248   0.138588  -0.058680
   23  C  3  Z    0.029588   0.000047  -0.006745  -0.029587   0.031045
   24  C  3  S   -0.195177  -0.001587  -0.058218  -0.185504   0.193265
   25  C  3  X   -0.010556  -0.000092   0.009514  -0.014322  -0.008857
   26  C  3  Y    0.002387  -0.000190   0.007254   0.016946  -0.012757
   27  C  3  Z    0.008365   0.000117  -0.004046  -0.000213   0.010741
   28  C  4  S   -0.040464  -0.000148  -0.013756   0.080382  -0.002110
   29  C  4  S    0.041021   0.000002   0.013484  -0.082737   0.003755
   30  C  4  X    0.004694   0.001457   0.087905   0.047240  -0.106418
   31  C  4  Y   -0.105948   0.000528   0.029740  -0.113625   0.058587
   32  C  4  Z    0.029315  -0.000364  -0.041006   0.020490   0.039216
   33  C  4  S    0.105291   0.000959   0.039441  -0.242295   0.012765
   34  C  4  X    0.005642   0.001048   0.013791   0.033507  -0.042492
   35  C  4  Y   -0.012192   0.000400   0.003310  -0.027603   0.022710
   36  C  4  Z   -0.000888  -0.000383  -0.009709  -0.001340   0.022138
   37  C  5  S   -0.006193  -0.001213  -0.115291   0.000820   0.088183
   38  C  5  S    0.006214   0.000834   0.100434   0.001494  -0.076618
   39  C  5  X   -0.027727  -0.000956  -0.020280   0.051352   0.052429
   40  C  5  Y   -0.021641   0.001752   0.005460  -0.015459   0.014639
   41  C  5  Z    0.002212   0.001029  -0.011869   0.015403   0.074225
   42  C  5  S    0.018838   0.004038   0.381000  -0.017790  -0.325971
   43  C  5  X    0.005021   0.000447   0.000083   0.015874   0.011269
   44  C  5  Y   -0.010166  -0.000642  -0.001606  -0.006623   0.007232
   45  C  5  Z    0.000776   0.001759   0.009119   0.001600   0.021960
   46  C  6  S    0.033478  -0.002636   0.015690  -0.050746  -0.116541
   47  C  6  S   -0.029652   0.002727  -0.011034   0.043862   0.100733
   48  C  6  X   -0.018945  -0.004040  -0.090135  -0.017786   0.016091
   49  C  6  Y   -0.003030   0.008027   0.001063  -0.006169   0.001907
   50  C  6  Z    0.002448   0.004598  -0.024146   0.010341   0.067467
   51  C  6  S   -0.103659   0.005376  -0.064911   0.178717   0.432598
   52  C  6  X   -0.003681   0.003774  -0.005827  -0.012299  -0.001664
   53  C  6  Y    0.000011   0.004965   0.006304  -0.006254  -0.003322
   54  C  6  Z    0.003304   0.000587   0.002608  -0.001548   0.019456
   55  C  7  S    0.030701   0.025660   0.115576   0.041357   0.039300
   56  C  7  S   -0.032090  -0.027038  -0.119327  -0.043393  -0.041868
   57  C  7  X    0.015693  -0.026571  -0.026088  -0.063520  -0.131221
   58  C  7  Y   -0.001201   0.017523  -0.022601  -0.022457  -0.037184
   59  C  7  Z   -0.005400   0.016323  -0.009622   0.010191   0.036812
   60  C  7  S   -0.071149  -0.067126  -0.302940  -0.112969  -0.117654
   61  C  7  X    0.003424  -0.012837   0.000577  -0.010534  -0.026257
   62  C  7  Y    0.000968   0.011698  -0.010327  -0.002806  -0.008110
   63  C  7  Z   -0.000570   0.009713  -0.008908   0.004596   0.014408
   64  C  8  S   -0.006668   0.003219   0.023859   0.033105   0.063342
   65  C  8  S    0.006993  -0.003551  -0.025868  -0.034294  -0.064989
   66  C  8  X    0.027822  -0.054496   0.116215   0.055516   0.071043
   67  C  8  Y    0.016945   0.111117   0.078966   0.044616   0.063106
   68  C  8  Z   -0.000924   0.067472  -0.002364   0.002910   0.009875
   69  C  8  S    0.012543  -0.009697  -0.069299  -0.103053  -0.199925
   70  C  8  X    0.005491  -0.001051   0.019411   0.015297   0.019879
   71  C  8  Y    0.005732   0.014722   0.030290   0.020696   0.031552
   72  C  8  Z    0.000750   0.006860   0.005495   0.003647   0.010125
   73  C  9  S   -0.018680  -0.163875  -0.050840  -0.020341  -0.024292
   74  C  9  S    0.018080   0.151918   0.049139   0.019285   0.022789
   75  C  9  X    0.005802  -0.008117   0.021024   0.008255   0.006961
   76  C  9  Y   -0.001426   0.008455   0.012414   0.015722   0.030758
   77  C  9  Z   -0.002438   0.006434  -0.001217   0.004532   0.012618
   78  C  9  S    0.053630   0.509825   0.151934   0.065979   0.082954
   79  C  9  X    0.002288   0.003071   0.011080   0.004276   0.003627
   80  C  9  Y    0.001124  -0.003370   0.007119   0.004165   0.008333
   81  C  9  Z   -0.000192  -0.002380  -0.000878   0.001099   0.004413
   82  C 10  S   -0.026419   0.130800  -0.088957  -0.039039  -0.054556
   83  C 10  S    0.024934  -0.120739   0.082721   0.035782   0.049470
   84  C 10  X   -0.001285  -0.000643   0.018874   0.024615   0.052248
   85  C 10  Y    0.004325   0.017599   0.014816   0.006193   0.006291
   86  C 10  Z    0.002341   0.008224   0.000469  -0.004863  -0.012704
   87  C 10  S    0.078743  -0.407786   0.285923   0.134183   0.196016
   88  C 10  X   -0.001300   0.005857   0.002005   0.007718   0.019373
   89  C 10  Y    0.001678   0.000600   0.008610   0.004041   0.005903
   90  C 10  Z    0.001278  -0.001468   0.003787  -0.000373  -0.003149
   91  C 11  S   -0.136068   0.001271   0.084625  -0.093282   0.008314
   92  C 11  S    0.127840  -0.001166  -0.077999   0.084811  -0.008171
   93  C 11  X    0.011409   0.000241   0.016055  -0.001274  -0.021330
   94  C 11  Y    0.009785   0.000037   0.005710  -0.055747   0.017583
   95  C 11  Z   -0.007720  -0.000034  -0.007791   0.019076   0.010813
   96  C 11  S    0.405690  -0.003798  -0.267363   0.323254  -0.031300
   97  C 11  X    0.008023  -0.000206   0.002562   0.006319  -0.008766
   98  C 11  Y    0.006355   0.000239  -0.000859  -0.016177   0.010572
   99  C 11  Z   -0.004612   0.000200   0.001702   0.002760   0.002491
  100  H 12  S    0.058681   0.000268   0.009856  -0.059053   0.019723
  101  H 12  S    0.033733   0.000198   0.006478  -0.039739   0.014342
  102  H 13  S   -0.067885  -0.000385  -0.012467   0.091100  -0.040411
  103  H 13  S    0.000153  -0.000046  -0.001582   0.024490  -0.012924
  104  H 14  S   -0.068518  -0.000183  -0.004036   0.083406  -0.051522
  105  H 14  S   -0.004128   0.000409   0.007588   0.018102  -0.021280
  106  H 15  S   -0.041144  -0.000545  -0.023113  -0.036948   0.060392
  107  H 15  S   -0.003332  -0.000299  -0.009171  -0.012136   0.025952
  108  H 16  S    0.009939  -0.000637   0.062863   0.007786  -0.075268
  109  H 16  S    0.002615  -0.001174   0.005922   0.006201  -0.029318
  110  H 17  S   -0.007614   0.000829   0.069170  -0.003733  -0.071169
  111  H 17  S   -0.012476   0.001325   0.013462   0.003228  -0.029788
  112  H 18  S   -0.018024   0.008334  -0.006621   0.031367   0.088988
  113  H 18  S   -0.001147   0.011613  -0.000903   0.008262   0.028494
  114  H 19  S   -0.014099   0.000369  -0.009026   0.037941   0.091247
  115  H 19  S    0.006295   0.001336  -0.001134   0.014351   0.030222
  116  H 20  S   -0.015854  -0.027723  -0.064684  -0.025972  -0.031594
  117  H 20  S   -0.001636  -0.011229  -0.014011  -0.006902  -0.014339
  118  H 21  S    0.007584   0.100428   0.022707   0.012472   0.021333
  119  H 21  S   -0.002711   0.020167   0.000186   0.006349   0.015249
  120  H 22  S    0.011416   0.092973   0.036296   0.017313   0.023440
  121  H 22  S    0.001799   0.012014   0.010524   0.007397   0.011974
  122  H 23  S    0.011504   0.092928   0.036944   0.017599   0.023207
  123  H 23  S    0.001842   0.012304   0.010337   0.007914   0.012850
  124  H 24  S    0.015218  -0.071361   0.058403   0.030728   0.048008
[...]
                             MULLIKEN      LOWDIN
              1  O  1  S      1.98590     1.98034
              2  O  1  S      0.41406     0.57141
              3  O  1  X      0.86987     0.88489
              4  O  1  Y      0.55185     0.52849
              5  O  1  Z      0.67139     0.67036
              6  O  1  S      1.50679     1.04221
              7  O  1  X      1.07669     1.07029
              8  O  1  Y      0.68360     0.71970
              9  O  1  Z      0.91075     0.93196
             10  C  2  S      1.98838     1.97558
             11  C  2  S      0.36474     0.41428
             12  C  2  X      0.56626     0.52718
             13  C  2  Y      0.50926     0.49568
             14  C  2  Z      0.48529     0.45904
             15  C  2  S      1.01612     0.56156
             16  C  2  X      0.54022     0.57960
             17  C  2  Y      0.32488     0.47592
             18  C  2  Z      0.32877     0.47848
             19  C  3  S      1.98786     1.97689
             20  C  3  S      0.39296     0.41934
             21  C  3  X      0.56028     0.53417
             22  C  3  Y      0.58525     0.56440
             23  C  3  Z      0.44880     0.43932
             24  C  3  S      0.89164     0.54498
             25  C  3  X      0.49190     0.55713
             26  C  3  Y      0.25218     0.49109
             27  C  3  Z      0.59040     0.61553
             28  C  4  S      1.98857     1.97684
             29  C  4  S      0.38815     0.41516
             30  C  4  X      0.55952     0.54572
             31  C  4  Y      0.58517     0.56520
             32  C  4  Z      0.42062     0.40955
             33  C  4  S      0.88004     0.52972
             34  C  4  X      0.36078     0.51219
             35  C  4  Y      0.33192     0.50839
             36  C  4  Z      0.51953     0.55890
             37  C  5  S      1.98957     1.97615
             38  C  5  S      0.34379     0.41233
             39  C  5  X      0.52525     0.51303
             40  C  5  Y      0.54788     0.51923
             41  C  5  Z      0.53037     0.50706
             42  C  5  S      1.14053     0.55864
             43  C  5  X      0.31610     0.50942
             44  C  5  Y      0.57673     0.58794
             45  C  5  Z      0.46448     0.56737
             46  C  6  S      1.98952     1.97611
             47  C  6  S      0.34419     0.40984
             48  C  6  X      0.52717     0.51087
             49  C  6  Y      0.55118     0.52287
             50  C  6  Z      0.52850     0.50396
             51  C  6  S      1.14443     0.55773
             52  C  6  X      0.32251     0.51421
             53  C  6  Y      0.59266     0.59332
             54  C  6  Z      0.45721     0.56422
             55  C  7  S      1.98798     1.97693
             56  C  7  S      0.38968     0.41807
             57  C  7  X      0.57838     0.55924
             58  C  7  Y      0.55205     0.52623
             59  C  7  Z      0.44960     0.43908
             60  C  7  S      0.89052     0.54444
             61  C  7  X      0.28297     0.49922
             62  C  7  Y      0.47132     0.55423
             63  C  7  Z      0.58492     0.61250
             64  C  8  S      1.98834     1.97678
             65  C  8  S      0.38740     0.41167
             66  C  8  X      0.57800     0.55798
             67  C  8  Y      0.55520     0.53762
             68  C  8  Z      0.43746     0.42650
             69  C  8  S      0.88205     0.52977
             70  C  8  X      0.33351     0.50963
             71  C  8  Y      0.37947     0.52130
             72  C  8  Z      0.51907     0.56474
             73  C  9  S      1.98841     1.97630
             74  C  9  S      0.35279     0.41204
             75  C  9  X      0.54953     0.51826
             76  C  9  Y      0.53459     0.51118
             77  C  9  Z      0.53982     0.50804
             78  C  9  S      1.14054     0.57400
             79  C  9  X      0.57598     0.60482
             80  C  9  Y      0.39699     0.55154
             81  C  9  Z      0.52712     0.59701
             82  C 10  S      1.98832     1.97634
             83  C 10  S      0.35397     0.41373
             84  C 10  X      0.53663     0.51385
             85  C 10  Y      0.54451     0.51276
             86  C 10  Z      0.53901     0.50674
             87  C 10  S      1.12964     0.57550
             88  C 10  X      0.39876     0.54821
             89  C 10  Y      0.55875     0.60022
             90  C 10  Z      0.53554     0.59875
             91  C 11  S      1.98837     1.97633
             92  C 11  S      0.35387     0.41339
             93  C 11  X      0.54454     0.51383
             94  C 11  Y      0.53651     0.51314
             95  C 11  Z      0.54055     0.50847
             96  C 11  S      1.13159     0.57428
             97  C 11  X      0.54958     0.59679
             98  C 11  Y      0.40734     0.55113
             99  C 11  Z      0.53648     0.59856
            100  H 12  S      0.43387     0.44879
            101  H 12  S      0.19685     0.31295
            102  H 13  S      0.48021     0.49022
            103  H 13  S      0.33436     0.44774
            104  H 14  S      0.48376     0.49120
            105  H 14  S      0.32125     0.44425
            106  H 15  S      0.47042     0.47206
            107  H 15  S      0.30707     0.43239
            108  H 16  S      0.46506     0.47753
            109  H 16  S      0.32434     0.43786
            110  H 17  S      0.46931     0.47992
            111  H 17  S      0.30782     0.43049
            112  H 18  S      0.46743     0.47670
            113  H 18  S      0.29634     0.42705
            114  H 19  S      0.46497     0.47691
            115  H 19  S      0.31528     0.43432
            116  H 20  S      0.47176     0.47497
            117  H 20  S      0.32468     0.44058
            118  H 21  S      0.46806     0.46909
            119  H 21  S      0.31130     0.43343
            120  H 22  S      0.46247     0.46608
            121  H 22  S      0.32771     0.43887
            122  H 23  S      0.46299     0.46673
            123  H 23  S      0.33088     0.44041
            124  H 24  S      0.46364     0.46717
            125  H 24  S      0.33203     0.44163
            126  H 25  S      0.46333     0.46677
            127  H 25  S      0.33054     0.44095
            128  H 26  S      0.46744     0.46943
            129  H 26  S      0.32563     0.43863
            130  H 27  S      0.46331     0.46677
            131  H 27  S      0.32985     0.44015
            132  H 28  S      0.46423     0.46701
            133  H 28  S      0.32357     0.43869
            134  H 29  S      0.46688     0.46887
            135  H 29  S      0.32123     0.43645

          ----- MULLIKEN ATOMIC OVERLAP POPULATIONS -----
          (OFF-DIAGONAL ELEMENTS NEED TO BE MULTIPLIED BY 2)

             1           2           3           4           5

    1    8.3019578
    2    0.2231027   5.0552843
    3   -0.0493961   0.2722824   5.2604449
    4    0.0010073  -0.0708529   0.5526211   5.3782339
    5    0.0000420  -0.0072716  -0.0575380   0.2624941   5.4701821
    6   -0.0000025   0.0004122  -0.0007923  -0.0791518   0.2360131
    7   -0.0000000  -0.0000039   0.0000046   0.0044153  -0.0809833
    8   -0.0000000   0.0000005   0.0000004  -0.0000348   0.0010130
    9    0.0000000  -0.0000011   0.0000001   0.0000009   0.0001605
   10   -0.0000000  -0.0000000  -0.0000000   0.0000002  -0.0000431
   11   -0.0000073   0.0023378  -0.0720150   0.2708278  -0.0746841
   12    0.2645227  -0.0463512   0.0063827  -0.0001267   0.0000079
   13   -0.0365573   0.3635547  -0.0572378   0.0023835   0.0001315
   14   -0.0352547   0.3696347  -0.0583661   0.0021944  -0.0019576
   15    0.0014705  -0.0370723   0.4009960  -0.0466472   0.0021475
   16   -0.0000007   0.0000658   0.0016436  -0.0514363   0.3896458
   17   -0.0000417  -0.0013618  -0.0011765  -0.0423208   0.3866572
   18    0.0000512   0.0002053   0.0009321   0.0006062  -0.0425489
   19    0.0000001  -0.0000129   0.0002209  -0.0006357  -0.0503493
   20    0.0000000   0.0000000  -0.0000007  -0.0000653  -0.0005278
   21   -0.0000014   0.0000012  -0.0000026  -0.0000083   0.0000106
   22   -0.0000000   0.0000000   0.0000000   0.0000001  -0.0000081
   23   -0.0000000  -0.0000000   0.0000000  -0.0000004   0.0000155
   24    0.0000000  -0.0000000   0.0000000  -0.0000000   0.0000051
   25    0.0000000   0.0000000   0.0000000   0.0000000  -0.0000008
   26   -0.0000000   0.0000000  -0.0000000   0.0000000  -0.0000035
   27   -0.0000001  -0.0000647   0.0004478  -0.0511591  -0.0004999
   28    0.0000005  -0.0000482   0.0007358  -0.0505398  -0.0000509
   29   -0.0000007   0.0000945   0.0010715  -0.0475105   0.0026353

             6           7           8           9          10

    6    5.4650064
    7    0.2699556   5.2315497
    8   -0.0683053   0.5791302   5.3473368
    9   -0.0065350  -0.0559230   0.2680262   5.3390992
   10    0.0022032  -0.0733287   0.2781201  -0.0787255   5.3238402
   11    0.0007027  -0.0000841  -0.0000009   0.0000000   0.0000000
   12   -0.0000019   0.0000000  -0.0000000  -0.0000000   0.0000000
   13   -0.0000138   0.0000001  -0.0000000   0.0000000   0.0000000
   14    0.0001644  -0.0000124  -0.0000022   0.0000011   0.0000000
   15   -0.0000564   0.0000004  -0.0000000   0.0000000   0.0000000
   16   -0.0503347   0.0009651   0.0002155  -0.0000031  -0.0000027
   17   -0.0439687   0.0012465   0.0005106   0.0000626  -0.0000095
   18    0.3858662  -0.0434509   0.0011392  -0.0004321   0.0000618
   19    0.3864675  -0.0512347   0.0005301   0.0001740  -0.0000484
   20   -0.0413302   0.4037434  -0.0501745   0.0023572  -0.0028705
   21   -0.0002198  -0.0017202  -0.0417518   0.3815588   0.0024835
   22    0.0000970   0.0004034  -0.0523827   0.3766657  -0.0001350
   23    0.0001964   0.0005187  -0.0519887   0.3760222  -0.0002873
   24   -0.0000407   0.0006902  -0.0518980   0.0001876   0.3748338
   25   -0.0000582   0.0004390  -0.0516318   0.0004497   0.3747202
   26    0.0000999   0.0011271  -0.0473381   0.0026334   0.3843315
   27    0.0000006  -0.0000002   0.0000000  -0.0000000  -0.0000000
   28    0.0010316  -0.0000317   0.0000000   0.0000000  -0.0000000
   29   -0.0000398   0.0000008   0.0000000  -0.0000000   0.0000000

            11          12          13          14          15

   11    5.3282845
   12    0.0000007   0.4106950
   13   -0.0000583  -0.0036684   0.5908196
   14    0.0000716  -0.0007477  -0.0418345   0.5644863
   15   -0.0026479  -0.0000035  -0.0029645   0.0025537   0.4575783
   16   -0.0016323   0.0000001   0.0000043  -0.0000080  -0.0000479
   17    0.0023165   0.0000038   0.0000034   0.0041277   0.0000568
   18    0.0002284   0.0000021   0.0000059  -0.0000548  -0.0000108
   19    0.0005034   0.0000000   0.0000000  -0.0000033  -0.0000004
   20    0.0000079   0.0000000   0.0000000  -0.0000003  -0.0000000
   21    0.0000000   0.0000000  -0.0000001   0.0000140   0.0000000
   22   -0.0000000   0.0000000   0.0000000  -0.0000000   0.0000000
   23    0.0000000  -0.0000000  -0.0000000   0.0000006  -0.0000000
   24    0.0000000  -0.0000000  -0.0000000   0.0000000  -0.0000000
   25   -0.0000000   0.0000000   0.0000000  -0.0000000   0.0000000
   26   -0.0000000   0.0000000  -0.0000000  -0.0000000   0.0000000
   27    0.3738551   0.0000000   0.0000059   0.0000003   0.0000970
   28    0.3759026  -0.0000001  -0.0000008   0.0000010   0.0001022
   29    0.3849367   0.0000001  -0.0000025  -0.0000006   0.0019357

            16          17          18          19          20

   16    0.5195017
   17   -0.0247819   0.4941435
   18    0.0029451  -0.0015491   0.4769403
   19   -0.0010897   0.0030795  -0.0231381   0.5144367
   20    0.0019578   0.0002122   0.0020752  -0.0005607   0.4792693
   21   -0.0000011  -0.0000001   0.0040361  -0.0000238   0.0000562
   22    0.0000000   0.0000008  -0.0000590   0.0000189  -0.0000563
   23    0.0000001  -0.0000157  -0.0000230  -0.0000091  -0.0000532
   24   -0.0000000  -0.0000016   0.0000003  -0.0000011   0.0001091
   25    0.0000000   0.0000002   0.0000000   0.0000061   0.0001035
   26    0.0000012  -0.0000003   0.0000012  -0.0000030   0.0021827
   27    0.0021793  -0.0000327   0.0000044   0.0000304  -0.0000003
   28   -0.0004023   0.0000100  -0.0000622   0.0019085   0.0000036
   29    0.0000238  -0.0000429  -0.0000050  -0.0000170  -0.0000000

            21          22          23          24          25

   21    0.4813802
   22   -0.0230641   0.5178579
   23   -0.0232912  -0.0309054   0.5218637
   24   -0.0000239  -0.0003339   0.0021959   0.5249912
   25   -0.0000244   0.0021092  -0.0003444  -0.0317927   0.5230177
   26   -0.0000470  -0.0000271  -0.0000221  -0.0232567  -0.0231267
   27   -0.0000000   0.0000000  -0.0000000  -0.0000000   0.0000000
   28    0.0000001   0.0000000  -0.0000000  -0.0000000   0.0000000
   29    0.0000000   0.0000000  -0.0000000  -0.0000000   0.0000000

            26          27          28          29

   26    0.4965171
   27   -0.0000000   0.5219960
   28    0.0000000  -0.0305549   0.5128159
   29    0.0000000  -0.0231364  -0.0230228   0.4911827

          TOTAL MULLIKEN AND LOWDIN ATOMIC POPULATIONS
       ATOM         MULL.POP.    CHARGE          LOW.POP.     CHARGE
    1 O             8.670892   -0.670892         8.399640   -0.399640
    2 C             6.123935   -0.123935         5.967323    0.032677
    3 C             6.201259   -0.201259         6.142852   -0.142852
    4 C             6.034295   -0.034295         6.021667   -0.021667
    5 C             6.434694   -0.434694         6.151172   -0.151172
    6 C             6.457366   -0.457366         6.153120   -0.153120
    7 C             6.187417   -0.187417         6.129956   -0.129956
    8 C             6.060514   -0.060514         6.035991   -0.035991
    9 C             6.605780   -0.605780         6.253201   -0.253201
   10 C             6.585144   -0.585144         6.246094   -0.246094
   11 C             6.588846   -0.588846         6.245915   -0.245915
   12 H             0.630716    0.369284         0.761748    0.238252
   13 H             0.814571    0.185429         0.937964    0.062036
   14 H             0.805008    0.194992         0.935448    0.064552
   15 H             0.777487    0.222513         0.904450    0.095550
   16 H             0.789409    0.210591         0.915393    0.084607
   17 H             0.777128    0.222872         0.910408    0.089592
   18 H             0.763767    0.236233         0.903745    0.096255
   19 H             0.780249    0.219751         0.911232    0.088768
   20 H             0.796438    0.203562         0.915553    0.084447
   21 H             0.779361    0.220639         0.902521    0.097479
   22 H             0.790182    0.209818         0.904950    0.095050
   23 H             0.793873    0.206127         0.907139    0.092861
   24 H             0.795665    0.204335         0.908794    0.091206
   25 H             0.793867    0.206133         0.907724    0.092276
   26 H             0.793070    0.206930         0.908067    0.091933
   27 H             0.793168    0.206832         0.906919    0.093081
   28 H             0.787798    0.212202         0.905702    0.094298
   29 H             0.788103    0.211897         0.905311    0.094689

          -------------------------------
          BOND ORDER AND VALENCE ANALYSIS     BOND ORDER THRESHOLD=0.050
          -------------------------------

                   BOND                       BOND                       BOND
  ATOM PAIR DIST  ORDER      ATOM PAIR DIST  ORDER      ATOM PAIR DIST  ORDER
    1   2  1.441  0.857        1  12  0.966  0.818        2   3  1.499  0.948
    2  13  1.102  0.899        2  14  1.096  0.897        3   4  1.345  1.849
    3  15  1.090  0.936        4   5  1.517  0.931        4  11  1.512  0.942
    5   6  1.553  0.875        5  16  1.099  0.920        5  17  1.094  0.918
    6   7  1.506  0.942        6  18  1.094  0.913        6  19  1.099  0.911
    7   8  1.345  1.861        7  20  1.092  0.942        8   9  1.511  0.938
    8  10  1.512  0.943        9  21  1.092  0.922        9  22  1.098  0.916
    9  23  1.099  0.918       10  24  1.099  0.917       10  25  1.099  0.917
   10  26  1.094  0.933       11  27  1.099  0.916       11  28  1.097  0.914
   11  29  1.094  0.932

                       TOTAL       BONDED        FREE
      ATOM            VALENCE     VALENCE     VALENCE
    1 O                 1.713       1.713       0.000
    2 C                 3.582       3.582       0.000
    3 C                 3.705       3.705       0.000
    4 C                 3.627       3.627      -0.000
    5 C                 3.579       3.579      -0.000
    6 C                 3.582       3.582       0.000
    7 C                 3.709       3.709       0.000
    8 C                 3.653       3.653       0.000
    9 C                 3.657       3.657       0.000
   10 C                 3.664       3.664       0.000
   11 C                 3.660       3.660      -0.000
   12 H                 0.835       0.835       0.000
   13 H                 0.906       0.906       0.000
   14 H                 0.909       0.909       0.000
   15 H                 0.921       0.921       0.000
   16 H                 0.910       0.910       0.000
   17 H                 0.910       0.910       0.000
   18 H                 0.905       0.905       0.000
   19 H                 0.904       0.904       0.000
   20 H                 0.926       0.926       0.000
   21 H                 0.915       0.915      -0.000
   22 H                 0.911       0.911       0.000
   23 H                 0.912       0.912       0.000
   24 H                 0.912       0.912       0.000
   25 H                 0.912       0.912       0.000
   26 H                 0.920       0.920       0.000
   27 H                 0.911       0.911       0.000
   28 H                 0.911       0.911      -0.000
   29 H                 0.918       0.918       0.000

          ---------------------
          ELECTROSTATIC MOMENTS
          ---------------------

 POINT   1           X           Y           Z (BOHR)    CHARGE
                -0.048325    0.010748    0.046227        0.00 (A.U.)
         DX          DY          DZ         /D/  (DEBYE)
     0.496105    0.322019   -1.752084    1.849220
 ...... END OF PROPERTY EVALUATION ......
 CPU     0: STEP CPU TIME=     0.06 TOTAL CPU TIME=          3.4 (      0.1 MIN)
 TOTAL WALL CLOCK TIME=          9.6 SECONDS, CPU UTILIZATION IS    35.84%
               580000  WORDS OF DYNAMIC MEMORY USED
 EXECUTION OF GAMESS TERMINATED NORMALLY Mon May 25 19:23:44 2020
 DDI: 263640 bytes (0.3 MB / 0 MWords) used by master data server.
Note: The following floating-point exceptions are signalling: IEEE_DENORMALNote: The following floating-point exceptions are signalling: IEEE_DENORMAL
Note: The following floating-point exceptions are signalling: IEEE_DENORMAL
Note: The following floating-point exceptions are signalling: IEEE_DENORMALNote: The following floating-point exceptions are signalling: IEEE_DENORMAL


 ----------------------------------------
 CPU timing information for all processes
 ========================================
 0: 3.268 + 0.178 = 3.447
 1: 3.578 + 0.28 = 3.606
 2: 3.257 + 0.28 = 3.285
 3: 3.404 + 0.19 = 3.423
 4: 3.452 + 0.23 = 3.476
 5: 3.394 + 0.40 = 3.435
 ----------------------------------------
Note: The following floating-point exceptions are signalling:
 IEEE_DENORMAL
 ddikick.x: exited gracefully.
unset echo
----- accounting info -----
Files used on the master node pietdev were:
-rwxr-xr-x 1 piet piet     1249 mei 25 19:23 /home/piet/scr/nerol_fukui_neu.F05*
-rw-r--r-- 1 piet piet 49152000 mei 25 19:23 /home/piet/scr/nerol_fukui_neu.F10
ls: No match.
ls: No match.
ls: No match.
ma 25 mei 2020 19:23:47 CEST
0.126u 0.030s 0:12.88 1.1%	0+0k 0+8io 0pf+0w
