----- GAMESS execution script 'rungms' -----
This job is running on host pietdev
under operating system Linux at ma 25 mei 2020 19:22:12 CEST
Available scratch disk space (Kbyte units) at beginning of the job is
Filesystem     1K-blocks     Used Available Use% Mounted on
/dev/sda2      244568380 31071516 201003808  14% /
GAMESS temporary binary files will be written to /home/piet/scr
GAMESS supplementary output files will be written to /home/piet/gamess/scr
Copying input file nerol_charge_chelpg.inp to your run's scratch directory...
cp nerol_charge_chelpg.inp /home/piet/scr/nerol_charge_chelpg.F05
unset echo
 
Assuming a single but multicore node.
 
/home/piet/gamess/ddikick.x /home/piet/gamess/gamess.03.x nerol_charge_chelpg -ddi 1 6 pietdev:cpus=6 -scr /home/piet/scr

 Distributed Data Interface kickoff program.
 Initiating 6 compute processes on 1 nodes to run the following command:
 /home/piet/gamess/gamess.03.x nerol_charge_chelpg 

          ******************************************************
          *         GAMESS VERSION = 30 SEP 2019 (R2)          *
          *             FROM IOWA STATE UNIVERSITY             *
          * M.W.SCHMIDT, K.K.BALDRIDGE, J.A.BOATZ, S.T.ELBERT, *
          *   M.S.GORDON, J.H.JENSEN, S.KOSEKI, N.MATSUNAGA,   *
          *          K.A.NGUYEN, S.J.SU, T.L.WINDUS,           *
          *       TOGETHER WITH M.DUPUIS, J.A.MONTGOMERY       *
          *         J.COMPUT.CHEM.  14, 1347-1363(1993)        *
          **************** 64 BIT LINUX VERSION ****************

  SINCE 1993, STUDENTS AND POSTDOCS WORKING AT IOWA STATE UNIVERSITY
  AND ALSO IN THEIR VARIOUS JOBS AFTER LEAVING ISU HAVE MADE IMPORTANT
  CONTRIBUTIONS TO THE CODE:
     IVANA ADAMOVIC, CHRISTINE AIKENS, YURI ALEXEEV, POOJA ARORA,
     ANDREY ASADCHEV, ROB BELL, PRADIPTA BANDYOPADHYAY, JONATHAN BENTZ,
     COLLEEN BERTONI, BRETT BODE, KURT BRORSEN, CALEB CARLIN, GALINA CHABAN,
     WEI CHEN, CHEOL HO CHOI, PAUL DAY, ALBERT DEFUSCO, NUWAN DESILVA,
     TIM DUDLEY, DMITRI FEDOROV, ALEX FINDLATER, GRAHAM FLETCHER, 
     MARK FREITAG, KURT GLAESEMANN, EMILIE B GUIDEZ, ANASTASIA GUNINA, 
     DAN KEMP, SAROM SOK LEANG, GRANT MERRILL,
     NORIYUKI MINEZAWA, JONATHAN MULLIN,
     TAKESHI NAGATA, SEAN NEDD, HEATHER NETZLOFF, BOSILJKA NJEGIC, RYAN OLSON,
     MIKE PAK, BUU PHAM, DAVID POOLE,
     SPENCER PRUITT, LUKE ROSKOP, TOSAPORN SATTASATHUCHANA,
     JIM SHOEMAKER, LYUDMILA SLIPCHENKO,
     TONY SMITH, JIE SONG, TETSUYA TAKETSUGU, SIMON WEBB,
     JORGE LUIS GALVEZ VALLEJO, PENG XU, SOOHAENG YOO,
     FEDERICO ZAHARIEV

  ADDITIONAL CODE HAS BEEN PROVIDED BY COLLABORATORS IN OTHER GROUPS:
     IOWA STATE UNIVERSITY:
          JOE IVANIC, AARON WEST, LAIMUTIS BYTAUTAS, KLAUS RUEDENBERG
     UNIVERSITY OF TOKYO: KIMIHIKO HIRAO, TAKAHITO NAKAJIMA,
          TAKAO TSUNEDA, MUNEAKI KAMIYA, SUSUMU YANAGISAWA,
          KIYOSHI YAGI, MAHITO CHIBA, SEIKEN TOKURA, NAOAKI KAWAKAMI
     UNIVERSITY OF AARHUS: FRANK JENSEN
     UNIVERSITY OF IOWA: VISVALDAS KAIRYS, HUI LI
     NATIONAL INST. OF STANDARDS AND TECHNOLOGY: WALT STEVENS, DAVID GARMER
     UNIVERSITY OF PISA: BENEDETTA MENNUCCI, JACOPO TOMASI
     UNIVERSITY OF MEMPHIS: HENRY KURTZ, PRAKASHAN KORAMBATH
     UNIVERSITY OF ALBERTA: TOBY ZENG, MARIUSZ KLOBUKOWSKI
     UNIVERSITY OF NEW ENGLAND: MARK SPACKMAN
     MIE UNIVERSITY: HIROAKI UMEDA
     NAT. INST. OF ADVANCED INDUSTRIAL SCIENCE AND TECHNOLOGY: KAZUO KITAURA
     MICHIGAN STATE UNIVERSITY:
          KAROL KOWALSKI, MARTA WLOCH, JEFFREY GOUR, JESSE LUTZ,
          WEI LI, JUN SHEN, J. EMILIANO DEUSTUA, PIOTR PIECUCH
     UNIVERSITY OF MINNESOTA:
          ANDREW SAND, PRACHI SHARMA, YINAN SHU
     UNIVERSITY OF SILESIA: MONIKA MUSIAL, STANISLAW KUCHARSKI
     FACULTES UNIVERSITAIRES NOTRE-DAME DE LA PAIX:
          OLIVIER QUINET, BENOIT CHAMPAGNE
     UNIVERSITY OF CALIFORNIA - SANTA BARBARA: BERNARD KIRTMAN
     INSTITUTE FOR MOLECULAR SCIENCE:
          KAZUYA ISHIMURA, MICHIO KATOUDA, AND SHIGERU NAGASE
     UNIVERSITY OF NOTRE DAME: ANNA POMOGAEVA, DAN CHIPMAN
     KYUSHU UNIVERSITY:
          HARUYUKI NAKANO,
          FENG LONG GU, JACEK KORCHOWIEC, MARCIN MAKOWSKI, AND YURIKO AOKI,
          HIROTOSHI MORI AND EISAKU MIYOSHI
     PENNSYLVANIA STATE UNIVERSITY:
          TZVETELIN IORDANOV, CHET SWALINA, JONATHAN SKONE,
          SHARON HAMMES-SCHIFFER
     WASEDA UNIVERSITY:
          MASATO KOBAYASHI, TOMOKO AKAMA, TSUGUKI TOUMA,
          TAKESHI YOSHIKAWA, YASUHIRO IKABATA, JUNJI SEINO,
          YUYA NAKAJIMA, HIROMI NAKAI
     NANJING UNIVERSITY: SHUHUA LI
     UNIVERSITY OF NEBRASKA:
          PEIFENG SU, DEJUN SI, NANDUN THELLAMUREGE, YALI WANG, HUI LI
     UNIVERSITY OF ZURICH: ROBERTO PEVERATI, KIM BALDRIDGE
     N. COPERNICUS UNIVERSITY AND JACKSON STATE UNIVERSITY:
          MARIA BARYSZ
     UNIVERSITY OF COPENHAGEN: Jimmy Kromann, CASPER STEINMANN
     TOKYO INSTITUTE OF TECHNOLOGY: HIROYA NAKATA
     NAGOYA UNIVERSITY: YOSHIO NISHIMOTO, STEPHAN IRLE
     MOSCOW STATE UNIVERSITY: VLADIMIR MIRONOV
     A.N.NESMEYANOV INSTITUTE OF ORGANOELEMENT COMPOUNDS OF RUSSIAN ACADEMY OF SCIENCES:
          IGOR S. GERASIMOV
     JOHANNES KEPLER UNIVERSITY LINZ:
          CHRISTIAN FRIEDL


 PARALLEL VERSION RUNNING ON        6 PROCESSORS IN        1 NODES.

 EXECUTION OF GAMESS BEGUN Mon May 25 19:22:12 2020

            ECHO OF THE FIRST FEW INPUT CARDS -
 INPUT CARD> $BASIS GBASIS=N21 NGAUSS=3 $END                                                
 INPUT CARD> $CONTRL SCFTYP=RHF DFTTYP=B3LYP MAXIT=60 MULT=1 ICHARG=0 $END                  
 INPUT CARD> $SYSTEM MEMDDI=1000 MWORDS=30 $END                                             
 INPUT CARD> $SCF DIRSCF=.TRUE. $END                                                        
 INPUT CARD> $ELPOT  IEPOT=1 WHERE=PDC $END                                                 
 INPUT CARD> $PDC PTSEL=CHELPG CONSTR=CHARGE $END                                           
 INPUT CARD> $DATA                                                                          
 INPUT CARD>                                                                                
 INPUT CARD>C1                                                                              
 INPUT CARD>O 8.0000000 -2.52029 2.48217 0.42397                                            
 INPUT CARD>C 6.0000000 -2.45477 1.55258 -0.67516                                           
 INPUT CARD>C 6.0000000 -2.75856 0.18176 -0.15067                                           
 INPUT CARD>C 6.0000000 -1.94497 -0.88933 -0.12523                                          
 INPUT CARD>C 6.0000000 -0.51234 -0.89438 -0.62308                                          
 INPUT CARD>C 6.0000000 0.53133 -0.78642 0.52209                                            
 INPUT CARD>C 6.0000000 1.94372 -0.92199 0.01813                                            
 INPUT CARD>C 6.0000000 2.95467 -0.03832 0.09679                                            
 INPUT CARD>C 6.0000000 2.86642 1.32280 0.74618                                             
 INPUT CARD>C 6.0000000 4.31534 -0.36812 -0.47476                                           
 INPUT CARD>C 6.0000000 -2.43347 -2.20409 0.44011                                           
 INPUT CARD>H 1.0000000 -2.51047 3.38088 0.06861                                            
 INPUT CARD>H 1.0000000 -3.20532 1.82699 -1.43354                                           
 INPUT CARD>H 1.0000000 -1.46751 1.59759 -1.15009                                           
 INPUT CARD>H 1.0000000 -3.76117 0.07749 0.26379                                            
 INPUT CARD>H 1.0000000 -0.33076 -1.82766 -1.17497                                          
 INPUT CARD>H 1.0000000 -0.33187 -0.08102 -1.33143                                          
 INPUT CARD>H 1.0000000 0.37597 0.15839 1.05070                                             
 INPUT CARD>H 1.0000000 0.33781 -1.58446 1.25274                                            
 INPUT CARD>H 1.0000000 2.15368 -1.87207 -0.47863                                           
 INPUT CARD>H 1.0000000 1.87519 1.55348 1.14104                                             
 INPUT CARD>H 1.0000000 3.58534 1.39874 1.57313                                             
 INPUT CARD>H 1.0000000 3.13580 2.10918 0.02802                                             
 INPUT CARD>H 1.0000000 4.61440 0.36959 -1.23206                                            
 INPUT CARD>H 1.0000000 5.08767 -0.34297 0.30640                                            
 INPUT CARD>H 1.0000000 4.33353 -1.35866 -0.93897                                           
 INPUT CARD>H 1.0000000 -2.43390 -2.98463 -0.33293                                          
 INPUT CARD>H 1.0000000 -1.77792 -2.56016 1.24479                                           
 INPUT CARD>H 1.0000000 -3.44754 -2.12234 0.84213                                           
 INPUT CARD> $END                                                                           
   30000000 WORDS OF MEMORY AVAILABLE

     BASIS OPTIONS
     -------------
     GBASIS=N21          IGAUSS=       3      POLAR=NONE    
     NDFUNC=       0     NFFUNC=       0     DIFFSP=       F
     NPFUNC=       0      DIFFS=       F     BASNAM=        


     RUN TITLE
     ---------
                                                                                 

 THE POINT GROUP OF THE MOLECULE IS C1      
 THE ORDER OF THE PRINCIPAL AXIS IS     0

 ATOM      ATOMIC                      COORDINATES (BOHR)
           CHARGE         X                   Y                   Z
 O           8.0    -4.7626575096        4.6906211549        0.8011871270
 C           6.0    -4.6388426629        2.9339507740       -1.2758673979
 C           6.0    -5.2129225207        0.3434765955       -0.2847250146
 C           6.0    -3.6754603543       -1.6805900127       -0.2366503854
 C           6.0    -0.9681822125       -1.6901331289       -1.1774504684
 C           6.0     1.0040681091       -1.4861183113        0.9866070409
 C           6.0     3.6730981969       -1.7423084634        0.0342607322
 C           6.0     5.5835166841       -0.0724142998        0.1829065784
 C           6.0     5.4167483657        2.4997295366        1.4100757375
 C           6.0     8.1548101439       -0.6956459306       -0.8971663099
 C           6.0    -4.5985914993       -4.1651261523        0.8316873045
 H           1.0    -4.7441004004        6.3889367974        0.1296541000
 H           1.0    -6.0571765030        3.4525104823       -2.7089977924
 H           1.0    -2.7731917842        3.0190073407       -2.1733549612
 H           1.0    -7.1075806932        0.1464348668        0.4984908183
 H           1.0    -0.6250457677       -3.4537765987       -2.2203713438
 H           1.0    -0.6271433635       -0.1531055995       -2.5160378718
 H           1.0     0.7104802796        0.2993136992        1.9855350953
 H           1.0     0.6383683359       -2.9941952385        2.3673353339
 H           1.0     4.0698650652       -3.5376993298       -0.9044795495
 H           1.0     3.5435952749        2.9356515274        2.1562529410
 H           1.0     6.7753101728        2.6432353281        2.9727846431
 H           1.0     5.9258027523        3.9857722588        0.0529501222
 H           1.0     8.7199515977        0.6984238278       -2.3282558004
 H           1.0     9.6143022160       -0.6481193220        0.5790120426
 H           1.0     8.1891842596       -2.5674951105       -1.7743960107
 H           1.0    -4.5994040815       -5.6401328747       -0.6291464731
 H           1.0    -3.3597816281       -4.8380008847        2.3523120123
 H           1.0    -6.5149059317       -4.0106410528        1.5913949460

          INTERNUCLEAR DISTANCES (ANGS.)
          ------------------------------

                1 O          2 C          3 C          4 C          5 C     

   1 O       0.0000000    1.4410126 *  2.3830380 *  3.4640476    4.0656201  
   2 C       1.4410126 *  0.0000000    1.4988414 *  2.5544556 *  3.1246376  
   3 C       2.3830380 *  1.4988414 *  0.0000000    1.3452917 *  2.5351041 *
   4 C       3.4640476    2.5544556 *  1.3452917 *  0.0000000    1.5166769 *
   5 C       4.0656201    3.1246376    2.5351041 *  1.5166769 *  0.0000000  
   6 C       4.4727724    3.9775774    3.4947610    2.5615767 *  1.5531635 *
   7 C       5.6285342    5.0941989    4.8330316    3.8914687    2.5385317 *
   8 C       6.0361497    5.6911256    5.7228200    4.9779497    3.6429672  
   9 C       5.5194749    5.5125375    5.8091920    5.3667819    4.2669403  
  10 C       7.4604093    7.0401447    7.1026378    6.2916860    4.8585433  
  11 C       4.6870920    3.9187817    2.4793113 *  1.5122286 *  2.5566489 *
  12 H       0.9664662 *  1.9745828 *  3.2162091    4.3118508    4.7695709  
  13 H       2.0853945 *  1.1017107 *  2.1335725 *  3.2678053    3.9134181  
  14 H       2.0900939 *  1.0964792 *  2.1610703 *  2.7318633 *  2.7202948 *
  15 H       2.7107059 *  2.1827044 *  1.0898973 *  2.0939580 *  3.5051342  
  16 H       5.0916879    4.0233383    3.3137852    2.1419830 *  1.0993477 *
  17 H       3.8000729    2.7579057 *  2.7114704 *  2.1703399 *  1.0935646 *
  18 H       3.7657756    3.5965883    3.3569502    2.8048692 *  2.1677082 *
  19 H       5.0391542    4.6212900    3.8310051    2.7555565 *  2.1720189 *
  20 H       6.4513633    5.7449685    5.3344051    4.2296101    2.8433090 *
  21 H       4.5493845    4.6954379    5.0021765    4.7079064    3.8476535  
  22 H       6.3065923    6.4468134    6.6856259    6.2212555    5.1838903  
  23 H       5.6821873    5.6620437    6.2040598    5.9015906    4.7701393  
  24 H       7.6229411    7.1890728    7.4542084    6.7701763    5.3152554  
  25 H       8.1164213    7.8386843    7.8770286    7.0670248    5.7033410  
  26 H       7.9739845    7.3909357    7.3001405    6.3483861    4.8782987  
  27 H       5.5196253    4.5501463    3.1882046    2.1615906 *  2.8540716 *
  28 H       5.1623590    4.5890047    3.2291003    2.1671487 *  2.8045417 *
  29 H       4.7155236    4.0979017    2.6017729 *  2.1711323 *  3.5028738  

                6 C          7 C          8 C          9 C         10 C     

   1 O       4.4727724    5.6285342    6.0361497    5.5194749    7.4604093  
   2 C       3.9775774    5.0941989    5.6911256    5.5125375    7.0401447  
   3 C       3.4947610    4.8330316    5.7228200    5.8091920    7.1026378  
   4 C       2.5615767 *  3.8914687    4.9779497    5.3667819    6.2916860  
   5 C       1.5531635 *  2.5385317 *  3.6429672    4.2669403    4.8585433  
   6 C       0.0000000    1.5057226 *  2.5715969 *  3.1546269    3.9354055  
   7 C       1.5057226 *  0.0000000    1.3450204 *  2.5338734 *  2.4848127 *
   8 C       2.5715969 *  1.3450204 *  0.0000000    1.5106764 *  1.5122369 *
   9 C       3.1546269    2.5338734 *  1.5106764 *  0.0000000    2.5395421 *
  10 C       3.9354055    2.4848127 *  1.5122369 *  2.5395421 *  0.0000000  
  11 C       3.2873314    4.5805720    5.8172572    6.3734972    7.0536664  
  12 H       5.1792452    6.1933066    6.4466641    5.7970458    7.8065315  
  13 H       4.9615475    6.0147194    6.6156457    6.4708124    7.8929142  
  14 H       3.5320038    4.3988080    4.8771495    4.7385967    6.1450338  
  15 H       4.3861846    5.7969888    6.7189142    6.7608022    8.1224404  
  16 H       2.1696526 *  2.7234142 *  3.9513493    4.8824354    4.9200403  
  17 H       2.1629239 *  2.7761219 *  3.5837105    4.0640168    4.7342233  
  18 H       1.0937235 *  2.1659321 *  2.7565074 *  2.7660304 *  4.2570972  
  19 H       1.0991666 *  2.1312145 *  3.2518803    3.8862105    4.5038299  
  20 H       2.1936490 *  1.0924769 *  2.0821461 *  3.4950468    2.6333732 *
  21 H       2.7684275 *  2.7191129 *  2.1885069 *  1.0916339 *  3.5010981  
  22 H       3.8995623    3.2401742    2.1546382 *  1.0983893 *  2.8015260 *
  23 H       3.9257953    3.2571681    2.1562221 *  1.0985048 *  2.7894655 *
  24 H       4.5918256    3.2192679    2.1649334 *  2.8066843 *  1.0987066 *
  25 H       4.5829471    3.2097952    2.1648180 *  2.8110759 *  1.0987889 *
  26 H       4.1132566    2.6111134 *  2.1719465 *  3.4903252    1.0940710 *
  27 H       3.7889016    4.8519361    6.1564672    6.9146094    7.2400608  
  28 H       3.0001807    4.2472226    5.4840668    6.0741982    6.6999783  
  29 H       4.2093366    5.5843980    6.7739917    7.1933502    8.0668329  

               11 C         12 H         13 H         14 H         15 H     

   1 O       4.6870920    0.9664662 *  2.0853945 *  2.0900939 *  2.7107059 *
   2 C       3.9187817    1.9745828 *  1.1017107 *  1.0964792 *  2.1827044 *
   3 C       2.4793113 *  3.2162091    2.1335725 *  2.1610703 *  1.0898973 *
   4 C       1.5122286 *  4.3118508    3.2678053    2.7318633 *  2.0939580 *
   5 C       2.5566489 *  4.7695709    3.9134181    2.7202948 *  3.5051342  
   6 C       3.2873314    5.1792452    4.9615475    3.5320038    4.3861846  
   7 C       4.5805720    6.1933066    6.0147194    4.3988080    5.7969888  
   8 C       5.8172572    6.4466641    6.6156457    4.8771495    6.7189142  
   9 C       6.3734972    5.7970458    6.4708124    4.7385967    6.7608022  
  10 C       7.0536664    7.8065315    7.8929142    6.1450338    8.1224404  
  11 C       0.0000000    5.5978417    4.5117538    4.2325625    2.6456537 *
  12 H       5.5978417    0.0000000    2.2702082 *  2.3985659 *  3.5376166  
  13 H       4.5117538    2.2702082 *  0.0000000    1.7756553 *  2.5001297 *
  14 H       4.2325625    2.3985659 *  1.7756553 *  0.0000000    3.0936446  
  15 H       2.6456537 *  3.5376166    2.5001297 *  3.0936446    0.0000000  
  16 H       2.6779791 *  5.7815669    4.6568681    3.6090383    4.1793946  
  17 H       3.4731114    4.3233276    3.4507454    2.0347712 *  3.7854921  
  18 H       3.7211672    4.4362685    4.6670454    3.2114159    4.2120897  
  19 H       2.9536929 *  5.8454653    5.6042717    4.3770098    4.5322993  
  20 H       4.6900177    7.0460805    6.5813205    5.0598830    6.2719552  
  21 H       5.7597905    4.8706786    5.7021796    4.0527603    5.8920852  
  22 H       7.1056451    6.5841749    7.4388525    5.7434103    7.5783430  
  23 H       7.0562656    5.7878522    6.5134930    4.7791349    7.1938548  
  24 H       7.6871616    7.8436842    7.9569234    6.2051859    8.5131112  
  25 H       7.7491414    8.4649474    8.7469881    6.9898155    8.8589261  
  26 H       6.9576506    8.3856301    8.1992210    6.5142959    8.3086296  
  27 H       1.0985598 *  6.3786217    4.9958101    4.7537775    3.3903244  
  28 H       1.0972883 *  6.1004906    5.3346047    4.8081899    3.4427952  
  29 H       1.0939109 *  5.6357665    4.5644881    4.6612593    2.2961039 *

               16 H         17 H         18 H         19 H         20 H     

   1 O       5.0916879    3.8000729    3.7657756    5.0391542    6.4513633  
   2 C       4.0233383    2.7579057 *  3.5965883    4.6212900    5.7449685  
   3 C       3.3137852    2.7114704 *  3.3569502    3.8310051    5.3344051  
   4 C       2.1419830 *  2.1703399 *  2.8048692 *  2.7555565 *  4.2296101  
   5 C       1.0993477 *  1.0935646 *  2.1677082 *  2.1720189 *  2.8433090 *
   6 C       2.1696526 *  2.1629239 *  1.0937235 *  1.0991666 *  2.1936490 *
   7 C       2.7234142 *  2.7761219 *  2.1659321 *  2.1312145 *  1.0924769 *
   8 C       3.9513493    3.5837105    2.7565074 *  3.2518803    2.0821461 *
   9 C       4.8824354    4.0640168    2.7660304 *  3.8862105    3.4950468  
  10 C       4.9200403    4.7342233    4.2570972    4.5038299    2.6333732 *
  11 C       2.6779791 *  3.4731114    3.7211672    2.9536929 *  4.6900177  
  12 H       5.7815669    4.3233276    4.4362685    5.8454653    7.0460805  
  13 H       4.6568681    3.4507454    4.6670454    5.6042717    6.5813205  
  14 H       3.6090383    2.0347712 *  3.2114159    4.3770098    5.0598830  
  15 H       4.1793946    3.7854921    4.2120897    4.5322993    6.2719552  
  16 H       0.0000000    1.7536340 *  3.0655291    2.5298039 *  2.5805627 *
  17 H       1.7536340 *  0.0000000    2.4965772 *  3.0637783    3.1801080  
  18 H       3.0655291    2.4965772 *  0.0000000    1.7549366 *  3.1019141  
  19 H       2.5298039 *  3.0637783    1.7549366 *  0.0000000    2.5254199 *
  20 H       2.5805627 *  3.1801080    3.1019141    2.5254199 *  0.0000000  
  21 H       4.6542696    3.6953771    2.0499020 *  3.4960952    3.7993789  
  22 H       5.7704029    5.0961449    3.4801519    4.4213780    4.1179567  
  23 H       5.3817221    4.3208582    3.5310222    4.7928763    4.1317799  
  24 H       5.4116332    4.9677470    4.8187019    5.3180602    3.4128931  
  25 H       5.8101760    5.6676731    4.7964009    4.9998027    3.4003994  
  26 H       4.6937467    4.8530759    4.6821479    4.5629329    2.2863177 *
  27 H       2.5437784 *  3.7210863    4.4371586    3.4867179    4.7228073  
  28 H       2.9130854 *  3.8566962    3.4738203    2.3298856 *  4.3475422  
  29 H       3.7242243    4.3126268    4.4569563    3.8453596    5.7602697  

               21 H         22 H         23 H         24 H         25 H     

   1 O       4.5493845    6.3065923    5.6821873    7.6229411    8.1164213  
   2 C       4.6954379    6.4468134    5.6620437    7.1890728    7.8386843  
   3 C       5.0021765    6.6856259    6.2040598    7.4542084    7.8770286  
   4 C       4.7079064    6.2212555    5.9015906    6.7701763    7.0670248  
   5 C       3.8476535    5.1838903    4.7701393    5.3152554    5.7033410  
   6 C       2.7684275 *  3.8995623    3.9257953    4.5918256    4.5829471  
   7 C       2.7191129 *  3.2401742    3.2571681    3.2192679    3.2097952  
   8 C       2.1885069 *  2.1546382 *  2.1562221 *  2.1649334 *  2.1648180 *
   9 C       1.0916339 *  1.0983893 *  1.0985048 *  2.8066843 *  2.8110759 *
  10 C       3.5010981    2.8015260 *  2.7894655 *  1.0987066 *  1.0987889 *
  11 C       5.7597905    7.1056451    7.0562656    7.6871616    7.7491414  
  12 H       4.8706786    6.5841749    5.7878522    7.8436842    8.4649474  
  13 H       5.7021796    7.4388525    6.5134930    7.9569234    8.7469881  
  14 H       4.0527603    5.7434103    4.7791349    6.2051859    6.9898155  
  15 H       5.8920852    7.5783430    7.1938548    8.5131112    8.8589261  
  16 H       4.6542696    5.7704029    5.3817221    5.4116332    5.8101760  
  17 H       3.6953771    5.0961449    4.3208582    4.9677470    5.6676731  
  18 H       2.0499020 *  3.4801519    3.5310222    4.8187019    4.7964009  
  19 H       3.4960952    4.4213780    4.7928763    5.3180602    4.9998027  
  20 H       3.7993789    4.1179567    4.1317799    3.4128931    3.4003994  
  21 H       0.0000000    1.7706663 *  1.7710882 *  3.8126724    3.8227182  
  22 H       1.7706663 *  0.0000000    1.7590270 *  3.1602540    2.6258625 *
  23 H       1.7710882 *  1.7590270 *  0.0000000    2.6077256 *  3.1464792  
  24 H       3.8126724    3.1602540    2.6077256 *  0.0000000    1.7602799 *
  25 H       3.8227182    2.6258625 *  3.1464792    1.7602799 *  0.0000000  
  26 H       4.3417089    3.8044302    3.7941456    1.7752853 *  1.7751901 *
  27 H       6.4292524    7.6862375    7.5563710    7.8573379    7.9975700  
  28 H       5.5025458    6.6742231    6.8867924    7.4551979    7.2754954  
  29 H       6.4755274    7.8989725    7.8682210    8.6894681    8.7351574  

               26 H         27 H         28 H         29 H     

   1 O       7.9739845    5.5196253    5.1623590    4.7155236  
   2 C       7.3909357    4.5501463    4.5890047    4.0979017  
   3 C       7.3001405    3.1882046    3.2291003    2.6017729 *
   4 C       6.3483861    2.1615906 *  2.1671487 *  2.1711323 *
   5 C       4.8782987    2.8540716 *  2.8045417 *  3.5028738  
   6 C       4.1132566    3.7889016    3.0001807    4.2093366  
   7 C       2.6111134 *  4.8519361    4.2472226    5.5843980  
   8 C       2.1719465 *  6.1564672    5.4840668    6.7739917  
   9 C       3.4903252    6.9146094    6.0741982    7.1933502  
  10 C       1.0940710 *  7.2400608    6.6999783    8.0668329  
  11 C       6.9576506    1.0985598 *  1.0972883 *  1.0939109 *
  12 H       8.3856301    6.3786217    6.1004906    5.6357665  
  13 H       8.1992210    4.9958101    5.3346047    4.5644881  
  14 H       6.5142959    4.7537775    4.8081899    4.6612593  
  15 H       8.3086296    3.3903244    3.4427952    2.2961039 *
  16 H       4.6937467    2.5437784 *  2.9130854 *  3.7242243  
  17 H       4.8530759    3.7210863    3.8566962    4.3126268  
  18 H       4.6821479    4.4371586    3.4738203    4.4569563  
  19 H       4.5629329    3.4867179    2.3298856 *  3.8453596  
  20 H       2.2863177 *  4.7228073    4.3475422    5.7602697  
  21 H       4.3417089    6.4292524    5.5025458    6.4755274  
  22 H       3.8044302    7.6862375    6.6742231    7.8989725  
  23 H       3.7941456    7.5563710    6.8867924    7.8682210  
  24 H       1.7752853 *  7.8573379    7.4551979    8.6894681  
  25 H       1.7751901 *  7.9975700    7.2754954    8.7351574  
  26 H       0.0000000    6.9863561    6.6001690    8.0187639  
  27 H       6.9863561    0.0000000    1.7605922 *  1.7753242 *
  28 H       6.6001690    1.7605922 *  0.0000000    1.7724143 *
  29 H       8.0187639    1.7753242 *  1.7724143 *  0.0000000  

  * ... LESS THAN  3.000


     ATOMIC BASIS SET
     ----------------
 THE CONTRACTED PRIMITIVE FUNCTIONS HAVE BEEN UNNORMALIZED
 THE CONTRACTED BASIS FUNCTIONS ARE NOW NORMALIZED TO UNITY

  SHELL TYPE  PRIMITIVE        EXPONENT          CONTRACTION COEFFICIENT(S)

 O         

      1   S       1           322.0370000    0.059239393389
      1   S       2            48.4308000    0.351499960776
      1   S       3            10.4206000    0.707657921031

      2   L       4             7.4029400   -0.404453583190    0.244586106967
      2   L       5             1.5762000    1.221561761397    0.853955373466

      3   L       6             0.3736840    1.000000000000    1.000000000000

 C         

      4   S       7           172.2560000    0.061766907377
      4   S       8            25.9109000    0.358794042852
      4   S       9             5.5333500    0.700713083689

      5   L      10             3.6649800   -0.395895162119    0.236459946619
      5   L      11             0.7705450    1.215834355681    0.860618805716

      6   L      12             0.1958570    1.000000000000    1.000000000000

 C         

      7   S      13           172.2560000    0.061766907377
      7   S      14            25.9109000    0.358794042852
      7   S      15             5.5333500    0.700713083689

      8   L      16             3.6649800   -0.395895162119    0.236459946619
      8   L      17             0.7705450    1.215834355681    0.860618805716

      9   L      18             0.1958570    1.000000000000    1.000000000000

 C         

     10   S      19           172.2560000    0.061766907377
     10   S      20            25.9109000    0.358794042852
     10   S      21             5.5333500    0.700713083689

     11   L      22             3.6649800   -0.395895162119    0.236459946619
     11   L      23             0.7705450    1.215834355681    0.860618805716

     12   L      24             0.1958570    1.000000000000    1.000000000000

 C         

     13   S      25           172.2560000    0.061766907377
     13   S      26            25.9109000    0.358794042852
     13   S      27             5.5333500    0.700713083689

     14   L      28             3.6649800   -0.395895162119    0.236459946619
     14   L      29             0.7705450    1.215834355681    0.860618805716

     15   L      30             0.1958570    1.000000000000    1.000000000000

 C         

     16   S      31           172.2560000    0.061766907377
     16   S      32            25.9109000    0.358794042852
     16   S      33             5.5333500    0.700713083689

     17   L      34             3.6649800   -0.395895162119    0.236459946619
     17   L      35             0.7705450    1.215834355681    0.860618805716

     18   L      36             0.1958570    1.000000000000    1.000000000000

 C         

     19   S      37           172.2560000    0.061766907377
     19   S      38            25.9109000    0.358794042852
     19   S      39             5.5333500    0.700713083689

     20   L      40             3.6649800   -0.395895162119    0.236459946619
     20   L      41             0.7705450    1.215834355681    0.860618805716

     21   L      42             0.1958570    1.000000000000    1.000000000000

 C         

     22   S      43           172.2560000    0.061766907377
     22   S      44            25.9109000    0.358794042852
     22   S      45             5.5333500    0.700713083689

     23   L      46             3.6649800   -0.395895162119    0.236459946619
     23   L      47             0.7705450    1.215834355681    0.860618805716

     24   L      48             0.1958570    1.000000000000    1.000000000000

 C         

     25   S      49           172.2560000    0.061766907377
     25   S      50            25.9109000    0.358794042852
     25   S      51             5.5333500    0.700713083689

     26   L      52             3.6649800   -0.395895162119    0.236459946619
     26   L      53             0.7705450    1.215834355681    0.860618805716

     27   L      54             0.1958570    1.000000000000    1.000000000000

 C         

     28   S      55           172.2560000    0.061766907377
     28   S      56            25.9109000    0.358794042852
     28   S      57             5.5333500    0.700713083689

     29   L      58             3.6649800   -0.395895162119    0.236459946619
     29   L      59             0.7705450    1.215834355681    0.860618805716

     30   L      60             0.1958570    1.000000000000    1.000000000000

 C         

     31   S      61           172.2560000    0.061766907377
     31   S      62            25.9109000    0.358794042852
     31   S      63             5.5333500    0.700713083689

     32   L      64             3.6649800   -0.395895162119    0.236459946619
     32   L      65             0.7705450    1.215834355681    0.860618805716

     33   L      66             0.1958570    1.000000000000    1.000000000000

 H         

     34   S      67             5.4471780    0.156284978695
     34   S      68             0.8245472    0.904690876670

     35   S      69             0.1831916    1.000000000000

 H         

     36   S      70             5.4471780    0.156284978695
     36   S      71             0.8245472    0.904690876670

     37   S      72             0.1831916    1.000000000000

 H         

     38   S      73             5.4471780    0.156284978695
     38   S      74             0.8245472    0.904690876670

     39   S      75             0.1831916    1.000000000000

 H         

     40   S      76             5.4471780    0.156284978695
     40   S      77             0.8245472    0.904690876670

     41   S      78             0.1831916    1.000000000000

 H         

     42   S      79             5.4471780    0.156284978695
     42   S      80             0.8245472    0.904690876670

     43   S      81             0.1831916    1.000000000000

 H         

     44   S      82             5.4471780    0.156284978695
     44   S      83             0.8245472    0.904690876670

     45   S      84             0.1831916    1.000000000000

 H         

     46   S      85             5.4471780    0.156284978695
     46   S      86             0.8245472    0.904690876670

     47   S      87             0.1831916    1.000000000000

 H         

     48   S      88             5.4471780    0.156284978695
     48   S      89             0.8245472    0.904690876670

     49   S      90             0.1831916    1.000000000000

 H         

     50   S      91             5.4471780    0.156284978695
     50   S      92             0.8245472    0.904690876670

     51   S      93             0.1831916    1.000000000000

 H         

     52   S      94             5.4471780    0.156284978695
     52   S      95             0.8245472    0.904690876670

     53   S      96             0.1831916    1.000000000000

 H         

     54   S      97             5.4471780    0.156284978695
     54   S      98             0.8245472    0.904690876670

     55   S      99             0.1831916    1.000000000000

 H         

     56   S     100             5.4471780    0.156284978695
     56   S     101             0.8245472    0.904690876670

     57   S     102             0.1831916    1.000000000000

 H         

     58   S     103             5.4471780    0.156284978695
     58   S     104             0.8245472    0.904690876670

     59   S     105             0.1831916    1.000000000000

 H         

     60   S     106             5.4471780    0.156284978695
     60   S     107             0.8245472    0.904690876670

     61   S     108             0.1831916    1.000000000000

 H         

     62   S     109             5.4471780    0.156284978695
     62   S     110             0.8245472    0.904690876670

     63   S     111             0.1831916    1.000000000000

 H         

     64   S     112             5.4471780    0.156284978695
     64   S     113             0.8245472    0.904690876670

     65   S     114             0.1831916    1.000000000000

 H         

     66   S     115             5.4471780    0.156284978695
     66   S     116             0.8245472    0.904690876670

     67   S     117             0.1831916    1.000000000000

 H         

     68   S     118             5.4471780    0.156284978695
     68   S     119             0.8245472    0.904690876670

     69   S     120             0.1831916    1.000000000000

 TOTAL NUMBER OF BASIS SET SHELLS             =   69
 NUMBER OF CARTESIAN GAUSSIAN BASIS FUNCTIONS =  135
 NUMBER OF ELECTRONS                          =   86
 CHARGE OF MOLECULE                           =    0
 SPIN MULTIPLICITY                            =    1
 NUMBER OF OCCUPIED ORBITALS (ALPHA)          =   43
 NUMBER OF OCCUPIED ORBITALS (BETA )          =   43
 TOTAL NUMBER OF ATOMS                        =   29
 THE NUCLEAR REPULSION ENERGY IS      598.1739947073

 SELECTED MURRAY-HANDY-LAMING RADIAL GRID

 LEGACY BECKE'S FUZZY CELL METHOD

 SELECTED ORIGINAL BECKE'S PARTITION FUNCTION

     LEBEDEV GRID-BASED DFT OPTIONS
     ------------------------------
     DFTTYP=B3LYP   
     NRAD  =      96     NLEB  =     302
     NRAD0 =      24     NLEB0 =     110
     SWOFF =    5.00E-03 (PURE SCF -> DFT)
     SWITCH=    3.00E-04 (COARSE -> TIGHT GRID)
     THRESH=    0.00E+00 GTHRE=    1.00E+00

 GRIMME'S EMPIRICAL DISPERSION CORRECTION= F

     $CONTRL OPTIONS
     ---------------
 SCFTYP=RHF          RUNTYP=ENERGY       EXETYP=RUN     
 MPLEVL=       0     CITYP =NONE         CCTYP =NONE         VBTYP =NONE    
 DFTTYP=B3LYP        TDDFT =NONE    
 MULT  =       1     ICHARG=       0     NZVAR =       0     COORD =UNIQUE  
 PP    =NONE         RELWFN=NONE         LOCAL =NONE         NUMGRD=       F
 ISPHER=      -1     NOSYM =       0     MAXIT =      60     UNITS =ANGS    
 PLTORB=       F     MOLPLT=       F     AIMPAC=       F     FRIEND=        
 NPRINT=       7     IREST =       0     GEOM  =INPUT   
 NORMF =       0     NORMP =       0     ITOL  =      20     ICUT  =       9
 INTTYP=BEST         GRDTYP=BEST         QMTTOL= 1.0E-06

     $SYSTEM OPTIONS
     ---------------
  REPLICATED MEMORY=    30000000 WORDS (ON EVERY NODE).
 DISTRIBUTED MEMDDI=        1000 MILLION WORDS IN AGGREGATE,
 MEMDDI DISTRIBUTED OVER   6 PROCESSORS IS   166666666 WORDS/PROCESSOR.
 TOTAL MEMORY REQUESTED ON EACH PROCESSOR=   196666666 WORDS.
 TIMLIM=      525600.00 MINUTES, OR     365.0 DAYS.
 PARALL= T  BALTYP=  DLB     KDIAG=    0  COREFL= F
 MXSEQ2=     300 MXSEQ3=     150  mem10=         0

     INPUT FOR POTENTIAL-DERIVED CHARGES 
     -----------------------------------
     VDWSCL=    1.00   RMAX=    3.00   DELR=    0.80
     VDWINC=    0.20 PTDENS=    0.28
     LAYER =       4  NFREQ=      30 MAXPDC=   10000
     CONSTR=CHARGE    UNITS=ANGS      PTSEL=CHELPG  
     CENTER=  0.0000  0.0000  0.0000
     DPOLE =  0.0000  0.0000  0.0000
     QPOLE =  0.0000  0.0000  0.0000  0.0000  0.0000  0.0000


          ----------------
          PROPERTIES INPUT
          ----------------

     MOMENTS            FIELD           POTENTIAL          DENSITY
 IEMOM =       1   IEFLD =       0   IEPOT =       1   IEDEN =       0
 WHERE =COMASS     WHERE =NUCLEI     WHERE =PDC        WHERE =NUCLEI  
 OUTPUT=BOTH       OUTPUT=BOTH       OUTPUT=BOTH       OUTPUT=BOTH    
 IEMINT=       0   IEFINT=       0                     IEDINT=       0
                                                       MORB  =       0
          EXTRAPOLATION IN EFFECT
          DIIS IN EFFECT
 ORBITAL PRINTING OPTION: NPREO=     1   135     2     1

     -------------------------------
     INTEGRAL TRANSFORMATION OPTIONS
     -------------------------------
     NWORD  =            0
     CUTOFF = 1.0E-09     MPTRAN =       0
     DIRTRF =       T     AOINTS =DUP     

          ----------------------
          INTEGRAL INPUT OPTIONS
          ----------------------
 NOPK  =       1 NORDER=       0 SCHWRZ=       T

     ------------------------------------------
     THE POINT GROUP IS C1 , NAXIS= 0, ORDER= 1
     ------------------------------------------

     DIMENSIONS OF THE SYMMETRY SUBSPACES ARE
 A   =  135

 ..... DONE SETTING UP THE RUN .....
 CPU     0: STEP CPU TIME=     0.02 TOTAL CPU TIME=          0.0 (      0.0 MIN)
 TOTAL WALL CLOCK TIME=          0.0 SECONDS, CPU UTILIZATION IS    50.00%

          ********************
          1 ELECTRON INTEGRALS
          ********************
 ...... END OF ONE-ELECTRON INTEGRALS ......
 CPU     0: STEP CPU TIME=     0.01 TOTAL CPU TIME=          0.0 (      0.0 MIN)
 TOTAL WALL CLOCK TIME=          0.1 SECONDS, CPU UTILIZATION IS    60.00%

          -------------
          GUESS OPTIONS
          -------------
          GUESS =HUCKEL            NORB  =       0          NORDER=       0
          MIX   =       F          PRTMO =       F          PUNMO =       F
          TOLZ  = 1.0E-08          TOLE  = 1.0E-05
          SYMDEN=       F          PURIFY=       F

 INITIAL GUESS ORBITALS GENERATED BY HUCKEL   ROUTINE.
 HUCKEL GUESS REQUIRES    174540 WORDS.

 SYMMETRIES FOR INITIAL GUESS ORBITALS FOLLOW.   BOTH SET(S).
    43 ORBITALS ARE OCCUPIED (   11 CORE ORBITALS).
    12=A       13=A       14=A       15=A       16=A       17=A       18=A   
    19=A       20=A       21=A       22=A       23=A       24=A       25=A   
    26=A       27=A       28=A       29=A       30=A       31=A       32=A   
    33=A       34=A       35=A       36=A       37=A       38=A       39=A   
    40=A       41=A       42=A       43=A       44=A       45=A       46=A   
    47=A       48=A       49=A       50=A       51=A       52=A       53=A   
 ...... END OF INITIAL ORBITAL SELECTION ......
 CPU     0: STEP CPU TIME=     0.04 TOTAL CPU TIME=          0.1 (      0.0 MIN)
 TOTAL WALL CLOCK TIME=          0.1 SECONDS, CPU UTILIZATION IS    77.78%

                    ----------------------
                    AO INTEGRAL TECHNOLOGY
                    ----------------------
     S,P,L SHELL ROTATED AXIS INTEGRALS, REPROGRAMMED BY
        KAZUYA ISHIMURA (IMS) AND JOSE SIERRA (SYNSTAR).
     S,P,D,L SHELL ROTATED AXIS INTEGRALS PROGRAMMED BY
        KAZUYA ISHIMURA (INSTITUTE FOR MOLECULAR SCIENCE).
     S,P,D,F,G SHELL TO TOTAL QUARTET ANGULAR MOMENTUM SUM 5,
        ERIC PROGRAM BY GRAHAM FLETCHER (ELORET AND NASA ADVANCED
        SUPERCOMPUTING DIVISION, AMES RESEARCH CENTER).
     S,P,D,F,G,L SHELL GENERAL RYS QUADRATURE PROGRAMMED BY
        MICHEL DUPUIS (PACIFIC NORTHWEST NATIONAL LABORATORY).

          --------------------
          2 ELECTRON INTEGRALS
          --------------------

 DIRECT SCF METHOD SKIPS INTEGRAL STORAGE ON DISK.
 DIRECT TRANSFORMATION SKIPS AO INTEGRAL STORAGE ON DISK.
  ...... END OF TWO-ELECTRON INTEGRALS .....
 CPU     0: STEP CPU TIME=     0.01 TOTAL CPU TIME=          0.1 (      0.0 MIN)
 TOTAL WALL CLOCK TIME=          0.1 SECONDS, CPU UTILIZATION IS    80.00%

          --------------------------
             R-B3LYP SCF CALCULATION
          --------------------------

     NUCLEAR ENERGY =       598.1739947073
     MAXIT =   60     NPUNCH=    2
     EXTRAP=T  DAMP=F  SHIFT=F  RSTRCT=F  DIIS=T  DEM=F  SOSCF=F
         DENSITY MATRIX CONVERGENCE THRESHOLD=  2.00E-05
     COARSE -> FINE DFT GRID SWITCH THRESHOLD=  3.00E-04 (SWITCH IN $DFT)
                   HF -> DFT SWITCH THRESHOLD=  5.00E-03 (SWOFF IN $DFT)
     MEMORY REQUIRED FOR RHF ITERS=   1115631 WORDS.

 DIRECT SCF CALCULATION, SCHWRZ=T   FDIFF=T,  DIRTHR=  0.00E+00 NITDIR=10
 SCHWARZ INEQUALITY OVERHEAD:      8173 INTEGRALS, T=        0.00

 DFT CODE IS SWITCHING FROM THE FINE GRID NRAD= 96,  NLEB=  302
                      TO THE COARSE GRID NRAD0= 24, NLEB0=  110

     EXCHANGE FUNCTIONAL   =B88&HFX   
     CORRELATION FUNCTIONAL=LYP88&VWN5
     DFT THRESHOLD         =.476E-08
     GRID CHANGE THRESHOLD =.300E-03
 FOR AN EULER-MACLAURIN QUADRATURE USING  96 RADIAL POINTS:
 SMALLEST GAUSSIAN PRIMITIVE EXPONENT=        0.1831915800 OF TYPE -S-
 ON ATOM NUMBER  12 HAS RADIAL NORMALIZATION=  1.000000
  LARGEST GAUSSIAN PRIMITIVE EXPONENT=      322.0370000000 OF TYPE -S-
 ON ATOM NUMBER   1 HAS RADIAL NORMALIZATION=  1.000000
 DFT IS SWITCHED OFF, PERFORMING PURE SCF UNTIL SWOFF THRESHOLD IS REACHED.

                                                                                   NONZERO     BLOCKS
 ITER EX DEM     TOTAL ENERGY        E CHANGE  DENSITY CHANGE    DIIS ERROR      INTEGRALS    SKIPPED
          * * *   INITIATING DIIS PROCEDURE   * * *
   1  0  0     -460.4359221699  -460.4359221699   0.602500538   0.467463285       18779840    1826606
   2  1  0     -461.3507179394    -0.9147957695   0.145891794   0.063844688       18694540    1861934
   3  2  0     -461.3913953409    -0.0406774015   0.044623792   0.017761446       18364865    1929420
   4  3  0     -461.3966064303    -0.0052110894   0.019037045   0.006660565       17796324    2005337
   5  4  0     -461.3972521598    -0.0006457295   0.003850651   0.002777171       17273384    2050970
 CONVERGED TO SWOFF, SO DFT CALCULATION IS NOW SWITCHED ON.
          * * *   INITIATING DIIS PROCEDURE   * * *
   6  5  0     -464.1714991494    -2.7742469896   0.076162372   0.068533029       18801368    1816175
   7  6  0     -464.2018992095    -0.0304000602   0.039197873   0.026287151       18517307    1911446
   8  7  0     -464.2057489303    -0.0038497208   0.017551566   0.020590983       18165390    1954936
   9  8  0     -464.2102287796    -0.0044798493   0.003716719   0.003264082       17751610    2002787
  10  9  0     -464.2102990437    -0.0000702641   0.001163767   0.001134719       16232635    2131223
  11 10  0     -464.2103060735    -0.0000070298   0.000385860   0.000252655       15206706    2196351
  12 11  0     -464.2103064998    -0.0000004263   0.000047363   0.000063468       13902349    2282124
 DFT CODE IS SWITCHING BACK TO THE FINE GRID
          * * *   INITIATING DIIS PROCEDURE   * * *
  13 12  0     -464.2135414632    -0.0032349634   0.002426379   0.000707475       18817583    1808643
  14 13  0     -464.2135612380    -0.0000197748   0.000811841   0.000452866       16520953    2111610
  15 14  0     -464.2135610515     0.0000001865   0.000339472   0.000549903       14856236    2218123
  16 15  0     -464.2135621582    -0.0000011067   0.000099762   0.000029756       13957121    2276975
  17 16  0     -464.2135621637    -0.0000000056   0.000038052   0.000029292       12404884    2367644
  18 17  0     -464.2135621677    -0.0000000040   0.000007683   0.000007371       11333746    2431821

          -----------------
          DENSITY CONVERGED
          -----------------
     TIME TO FORM FOCK OPERATORS=      38.4 SECONDS (       2.1 SEC/ITER)
     FOCK TIME ON FIRST ITERATION=       0.3, LAST ITERATION=       5.3
     TIME TO SOLVE SCF EQUATIONS=       0.4 SECONDS (       0.0 SEC/ITER)

 FINAL R-B3LYP ENERGY IS     -464.2135621677 AFTER  18 ITERATIONS
 DFT EXCHANGE + CORRELATION ENERGY =       -55.8327555169
 TOTAL ELECTRON NUMBER             =        86.0005763175

          ------------
          EIGENVECTORS
          ------------

                      1          2          3          4          5
                  -19.0026   -10.1581   -10.1252   -10.1214   -10.1133
                     A          A          A          A          A   
    1  O  1  S    0.982440  -0.000123  -0.000000  -0.000001   0.000032
    2  O  1  S    0.104720  -0.000708   0.000025  -0.000007   0.000269
    3  O  1  X    0.000149   0.000053  -0.000006  -0.000000   0.000050
    4  O  1  Y    0.000352  -0.000009  -0.000059  -0.000001  -0.000044
    5  O  1  Z   -0.003827  -0.000475  -0.000025   0.000004  -0.000034
    6  O  1  S   -0.049178   0.009292  -0.000102   0.000036  -0.001192
    7  O  1  X   -0.000311  -0.000109   0.000203   0.000001  -0.000216
    8  O  1  Y    0.001548  -0.003364   0.000059  -0.000001   0.000475
    9  O  1  Z    0.010134  -0.001389   0.000174  -0.000026   0.000426
   10  C  2  S   -0.000934   0.986449   0.002276  -0.000079   0.001200
   11  C  2  S   -0.003956   0.112324   0.000192   0.000006  -0.000685
   12  C  2  X    0.000136  -0.000112   0.000129   0.000002  -0.000361
   13  C  2  Y    0.001593   0.000006   0.000676  -0.000011  -0.000094
   14  C  2  Z    0.001202  -0.000387  -0.000234   0.000011  -0.000108
   15  C  2  S    0.023143  -0.095021  -0.001992   0.000054   0.006378
   16  C  2  X   -0.002326   0.001941  -0.003423   0.000026   0.000434
   17  C  2  Y    0.003822   0.010913   0.001343  -0.000105  -0.001756
   18  C  2  Z    0.009168  -0.000823   0.000806  -0.000042   0.001944
   19  C  3  S    0.000107  -0.009025  -0.030255   0.000536  -0.016421
   20  C  3  S    0.000068  -0.003968  -0.008487   0.000142  -0.002645
   21  C  3  X   -0.000084  -0.000629  -0.002078   0.000015  -0.000850
   22  C  3  Y   -0.000512  -0.001101   0.001985  -0.000000   0.000456
   23  C  3  Z   -0.000017   0.000498   0.000124  -0.000016   0.000064
   24  C  3  S   -0.003632   0.024233   0.036612  -0.000711   0.005359
   25  C  3  X   -0.000026   0.005903   0.014650  -0.000369  -0.001051
   26  C  3  Y   -0.006718   0.020423  -0.015103   0.000199  -0.009191
   27  C  3  Z    0.000119  -0.008197  -0.000360   0.000169   0.002742
   28  C  4  S    0.000006  -0.002493   0.985168  -0.002347   0.016399
   29  C  4  S    0.000045  -0.000459   0.111129  -0.000230   0.000969
   30  C  4  X   -0.000081   0.000373   0.000242   0.000086  -0.000610
   31  C  4  Y   -0.000059  -0.000861   0.000106  -0.000089  -0.000253
   32  C  4  Z    0.000167   0.000111   0.000326   0.000034   0.000537
   33  C  4  S   -0.002060  -0.000556  -0.100157   0.000805   0.012085
   34  C  4  X    0.003195  -0.006175   0.004897  -0.000102   0.024872
   35  C  4  Y    0.000053   0.000936  -0.005913   0.000542   0.003019
   36  C  4  Z   -0.000846   0.002049  -0.001058  -0.000316  -0.008228
   37  C  5  S    0.000070  -0.001686  -0.021938   0.003021   0.962105
   38  C  5  S    0.000432  -0.001049  -0.003526   0.000523   0.114145
   39  C  5  X    0.000123  -0.000111   0.000360  -0.000017  -0.000187
   40  C  5  Y    0.000119  -0.000224  -0.000128   0.000002  -0.000347
   41  C  5  Z    0.000046   0.000221   0.000246  -0.000064   0.000322
   42  C  5  S   -0.002863   0.006723   0.014875  -0.001561  -0.113900
   43  C  5  X    0.000411  -0.001795  -0.011455   0.000173   0.002125
   44  C  5  Y   -0.000646   0.000774   0.001318   0.000665   0.000485
   45  C  5  Z   -0.000562  -0.000364  -0.001421  -0.000243  -0.011020
   46  C  6  S   -0.000039   0.000133  -0.015335  -0.007078  -0.214254
   47  C  6  S   -0.000218   0.000148  -0.003225  -0.000854  -0.028118
   48  C  6  X   -0.000055   0.000037   0.001748  -0.000563  -0.000413
   49  C  6  Y   -0.000008   0.000089  -0.000086   0.000089   0.000215
   50  C  6  Z   -0.000052   0.000051  -0.000161   0.000217  -0.000027
   51  C  6  S    0.001410  -0.001145   0.001112  -0.000653   0.048039
   52  C  6  X   -0.000043  -0.000282  -0.010882  -0.001254  -0.010256
   53  C  6  Y    0.000206  -0.000525   0.000021  -0.003602  -0.002823
   54  C  6  Z   -0.000229   0.000256   0.001432  -0.001336  -0.012192
   55  C  7  S    0.000015  -0.000500  -0.006915  -0.036360  -0.011934
   56  C  7  S    0.000087  -0.000307  -0.002200  -0.009127  -0.002026
   57  C  7  X   -0.000001   0.000064   0.000441  -0.001931   0.000566
   58  C  7  Y    0.000024  -0.000098  -0.000160  -0.002107   0.000113
   59  C  7  Z   -0.000009   0.000037  -0.000122  -0.000360   0.000163
   60  C  7  S   -0.000535   0.001236   0.008239   0.038090  -0.000697
   61  C  7  X    0.000277  -0.000468  -0.006887   0.015123   0.005961
   62  C  7  Y   -0.000250   0.000834   0.002001   0.015451   0.000570
   63  C  7  Z   -0.000075   0.000097   0.002817   0.002322  -0.000539
   64  C  8  S   -0.000003   0.000074   0.002070   0.984930  -0.004753
   65  C  8  S   -0.000017   0.000061   0.000391   0.110328  -0.000233
   66  C  8  X    0.000009  -0.000016  -0.000093  -0.000120  -0.000280
   67  C  8  Y   -0.000012   0.000026   0.000255  -0.000330   0.000013
   68  C  8  Z   -0.000011   0.000011   0.000110  -0.000060  -0.000177
   69  C  8  S    0.000143  -0.000578  -0.000880  -0.099923  -0.002302
   70  C  8  X   -0.000244   0.000667   0.002013   0.006851   0.001804
   71  C  8  Y    0.000084  -0.000121  -0.003073   0.006827   0.002286
   72  C  8  Z    0.000078  -0.000113  -0.001838   0.000681   0.000910
   73  C  9  S    0.000004  -0.000085  -0.000742  -0.022900   0.000536
   74  C  9  S    0.000021  -0.000065  -0.000360  -0.004487   0.000098
   75  C  9  X   -0.000002   0.000012   0.000017   0.000398  -0.000064
   76  C  9  Y    0.000018  -0.000027  -0.000070   0.000608   0.000075
   77  C  9  Z    0.000000  -0.000012  -0.000059   0.000177  -0.000134
   78  C  9  S   -0.000189   0.000416   0.002559   0.017935  -0.000957
   79  C  9  X    0.000080  -0.000202  -0.000186  -0.002894  -0.000301
   80  C  9  Y    0.000006  -0.000066  -0.001439  -0.010528   0.000119
   81  C  9  Z    0.000019  -0.000025  -0.000561  -0.003970   0.000747
   82  C 10  S   -0.000001  -0.000012  -0.000577  -0.023546   0.003557
   83  C 10  S   -0.000003   0.000005  -0.000078  -0.004619   0.000607
   84  C 10  X   -0.000011   0.000019   0.000189   0.000581  -0.000071
   85  C 10  Y   -0.000002   0.000005   0.000041   0.000252  -0.000052
   86  C 10  Z    0.000006  -0.000011  -0.000034  -0.000057   0.000108
   87  C 10  S    0.000126  -0.000260  -0.001452   0.019088  -0.000821
   88  C 10  X   -0.000033   0.000072   0.000355  -0.011364   0.000085
   89  C 10  Y    0.000027  -0.000077  -0.000050  -0.000896  -0.000120
   90  C 10  Z    0.000015  -0.000061  -0.000196   0.003127  -0.000652
   91  C 11  S   -0.000003  -0.001858  -0.021450  -0.000175  -0.047352
   92  C 11  S    0.000046  -0.001044  -0.004675  -0.000073  -0.007925
   93  C 11  X   -0.000017   0.000030   0.000115   0.000042  -0.001058
   94  C 11  Y    0.000145  -0.000422  -0.000543   0.000025  -0.000005
   95  C 11  Z   -0.000125   0.000134   0.000039  -0.000017   0.000556
   96  C 11  S    0.001014   0.001077   0.020425   0.000459   0.014251
   97  C 11  X   -0.000137   0.000520   0.001562   0.000050   0.001873
   98  C 11  Y    0.000363   0.001224   0.011721  -0.000008   0.003740
   99  C 11  Z    0.000232  -0.000692  -0.003188   0.000049  -0.003104
  100  H 12  S    0.003268  -0.000159   0.000030  -0.000008   0.000051
  101  H 12  S    0.006000   0.002347  -0.000256   0.000014  -0.000020
  102  H 13  S   -0.001705   0.000253  -0.000098  -0.000001  -0.000201
  103  H 13  S   -0.001796   0.016650  -0.000230  -0.000001   0.000638
  104  H 14  S   -0.001385  -0.000352   0.000362  -0.000024  -0.000242
  105  H 14  S   -0.000931   0.018051   0.001883   0.000036  -0.001778
  106  H 15  S    0.000267  -0.000835  -0.000822  -0.000008  -0.000671
  107  H 15  S   -0.000269   0.003293   0.001675  -0.000089  -0.000690
  108  H 16  S    0.000115  -0.000363  -0.000861  -0.000074   0.001480
  109  H 16  S   -0.000267  -0.000097   0.000227   0.000973   0.016170
  110  H 17  S   -0.000030  -0.000039  -0.000999   0.000039   0.000970
  111  H 17  S    0.001019  -0.003343  -0.001478  -0.000270   0.015668
  112  H 18  S    0.000025   0.000067  -0.000843   0.000440  -0.001560
  113  H 18  S   -0.000460   0.000340  -0.000763   0.001614  -0.002231
  114  H 19  S   -0.000056  -0.000009  -0.000607  -0.000106  -0.001814
  115  H 19  S   -0.000035  -0.000065  -0.001813  -0.000377  -0.003553
  116  H 20  S   -0.000007   0.000012  -0.000084  -0.000845   0.000344
  117  H 20  S   -0.000055   0.000257   0.001175   0.001249  -0.001727
  118  H 21  S   -0.000005   0.000009  -0.000238  -0.001158   0.000020
  119  H 21  S    0.000142  -0.000259   0.000304  -0.001719   0.000022
  120  H 22  S    0.000006  -0.000008  -0.000081  -0.001150   0.000053
  121  H 22  S   -0.000017   0.000020   0.000014   0.002384  -0.000318
  122  H 23  S    0.000012  -0.000018  -0.000091  -0.001105   0.000072
  123  H 23  S    0.000013  -0.000005   0.000106   0.002238   0.000381
  124  H 24  S   -0.000005   0.000006   0.000053  -0.001159  -0.000003
  125  H 24  S   -0.000014   0.000033   0.000032   0.002205  -0.000126
  126  H 25  S   -0.000006   0.000015   0.000070  -0.001188   0.000092
  127  H 25  S   -0.000000   0.000001   0.000047   0.002258   0.000285
  128  H 26  S    0.000002  -0.000001  -0.000031  -0.001087  -0.000010
  129  H 26  S   -0.000011  -0.000016   0.000267  -0.002213  -0.000018
  130  H 27  S   -0.000017  -0.000091  -0.001337   0.000003  -0.000503
  131  H 27  S    0.000170  -0.000021   0.002495  -0.000093  -0.002892
  132  H 28  S   -0.000036  -0.000075  -0.001253   0.000038  -0.000705
  133  H 28  S   -0.000156   0.000144   0.001545  -0.000242  -0.000637
  134  H 29  S    0.000001  -0.000317  -0.001077  -0.000020  -0.000474
  135  H 29  S   -0.000402   0.000826  -0.001858  -0.000039   0.000377

                      6          7          8          9         10
                  -10.1117   -10.1076   -10.1064   -10.1059   -10.1057
                     A          A          A          A          A   
    1  O  1  S   -0.000003   0.000014  -0.000001  -0.000002   0.000001
    2  O  1  S   -0.000036   0.000150  -0.000010  -0.000021  -0.000351
    3  O  1  X    0.000003   0.000025   0.000001   0.000002   0.000124
    4  O  1  Y    0.000040  -0.000112   0.000007   0.000010   0.000809
    5  O  1  Z    0.000005  -0.000004   0.000001   0.000002   0.000018
    6  O  1  S    0.000109  -0.000470   0.000033   0.000072  -0.000129
    7  O  1  X   -0.000010  -0.000051  -0.000001  -0.000009  -0.000659
    8  O  1  Y   -0.000177   0.000500  -0.000032  -0.000042  -0.001935
    9  O  1  Z    0.000022   0.000108  -0.000010  -0.000031  -0.000003
   10  C  2  S    0.000189   0.000945  -0.000024   0.000045   0.008734
   11  C  2  S   -0.000192  -0.000549   0.000031   0.000064  -0.001732
   12  C  2  X    0.000037  -0.000006   0.000010  -0.000003  -0.000405
   13  C  2  Y   -0.000158   0.000283   0.000003   0.000042   0.000582
   14  C  2  Z    0.000209  -0.000078  -0.000000  -0.000030  -0.000412
   15  C  2  S    0.002310   0.000536  -0.000171  -0.000492   0.020673
   16  C  2  X    0.000309  -0.000562   0.000005   0.000070   0.003396
   17  C  2  Y   -0.000295  -0.000020   0.000039   0.000029  -0.013431
   18  C  2  Z   -0.000786   0.000595  -0.000037   0.000000   0.003475
   19  C  3  S   -0.000087  -0.092435   0.005625   0.017747   0.980407
   20  C  3  S    0.000072  -0.011536   0.000649   0.001978   0.107976
   21  C  3  X    0.000012  -0.000193   0.000019  -0.000004   0.000661
   22  C  3  Y    0.000273   0.000937  -0.000013  -0.000062   0.000446
   23  C  3  Z    0.000085  -0.000184   0.000016   0.000004  -0.000375
   24  C  3  S   -0.000196   0.011667  -0.000700  -0.002161  -0.091012
   25  C  3  X   -0.001447   0.004647  -0.000045   0.000047  -0.014739
   26  C  3  Y   -0.001310  -0.003082   0.000354   0.001057   0.001677
   27  C  3  Z    0.000947  -0.000928  -0.000151  -0.000330   0.004727
   28  C  4  S    0.018725   0.019158  -0.000379  -0.001521   0.031885
   29  C  4  S    0.000415   0.000717   0.000030   0.000131  -0.001420
   30  C  4  X   -0.001017   0.000079   0.000040   0.000217   0.001469
   31  C  4  Y   -0.000008   0.000985  -0.000025  -0.000127  -0.003034
   32  C  4  Z    0.000150  -0.000447  -0.000019  -0.000055   0.000376
   33  C  4  S    0.005033   0.011108  -0.000402  -0.001089   0.029883
   34  C  4  X    0.004742  -0.006167  -0.000790  -0.002487  -0.007681
   35  C  4  Y    0.000698  -0.017817   0.000263   0.000730   0.022927
   36  C  4  Z   -0.003365   0.007558   0.000286   0.000803  -0.004156
   37  C  5  S    0.211799   0.045745  -0.003499  -0.007759   0.019323
   38  C  5  S    0.022362   0.002986  -0.000208  -0.000440   0.001673
   39  C  5  X    0.000817   0.000758   0.000162   0.000427   0.001049
   40  C  5  Y    0.000140   0.000791   0.000056  -0.000028  -0.000251
   41  C  5  Z   -0.000100  -0.000731  -0.000004  -0.000079  -0.000392
   42  C  5  S   -0.001376   0.003593   0.000160   0.000025  -0.003677
   43  C  5  X    0.010639  -0.003644  -0.001109  -0.003120  -0.000072
   44  C  5  Y   -0.000331  -0.000214  -0.000124   0.000478  -0.003297
   45  C  5  Z    0.009698   0.003401   0.000224  -0.000221   0.001723
   46  C  6  S    0.961609   0.000622   0.003174  -0.007513  -0.005093
   47  C  6  S    0.112877   0.000412   0.000157  -0.001178  -0.000272
   48  C  6  X   -0.000171  -0.000053  -0.000330   0.000249  -0.000013
   49  C  6  Y   -0.000250   0.000056   0.000043  -0.000005   0.000031
   50  C  6  Z   -0.000145  -0.000018   0.000156  -0.000102   0.000054
   51  C  6  S   -0.105044  -0.001786  -0.002911   0.000239  -0.000919
   52  C  6  X   -0.007135   0.001420  -0.000755  -0.003502  -0.000135
   53  C  6  Y    0.001886  -0.000022  -0.000748  -0.001397   0.000252
   54  C  6  Z    0.005162   0.000922  -0.000562  -0.000147  -0.000472
   55  C  7  S   -0.058724  -0.012899  -0.098361  -0.374008  -0.016668
   56  C  7  S   -0.008883  -0.001649  -0.011691  -0.042558  -0.001922
   57  C  7  X    0.000833   0.000218  -0.000553  -0.000558   0.000036
   58  C  7  Y   -0.000395   0.000111   0.000106  -0.000999  -0.000033
   59  C  7  Z   -0.000506   0.000067   0.000265  -0.000154   0.000001
   60  C  7  S    0.027647   0.000726   0.010398   0.037804   0.002221
   61  C  7  X   -0.021138  -0.001394  -0.001208   0.007081   0.000116
   62  C  7  Y    0.003065  -0.000854   0.004483   0.006033   0.000583
   63  C  7  Z    0.007548  -0.000632   0.002328   0.000137   0.000237
   64  C  8  S    0.003727  -0.000347   0.007177   0.014211  -0.002002
   65  C  8  S    0.000537  -0.000035   0.000435   0.001318   0.000003
   66  C  8  X    0.000504  -0.000113  -0.001112  -0.001016  -0.000114
   67  C  8  Y    0.000351   0.000010   0.000537  -0.001356  -0.000007
   68  C  8  Z    0.000014   0.000001   0.000580  -0.000323   0.000022
   69  C  8  S   -0.001624   0.000996   0.003838   0.005916  -0.001468
   70  C  8  X    0.000724   0.000054   0.018489   0.010627   0.000950
   71  C  8  Y   -0.006023  -0.000735  -0.012508   0.017556   0.000088
   72  C  8  Z   -0.002798  -0.000007  -0.011406   0.004836  -0.000231
   73  C  9  S   -0.009680  -0.001687  -0.436142   0.833343  -0.020062
   74  C  9  S   -0.001865  -0.000241  -0.051859   0.094605  -0.002278
   75  C  9  X    0.000262  -0.000007  -0.001001  -0.000193   0.000005
   76  C  9  Y   -0.000302  -0.000041   0.000196   0.000142  -0.000064
   77  C  9  Z   -0.000134   0.000007   0.000392   0.000125  -0.000035
   78  C  9  S    0.007479   0.000584   0.049170  -0.078149   0.002113
   79  C  9  X   -0.001187  -0.000066   0.001616  -0.001339  -0.000303
   80  C  9  Y   -0.001307   0.000045  -0.005206   0.003515  -0.000011
   81  C  9  Z   -0.000633  -0.000138  -0.002836   0.001968   0.000094
   82  C 10  S   -0.014063   0.002144   0.879398   0.370884  -0.017605
   83  C 10  S   -0.002269   0.000287   0.101441   0.040843  -0.001896
   84  C 10  X    0.000443   0.000021   0.000089   0.000064  -0.000003
   85  C 10  Y    0.000057  -0.000004   0.000609  -0.000798   0.000010
   86  C 10  Z   -0.000135  -0.000013   0.000253  -0.000376   0.000008
   87  C 10  S    0.001228  -0.000576  -0.088013  -0.030492   0.000977
   88  C 10  X   -0.001042   0.000132   0.006327   0.000188   0.000145
   89  C 10  Y    0.000396   0.000114  -0.002879   0.000155  -0.000139
   90  C 10  Z    0.000574  -0.000051  -0.003292  -0.000063  -0.000128
   91  C 11  S   -0.011642   0.980667  -0.003245  -0.002219   0.090442
   92  C 11  S   -0.001631   0.112013  -0.000337  -0.000242   0.008721
   93  C 11  X   -0.000066   0.000132   0.000030   0.000052   0.000132
   94  C 11  Y   -0.000002  -0.000237   0.000000   0.000014  -0.000404
   95  C 11  Z   -0.000181   0.000008  -0.000008   0.000014   0.000076
   96  C 11  S    0.003416  -0.094139   0.000209   0.000160   0.000487
   97  C 11  X   -0.000327  -0.002847   0.000002   0.000283   0.002558
   98  C 11  Y    0.000308  -0.004941  -0.000060  -0.000236   0.002810
   99  C 11  Z    0.001588   0.002384  -0.000035  -0.000246  -0.001731
  100  H 12  S    0.000020  -0.000088   0.000003   0.000006   0.000566
  101  H 12  S    0.000099  -0.000094   0.000009   0.000002   0.001769
  102  H 13  S   -0.000133  -0.000041   0.000009   0.000019  -0.001110
  103  H 13  S   -0.000412  -0.000148  -0.000006   0.000097   0.003595
  104  H 14  S    0.000169  -0.000020  -0.000004  -0.000026  -0.001743
  105  H 14  S   -0.001819   0.000113   0.000039   0.000173  -0.002050
  106  H 15  S   -0.000238   0.000289   0.000016   0.000056  -0.002246
  107  H 15  S   -0.000415  -0.000685   0.000111   0.000391   0.010401
  108  H 16  S   -0.001186  -0.000602  -0.000012   0.000100  -0.000139
  109  H 16  S    0.004148   0.000883   0.000245   0.000799   0.000444
  110  H 17  S   -0.001243  -0.000350   0.000154   0.000428   0.000259
  111  H 17  S    0.006030   0.002447  -0.000006  -0.000753   0.002330
  112  H 18  S    0.000205   0.000059  -0.000035   0.000520  -0.000120
  113  H 18  S    0.017548   0.000401   0.001710  -0.001787   0.000557
  114  H 19  S    0.000743   0.000507   0.000155   0.000088   0.000144
  115  H 19  S    0.017205  -0.001703  -0.000120  -0.001352   0.000306
  116  H 20  S   -0.000501  -0.000129   0.000518   0.000292   0.000100
  117  H 20  S    0.001676  -0.000536  -0.000669  -0.004328  -0.000275
  118  H 21  S    0.000012   0.000043  -0.000196  -0.000530   0.000039
  119  H 21  S   -0.003630  -0.000285  -0.006234   0.014366  -0.000776
  120  H 22  S   -0.000278  -0.000004  -0.000578   0.000012  -0.000002
  121  H 22  S    0.000013  -0.000011  -0.008170   0.013362  -0.000310
  122  H 23  S   -0.000328  -0.000040  -0.000586  -0.000007  -0.000002
  123  H 23  S   -0.000306  -0.000103  -0.008135   0.013362  -0.000297
  124  H 24  S   -0.000042  -0.000000   0.000332  -0.000315   0.000035
  125  H 24  S   -0.000048   0.000040   0.014908   0.005078  -0.000253
  126  H 25  S   -0.000043   0.000027   0.000342  -0.000303   0.000038
  127  H 25  S   -0.000145   0.000020   0.014890   0.005147  -0.000242
  128  H 26  S   -0.000307   0.000007   0.000090  -0.000342   0.000012
  129  H 26  S    0.000853   0.000192   0.013273   0.006995  -0.000302
  130  H 27  S    0.000071   0.000138   0.000019  -0.000001  -0.000460
  131  H 27  S    0.000126   0.016004  -0.000110  -0.000267   0.001427
  132  H 28  S    0.000357  -0.000100  -0.000004  -0.000029  -0.000462
  133  H 28  S   -0.002970   0.016774   0.000001   0.000058   0.001387
  134  H 29  S   -0.000281  -0.000057   0.000010   0.000046  -0.000208
  135  H 29  S   -0.000575   0.015507  -0.000068   0.000060   0.001318

                     11         12         13         14         15
                  -10.1053    -0.9965    -0.8181    -0.8001    -0.7484
                     A          A          A          A          A   
    1  O  1  S    0.000009  -0.217119   0.017684  -0.016937  -0.024932
    2  O  1  S    0.000050   0.204106  -0.016456   0.015686   0.022937
    3  O  1  X    0.000017   0.004428  -0.000087   0.000270   0.001137
    4  O  1  Y    0.000034   0.026543  -0.018184   0.019675   0.039793
    5  O  1  Z   -0.000006  -0.101719   0.003782  -0.002759   0.000845
    6  O  1  S   -0.000306   0.659616  -0.061260   0.059843   0.092443
    7  O  1  X   -0.000097   0.004532   0.000412  -0.000187   0.000339
    8  O  1  Y    0.000019   0.016808  -0.009988   0.011170   0.024921
    9  O  1  Z    0.000109  -0.110209   0.006230  -0.005576  -0.005224
   10  C  2  S    0.000665  -0.080184  -0.028351   0.030357   0.056676
   11  C  2  S   -0.000403   0.086091   0.029337  -0.030354  -0.055629
   12  C  2  X   -0.000100  -0.005586   0.001367   0.000426   0.007284
   13  C  2  Y   -0.000088   0.054580  -0.032362   0.032027   0.044490
   14  C  2  Z    0.000034   0.060275   0.000700  -0.001206  -0.001323
   15  C  2  S    0.003645   0.134455   0.058261  -0.074271  -0.160618
   16  C  2  X    0.000456   0.003438  -0.001195   0.001560   0.006144
   17  C  2  Y   -0.001466   0.005080  -0.005018   0.008444   0.015348
   18  C  2  Z    0.000527  -0.011460  -0.003510   0.003510   0.006180
   19  C  3  S    0.024294  -0.018608  -0.075559   0.073071   0.088784
   20  C  3  S    0.002716   0.017873   0.083108  -0.080241  -0.095908
   21  C  3  X   -0.000002   0.003783   0.036437  -0.029896  -0.014674
   22  C  3  Y    0.000256   0.018898  -0.035717   0.029970   0.007609
   23  C  3  Z   -0.000074  -0.002166  -0.003285   0.003216   0.006191
   24  C  3  S   -0.002507   0.031397   0.140395  -0.142111  -0.197963
   25  C  3  X   -0.002456  -0.000671   0.007761  -0.001520   0.002127
   26  C  3  Y   -0.002914   0.016587   0.004514   0.005759   0.018643
   27  C  3  Z    0.001477   0.008398  -0.006626   0.001516  -0.001848
   28  C  4  S    0.008619  -0.004309  -0.113260   0.092374   0.042975
   29  C  4  S   -0.000682   0.004964   0.121608  -0.096786  -0.044411
   30  C  4  X   -0.000682  -0.001256   0.003944   0.018541   0.077397
   31  C  4  Y   -0.000205   0.005771   0.014728  -0.015488  -0.032712
   32  C  4  Z    0.000071  -0.000474  -0.003035  -0.000591  -0.010376
   33  C  4  S    0.006850   0.012444   0.215860  -0.193807  -0.100823
   34  C  4  X    0.007457  -0.008545  -0.017527  -0.001808  -0.007164
   35  C  4  Y    0.002066  -0.005280  -0.007949   0.003242  -0.000035
   36  C  4  Z   -0.002575  -0.000009   0.010672   0.000236   0.005909
   37  C  5  S    0.023648  -0.001541  -0.101944   0.039091  -0.085992
   38  C  5  S    0.001607   0.000917   0.098047  -0.035932   0.081651
   39  C  5  X   -0.001157  -0.001388  -0.014525   0.039305   0.050975
   40  C  5  Y    0.000114   0.000638   0.000996   0.000091  -0.003822
   41  C  5  Z   -0.000073   0.000037   0.026004  -0.004428   0.025172
   42  C  5  S   -0.002731   0.007476   0.250465  -0.101836   0.234419
   43  C  5  X    0.008619  -0.001066  -0.015322  -0.004473  -0.006012
   44  C  5  Y   -0.002206   0.002385   0.002864  -0.001531  -0.004641
   45  C  5  Z    0.000535   0.003051   0.006642  -0.005407   0.003907
   46  C  6  S    0.056011  -0.000253  -0.088963  -0.024067  -0.127054
   47  C  6  S    0.004560   0.000911   0.085593   0.021403   0.118918
   48  C  6  X   -0.000656  -0.000112  -0.002030   0.041212  -0.000825
   49  C  6  Y   -0.000547   0.000190  -0.002050   0.003981  -0.009370
   50  C  6  Z    0.000012  -0.000065  -0.024262   0.000556  -0.026401
   51  C  6  S    0.012825  -0.004125   0.215320   0.060430   0.353019
   52  C  6  X    0.013611  -0.000021   0.016001  -0.006152   0.007032
   53  C  6  Y    0.005146  -0.001428  -0.005042  -0.000349  -0.008775
   54  C  6  Z   -0.000496   0.000449  -0.007062  -0.003568  -0.011292
   55  C  7  S    0.903947  -0.000100  -0.078645  -0.090266  -0.046284
   56  C  7  S    0.099396  -0.000045   0.087270   0.096706   0.048469
   57  C  7  X   -0.000996  -0.000084  -0.000819   0.046205  -0.076868
   58  C  7  Y    0.000211  -0.000004   0.024590   0.042032  -0.015910
   59  C  7  Z    0.000087  -0.000000   0.008017   0.005790   0.012790
   60  C  7  S   -0.082126   0.001324   0.135888   0.182921   0.096803
   61  C  7  X    0.001691  -0.000778   0.013504  -0.007034   0.003371
   62  C  7  Y   -0.012445   0.000679  -0.000062   0.004973  -0.001112
   63  C  7  Z   -0.005201   0.000345  -0.006570   0.004593  -0.003642
   64  C  8  S    0.046003  -0.000016  -0.074204  -0.128762   0.056268
   65  C  8  S   -0.000294   0.000038   0.078806   0.136398  -0.058404
   66  C  8  X    0.002841  -0.000049  -0.020742  -0.014337  -0.048103
   67  C  8  Y    0.001318   0.000024  -0.014797  -0.014108  -0.025020
   68  C  8  Z   -0.000204   0.000022  -0.000215  -0.001241   0.002886
   69  C  8  S    0.032929  -0.000157   0.145158   0.264483  -0.130665
   70  C  8  X   -0.019966   0.000634   0.002766   0.010653  -0.008340
   71  C  8  Y   -0.004172  -0.000235   0.003357  -0.008965   0.002339
   72  C  8  Z    0.003827  -0.000235   0.000648  -0.006338   0.002886
   73  C  9  S    0.295422  -0.000019  -0.039702  -0.077350   0.058142
   74  C  9  S    0.032845  -0.000024   0.039789   0.075892  -0.056645
   75  C  9  X    0.000135  -0.000017  -0.000710   0.003464  -0.013041
   76  C  9  Y    0.001145  -0.000046  -0.021381  -0.037681   0.016359
   77  C  9  Z    0.000456  -0.000001  -0.009516  -0.018198   0.011379
   78  C  9  S   -0.029029   0.000526   0.089165   0.192426  -0.159458
   79  C  9  X    0.003290  -0.000182  -0.000177   0.000472  -0.006328
   80  C  9  Y    0.001145   0.000045  -0.000454  -0.004952  -0.000509
   81  C  9  Z   -0.000261  -0.000032  -0.000469  -0.002230   0.001731
   82  C 10  S    0.246727   0.000002  -0.037553  -0.078251   0.071638
   83  C 10  S    0.025935   0.000021   0.038512   0.078758  -0.069475
   84  C 10  X    0.000442   0.000020  -0.021438  -0.037886   0.017185
   85  C 10  Y   -0.000075   0.000005   0.003743   0.009173  -0.011492
   86  C 10  Z   -0.000186  -0.000006   0.008321   0.016035  -0.010654
   87  C 10  S   -0.011920  -0.000382   0.083459   0.177846  -0.189744
   88  C 10  X   -0.003132   0.000124   0.002457   0.002317   0.003071
   89  C 10  Y    0.002205  -0.000076  -0.000016   0.001740  -0.005498
   90  C 10  Z    0.002152  -0.000076  -0.000645  -0.000273  -0.003303
   91  C 11  S    0.012805  -0.000545  -0.061546   0.055861   0.036132
   92  C 11  S    0.001215   0.001405   0.062788  -0.055867  -0.035101
   93  C 11  X   -0.000068   0.000003   0.013927  -0.008402   0.008297
   94  C 11  Y   -0.000031   0.000638   0.031009  -0.026774  -0.016411
   95  C 11  Z   -0.000010  -0.000147  -0.013432   0.011269   0.004032
   96  C 11  S    0.000812  -0.005487   0.132188  -0.131638  -0.097720
   97  C 11  X   -0.000723  -0.000143   0.003593   0.000301   0.008458
   98  C 11  Y    0.001264  -0.003474  -0.004559   0.000346  -0.002711
   99  C 11  Z   -0.000084   0.001884  -0.001389  -0.000207  -0.002429
  100  H 12  S    0.000037   0.116755  -0.017681   0.018105   0.032294
  101  H 12  S    0.000127   0.023785  -0.008828   0.009087   0.017898
  102  H 13  S   -0.000129   0.025187   0.011752  -0.012964  -0.028168
  103  H 13  S    0.000180  -0.005614  -0.005311   0.005244   0.005528
  104  H 14  S   -0.000129   0.024123   0.016093  -0.015924  -0.027223
  105  H 14  S   -0.000794  -0.008649   0.005721  -0.000727   0.008200
  106  H 15  S   -0.000381   0.005042   0.031231  -0.031424  -0.045209
  107  H 15  S   -0.000614  -0.000837   0.001092   0.000204  -0.003522
  108  H 16  S   -0.000502   0.000486   0.045624  -0.016243   0.044963
  109  H 16  S   -0.001215   0.000666  -0.003138   0.002523   0.002752
  110  H 17  S   -0.000742   0.000925   0.045439  -0.016264   0.041719
  111  H 17  S    0.002107   0.000651  -0.005231   0.002054  -0.005421
  112  H 18  S   -0.001484   0.000043   0.040925   0.011380   0.058918
  113  H 18  S   -0.002107   0.002983  -0.000268   0.003670  -0.006068
  114  H 19  S   -0.001000   0.000208   0.039652   0.008013   0.062429
  115  H 19  S    0.004087  -0.000152  -0.003714  -0.007141  -0.003346
  116  H 20  S   -0.002075   0.000045   0.034101   0.039029   0.023731
  117  H 20  S    0.009786   0.000244  -0.000373   0.002008   0.002288
  118  H 21  S    0.000056   0.000051   0.018547   0.034030  -0.023363
  119  H 21  S    0.007133  -0.000497   0.002745  -0.002753   0.010785
  120  H 22  S   -0.000138  -0.000011   0.017017   0.034563  -0.030774
  121  H 22  S    0.004507   0.000030  -0.002569  -0.003868  -0.001015
  122  H 23  S   -0.000087  -0.000021   0.016995   0.034489  -0.030813
  123  H 23  S    0.004586  -0.000060  -0.002800  -0.003403  -0.001219
  124  H 24  S   -0.000585   0.000013   0.016105   0.035073  -0.036710
  125  H 24  S    0.003702   0.000026  -0.002880  -0.003821  -0.001855
  126  H 25  S   -0.000638   0.000016   0.016101   0.035162  -0.036735
  127  H 25  S    0.003662   0.000014  -0.003046  -0.003705  -0.001836
  128  H 26  S   -0.000337  -0.000002   0.017220   0.035303  -0.032520
  129  H 26  S    0.004098   0.000021  -0.000951   0.000736  -0.001335
  130  H 27  S   -0.000084   0.000524   0.026937  -0.024796  -0.016195
  131  H 27  S    0.000599  -0.000407  -0.003996   0.002586   0.002121
  132  H 28  S    0.000050   0.000263   0.027694  -0.024925  -0.014152
  133  H 28  S    0.000186  -0.000323  -0.000264   0.004727   0.008659
  134  H 29  S   -0.000197   0.000582   0.026786  -0.025479  -0.022121
  135  H 29  S   -0.000144   0.000536   0.000004   0.000235  -0.002749

                     16         17         18         19         20
                   -0.7140    -0.6848    -0.6733    -0.6290    -0.6030
                     A          A          A          A          A   
    1  O  1  S   -0.047157  -0.000230  -0.006436   0.036815  -0.015072
    2  O  1  S    0.043667   0.000214   0.005713  -0.034485   0.014635
    3  O  1  X    0.000693   0.000071   0.002016   0.001815  -0.005959
    4  O  1  Y    0.089194   0.000548   0.017216  -0.102182   0.036101
    5  O  1  Z    0.010941   0.000116   0.002978  -0.038046   0.022029
    6  O  1  S    0.178553   0.000862   0.026120  -0.146923   0.058810
    7  O  1  X    0.000048   0.000094   0.001364   0.001550  -0.004743
    8  O  1  Y    0.059016   0.000372   0.011826  -0.076127   0.028495
    9  O  1  Z   -0.001204   0.000060   0.000086  -0.025344   0.017935
   10  C  2  S    0.121538   0.000703   0.017605  -0.114782   0.048840
   11  C  2  S   -0.120169  -0.000660  -0.017037   0.112487  -0.048067
   12  C  2  X    0.009505   0.000326   0.011392  -0.004576  -0.019613
   13  C  2  Y    0.065229   0.000313   0.006989   0.021817  -0.027628
   14  C  2  Z    0.007588   0.000000  -0.001818  -0.036236   0.033052
   15  C  2  S   -0.349567  -0.002374  -0.059148   0.384608  -0.167798
   16  C  2  X    0.010970   0.000128   0.007043  -0.007418  -0.010050
   17  C  2  Y    0.030875   0.000169   0.001096  -0.004526  -0.004190
   18  C  2  Z    0.012366   0.000249   0.000364  -0.025856   0.024977
   19  C  3  S    0.084720   0.000657   0.022715   0.068823  -0.066936
   20  C  3  S   -0.090259  -0.000703  -0.024007  -0.071475   0.068687
   21  C  3  X   -0.009080   0.000410   0.024855  -0.042645  -0.019072
   22  C  3  Y   -0.080570  -0.000235  -0.001106   0.140885  -0.060234
   23  C  3  Z    0.030903   0.000094  -0.008319  -0.029103   0.032832
   24  C  3  S   -0.198047  -0.001964  -0.061539  -0.191435   0.198602
   25  C  3  X   -0.010409   0.000128   0.013340  -0.016513  -0.009857
   26  C  3  Y    0.001530   0.000352   0.013187   0.014281  -0.017322
   27  C  3  Z    0.009206  -0.000082  -0.007256   0.000542   0.011179
   28  C  4  S   -0.042401  -0.000191  -0.015612   0.082906  -0.002156
   29  C  4  S    0.042390   0.000131   0.015290  -0.086841   0.003826
   30  C  4  X    0.003003   0.001363   0.092208   0.051653  -0.108462
   31  C  4  Y   -0.106360   0.000510   0.031104  -0.115540   0.059764
   32  C  4  Z    0.029459  -0.000193  -0.043364   0.021427   0.042882
   33  C  4  S    0.113849   0.000560   0.045832  -0.241525   0.007252
   34  C  4  X    0.001396  -0.000162   0.009709   0.036680  -0.036534
   35  C  4  Y   -0.011163   0.000599   0.002782  -0.019914   0.016741
   36  C  4  Z   -0.000675  -0.000156  -0.008067  -0.002478   0.026245
   37  C  5  S   -0.004796  -0.000875  -0.117889  -0.000391   0.086183
   38  C  5  S    0.004973   0.000408   0.106301   0.002878  -0.078832
   39  C  5  X   -0.029544  -0.001092  -0.023265   0.052798   0.054428
   40  C  5  Y   -0.023519   0.002225   0.005944  -0.018325   0.016363
   41  C  5  Z    0.002681   0.001317  -0.011619   0.016698   0.076189
   42  C  5  S    0.015359   0.004565   0.379985  -0.017126  -0.306563
   43  C  5  X    0.004130  -0.000201  -0.003694   0.016115   0.012767
   44  C  5  Y   -0.015235  -0.001318  -0.000162  -0.012940   0.011918
   45  C  5  Z    0.001808   0.003044   0.007555   0.004659   0.020794
   46  C  6  S    0.035491  -0.002886   0.017178  -0.050375  -0.116849
   47  C  6  S   -0.032313   0.003539  -0.013120   0.045753   0.106176
   48  C  6  X   -0.019251  -0.004209  -0.093532  -0.019574   0.014153
   49  C  6  Y   -0.003247   0.009104   0.001670  -0.008133   0.000674
   50  C  6  Z    0.003512   0.005370  -0.025525   0.009472   0.068007
   51  C  6  S   -0.107421  -0.000240  -0.065672   0.170432   0.419981
   52  C  6  X   -0.005884   0.003232  -0.008040  -0.012404  -0.001243
   53  C  6  Y    0.002347   0.006570   0.006133  -0.005767  -0.006751
   54  C  6  Z    0.003703   0.001464   0.001793  -0.002648   0.019884
   55  C  7  S    0.031677   0.027509   0.117208   0.043482   0.041781
   56  C  7  S   -0.032961  -0.029036  -0.121227  -0.045916  -0.044698
   57  C  7  X    0.017338  -0.029221  -0.024095  -0.064642  -0.133184
   58  C  7  Y   -0.000820   0.020626  -0.020925  -0.022837  -0.036962
   59  C  7  Z   -0.005624   0.018602  -0.010911   0.010359   0.039388
   60  C  7  S   -0.071995  -0.072189  -0.306263  -0.117641  -0.122420
   61  C  7  X    0.002232  -0.020404  -0.001864  -0.011092  -0.022385
   62  C  7  Y    0.001443   0.014033  -0.010466  -0.004250  -0.008866
   63  C  7  Z    0.000197   0.013089  -0.010654   0.004172   0.015374
   64  C  8  S   -0.007233   0.003564   0.024524   0.034451   0.065409
   65  C  8  S    0.007373  -0.004362  -0.027554  -0.036406  -0.068404
   66  C  8  X    0.028402  -0.055136   0.115771   0.057009   0.071757
   67  C  8  Y    0.016888   0.114611   0.078395   0.046219   0.065309
   68  C  8  Z   -0.001123   0.069256  -0.002586   0.003063   0.010421
   69  C  8  S    0.015665  -0.005610  -0.060205  -0.100994  -0.199893
   70  C  8  X    0.005756  -0.001888   0.014462   0.011329   0.012210
   71  C  8  Y    0.004122   0.011428   0.025318   0.019785   0.033241
   72  C  8  Z   -0.000060   0.005680   0.005784   0.004371   0.011727
   73  C  9  S   -0.018482  -0.165524  -0.048081  -0.019934  -0.023272
   74  C  9  S    0.018119   0.156677   0.047657   0.019673   0.022988
   75  C  9  X    0.006537  -0.008430   0.023426   0.009838   0.008522
   76  C  9  Y   -0.001535   0.009247   0.012995   0.016644   0.032033
   77  C  9  Z   -0.002728   0.006887  -0.001747   0.004423   0.012721
   78  C  9  S    0.052227   0.503664   0.139511   0.061380   0.073173
   79  C  9  X    0.003562   0.000920   0.016492   0.007688   0.008264
   80  C  9  Y    0.001145  -0.001421   0.008586   0.004821   0.008727
   81  C  9  Z   -0.000478  -0.000795  -0.002527   0.000390   0.004061
   82  C 10  S   -0.026745   0.131872  -0.086945  -0.040270  -0.056923
   83  C 10  S    0.025653  -0.124286   0.082631   0.037993   0.053252
[...]
    941    8.81226    1.13029    5.42313        -8.975095       8.977394       0.002298
    942    8.81226    1.13029    6.93491        -7.941872       7.941732      -0.000140
    943    8.81226    2.64207   -6.67112        -7.724188       7.726232       0.002044
    944    8.81226    2.64207   -5.15934        -8.649892       8.654893       0.005001
    945    8.81226    2.64207    0.88778       -11.673167      11.675662       0.002495
    946    8.81226    2.64207    5.42313        -8.726958       8.732760       0.005801
    947    8.81226    2.64207    6.93491        -7.762514       7.763713       0.001199
    948    8.81226    4.15385   -6.67112        -7.334114       7.336285       0.002172
    949    8.81226    4.15385   -5.15934        -8.059784       8.063308       0.003524
    950    8.81226    4.15385   -3.64756        -8.851199       8.856583       0.005384
    951    8.81226    4.15385   -2.13578        -9.616477       9.622226       0.005749
    952    8.81226    4.15385   -0.62400       -10.178489      10.182438       0.003948
    953    8.81226    4.15385    0.88778       -10.318574      10.319130       0.000556
    954    8.81226    4.15385    5.42313        -8.234400       8.238601       0.004201
    955    8.81226    4.15385    6.93491        -7.428150       7.429402       0.001252
    956    8.81226    5.66563   -3.64756        -8.032463       8.036326       0.003864
    957    8.81226    5.66563   -2.13578        -8.557106       8.561875       0.004769
    958    8.81226    5.66563   -0.62400        -8.932349       8.936959       0.004611
    959    8.81226    5.66563    0.88778        -9.025308       9.027437       0.002129
    960    8.81226    5.66563    2.39956        -8.771834       8.773158       0.001323
    961    8.81226    5.66563    3.91135        -8.251874       8.254134       0.002259
    962    8.81226    5.66563    5.42313        -7.620809       7.622567       0.001759
    963    8.81226    5.66563    6.93491        -6.997614       6.998278       0.000664
    964    8.81226    7.17742   -2.13578        -7.662869       7.666460       0.003591
    965    8.81226    7.17742   -0.62400        -7.900279       7.903706       0.003426
    966    8.81226    7.17742    0.88778        -7.950017       7.952311       0.002294
    967    8.81226    7.17742    2.39956        -7.784685       7.786037       0.001352
    968    8.81226    7.17742    3.91135        -7.443335       7.444396       0.001061
    969    8.81226    7.17742    5.42313        -7.003299       7.004034       0.000735
    970    8.81226    8.68920   -0.62400        -7.069003       7.071456       0.002453
    971    8.81226    8.68920    0.88778        -7.095127       7.096997       0.001871
    972   10.32405   -6.42861   -5.15934        -6.831832       6.833688       0.001856
    973   10.32405   -6.42861   -3.64756        -7.243211       7.245666       0.002455
    974   10.32405   -6.42861   -2.13578        -7.559309       7.561586       0.002277
    975   10.32405   -6.42861   -0.62400        -7.705459       7.706246       0.000787
    976   10.32405   -6.42861    0.88778        -7.649890       7.649020      -0.000869
    977   10.32405   -4.91683   -5.15934        -7.351858       7.354014       0.002156
    978   10.32405   -4.91683   -3.64756        -7.932501       7.936283       0.003782
    979   10.32405   -4.91683   -2.13578        -8.412442       8.416856       0.004415
    980   10.32405   -4.91683   -0.62400        -8.624126       8.624966       0.000840
    981   10.32405   -4.91683    0.88778        -8.504782       8.502757      -0.002025
    982   10.32405   -4.91683    2.39956        -8.141725       8.139119      -0.002605
    983   10.32405   -4.91683    3.91135        -7.656316       7.653741      -0.002575
    984   10.32405   -3.40505   -6.67112        -7.122767       7.123716       0.000949
    985   10.32405   -3.40505   -5.15934        -7.850154       7.851708       0.001554
    986   10.32405   -3.40505   -3.64756        -8.673683       8.677693       0.004010
    987   10.32405   -3.40505    0.88778        -9.527827       9.525776      -0.002052
    988   10.32405   -3.40505    2.39956        -8.919058       8.917207      -0.001851
    989   10.32405   -3.40505    3.91135        -8.223598       8.221416      -0.002182
    990   10.32405   -3.40505    5.42313        -7.550714       7.548504      -0.002210
    991   10.32405   -1.89327   -6.67112        -7.367732       7.368341       0.000609
    992   10.32405   -1.89327   -5.15934        -8.233416       8.233639       0.000223
    993   10.32405   -1.89327   -3.64756        -9.313943       9.314384       0.000441
    994   10.32405   -1.89327    3.91135        -8.698775       8.699037       0.000262
    995   10.32405   -1.89327    5.42313        -7.878970       7.877719      -0.001252
    996   10.32405   -0.38149   -6.67112        -7.461446       7.462448       0.001002
    997   10.32405   -0.38149   -5.15934        -8.386814       8.388313       0.001499
    998   10.32405   -0.38149    3.91135        -8.954896       8.958064       0.003167
    999   10.32405   -0.38149    5.42313        -8.056875       8.057177       0.000302
   1000   10.32405    1.13029   -6.67112        -7.381135       7.383068       0.001933
   1001   10.32405    1.13029   -5.15934        -8.249198       8.253896       0.004698
   1002   10.32405    1.13029    3.91135        -8.910690       8.914754       0.004064
   1003   10.32405    1.13029    5.42313        -8.042257       8.044159       0.001902
   1004   10.32405    1.13029    6.93491        -7.276212       7.276607       0.000395
   1005   10.32405    2.64207   -6.67112        -7.152184       7.154558       0.002374
   1006   10.32405    2.64207   -5.15934        -7.882575       7.887187       0.004613
   1007   10.32405    2.64207   -3.64756        -8.699702       8.709027       0.009326
   1008   10.32405    2.64207   -0.62400        -9.854972       9.855958       0.000986
   1009   10.32405    2.64207    0.88778        -9.780611       9.781594       0.000983
   1010   10.32405    2.64207    2.39956        -9.299641       9.303057       0.003416
   1011   10.32405    2.64207    3.91135        -8.591103       8.595469       0.004366
   1012   10.32405    2.64207    5.42313        -7.830985       7.833819       0.002834
   1013   10.32405    2.64207    6.93491        -7.125581       7.126657       0.001076
   1014   10.32405    4.15385   -5.15934        -7.414367       7.417774       0.003408
   1015   10.32405    4.15385   -3.64756        -8.015952       8.020471       0.004519
   1016   10.32405    4.15385   -2.13578        -8.543855       8.547853       0.003998
   1017   10.32405    4.15385   -0.62400        -8.866517       8.868642       0.002125
   1018   10.32405    4.15385    0.88778        -8.885269       8.886584       0.001315
   1019   10.32405    4.15385    2.39956        -8.591155       8.593463       0.002308
   1020   10.32405    4.15385    3.91135        -8.071252       8.074506       0.003254
   1021   10.32405    4.15385    5.42313        -7.459107       7.461542       0.002435
   1022   10.32405    4.15385    6.93491        -6.856835       6.857949       0.001114
   1023   10.32405    5.66563   -3.64756        -7.373680       7.376867       0.003187
   1024   10.32405    5.66563   -2.13578        -7.755102       7.758311       0.003209
   1025   10.32405    5.66563   -0.62400        -7.994282       7.996885       0.002603
   1026   10.32405    5.66563    0.88778        -8.026110       8.027964       0.001853
   1027   10.32405    5.66563    2.39956        -7.833009       7.834757       0.001748
   1028   10.32405    5.66563    3.91135        -7.461830       7.463747       0.001917
   1029   10.32405    5.66563    5.42313        -6.996374       6.997893       0.001519
   1030   10.32405    7.17742   -0.62400        -7.230525       7.232926       0.002402
   1031   10.32405    7.17742    0.88778        -7.254515       7.256399       0.001884
   1032   11.83583   -6.42861   -3.64756        -6.618756       6.620194       0.001438
   1033   11.83583   -6.42861   -2.13578        -6.854244       6.855431       0.001186
   1034   11.83583   -6.42861   -0.62400        -6.963393       6.963864       0.000471
   1035   11.83583   -4.91683   -5.15934        -6.704700       6.706069       0.001370
   1036   11.83583   -4.91683   -3.64756        -7.122219       7.123839       0.001620
   1037   11.83583   -4.91683   -2.13578        -7.447942       7.449234       0.001293
   1038   11.83583   -4.91683   -0.62400        -7.596636       7.596920       0.000284
   1039   11.83583   -4.91683    0.88778        -7.530692       7.530245      -0.000447
   1040   11.83583   -4.91683    2.39956        -7.287360       7.286595      -0.000765
   1041   11.83583   -3.40505   -5.15934        -7.071609       7.072699       0.001090
   1042   11.83583   -3.40505   -3.64756        -7.614879       7.615956       0.001076
   1043   11.83583   -3.40505   -2.13578        -8.067679       8.068149       0.000470
   1044   11.83583   -3.40505   -0.62400        -8.278261       8.277975      -0.000286
   1045   11.83583   -3.40505    0.88778        -8.168768       8.169172       0.000404
   1046   11.83583   -3.40505    2.39956        -7.814824       7.815336       0.000512
   1047   11.83583   -3.40505    3.91135        -7.350244       7.350019      -0.000224
   1048   11.83583   -1.89327   -5.15934        -7.342109       7.342877       0.000768
   1049   11.83583   -1.89327   -3.64756        -8.003352       8.003480       0.000129
   1050   11.83583   -1.89327   -2.13578        -8.593503       8.592907      -0.000596
   1051   11.83583   -1.89327   -0.62400        -8.890530       8.892294       0.001764
   1052   11.83583   -1.89327    2.39956        -8.256789       8.261805       0.005017
   1053   11.83583   -1.89327    3.91135        -7.675130       7.676695       0.001565
   1054   11.83583   -1.89327    5.42313        -7.101911       7.101958       0.000047
   1055   11.83583   -0.38149   -6.67112        -6.799588       6.800791       0.001203
   1056   11.83583   -0.38149   -5.15934        -7.448576       7.449936       0.001360
   1057   11.83583   -0.38149   -3.64756        -8.161124       8.162096       0.000972
   1058   11.83583   -0.38149   -2.13578        -8.811678       8.811710       0.000032
   1059   11.83583   -0.38149    2.39956        -8.465115       8.473768       0.008653
   1060   11.83583   -0.38149    3.91135        -7.835261       7.838348       0.003087
   1061   11.83583   -0.38149    5.42313        -7.223178       7.224142       0.000965
   1062   11.83583    1.13029   -6.67112        -6.741279       6.743015       0.001736
   1063   11.83583    1.13029   -5.15934        -7.359464       7.362033       0.002569
   1064   11.83583    1.13029   -3.64756        -8.021776       8.025083       0.003308
   1065   11.83583    1.13029   -2.13578        -8.604593       8.606509       0.001916
   1066   11.83583    1.13029   -0.62400        -8.899764       8.901209       0.001445
   1067   11.83583    1.13029    0.88778        -8.788358       8.794044       0.005686
   1068   11.83583    1.13029    2.39956        -8.354414       8.359643       0.005229
   1069   11.83583    1.13029    3.91135        -7.786743       7.789839       0.003096
   1070   11.83583    1.13029    5.42313        -7.198897       7.200466       0.001569
   1071   11.83583    2.64207   -5.15934        -7.108321       7.111261       0.002940
   1072   11.83583    2.64207   -3.64756        -7.657773       7.661467       0.003694
   1073   11.83583    2.64207   -2.13578        -8.119784       8.122602       0.002818
   1074   11.83583    2.64207   -0.62400        -8.362336       8.363813       0.001477
   1075   11.83583    2.64207    0.88778        -8.314123       8.316203       0.002080
   1076   11.83583    2.64207    2.39956        -8.010445       8.013242       0.002797
   1077   11.83583    2.64207    3.91135        -7.551469       7.554048       0.002579
   1078   11.83583    2.64207    5.42313        -7.032958       7.034716       0.001758
   1079   11.83583    4.15385   -5.15934        -6.764787       6.767393       0.002606
   1080   11.83583    4.15385   -3.64756        -7.200300       7.203311       0.003011
   1081   11.83583    4.15385   -2.13578        -7.556377       7.559055       0.002678
   1082   11.83583    4.15385   -0.62400        -7.755388       7.757366       0.001978
   1083   11.83583    4.15385    0.88778        -7.747986       7.749773       0.001787
   1084   11.83583    4.15385    2.39956        -7.540116       7.542127       0.002011
   1085   11.83583    4.15385    3.91135        -7.185370       7.187404       0.002034
   1086   13.34761   -3.40505   -3.64756        -6.731471       6.732274       0.000804
   1087   13.34761   -3.40505   -2.13578        -7.011006       7.011610       0.000604
   1088   13.34761   -3.40505   -0.62400        -7.142238       7.142826       0.000588
   1089   13.34761   -3.40505    0.88778        -7.091688       7.092533       0.000845
   1090   13.34761   -3.40505    2.39956        -6.884629       6.885412       0.000782
   1091   13.34761   -1.89327   -3.64756        -6.972781       6.973476       0.000695
   1092   13.34761   -1.89327   -2.13578        -7.304490       7.305012       0.000522
   1093   13.34761   -1.89327   -0.62400        -7.464568       7.465660       0.001093
   1094   13.34761   -1.89327    0.88778        -7.403116       7.405362       0.002246
   1095   13.34761   -1.89327    2.39956        -7.153767       7.155970       0.002202
   1096   13.34761   -1.89327    3.91135        -6.799465       6.800709       0.001244
   1097   13.34761   -0.38149   -5.15934        -6.630476       6.631660       0.001184
   1098   13.34761   -0.38149   -3.64756        -7.068545       7.069567       0.001022
   1099   13.34761   -0.38149   -2.13578        -7.422794       7.423614       0.000820
   1100   13.34761   -0.38149   -0.62400        -7.597737       7.599359       0.001622
   1101   13.34761   -0.38149    0.88778        -7.536827       7.540057       0.003230
   1102   13.34761   -0.38149    2.39956        -7.274580       7.277744       0.003164
   1103   13.34761   -0.38149    3.91135        -6.901671       6.903630       0.001959
   1104   13.34761    1.13029   -5.15934        -6.574399       6.576055       0.001655
   1105   13.34761    1.13029   -3.64756        -6.993091       6.994770       0.001679
   1106   13.34761    1.13029   -2.13578        -7.328543       7.329956       0.001413
   1107   13.34761    1.13029   -0.62400        -7.496516       7.498191       0.001676
   1108   13.34761    1.13029    0.88778        -7.449797       7.452441       0.002644
   1109   13.34761    1.13029    2.39956        -7.214889       7.217673       0.002784
   1110   13.34761    1.13029    3.91135        -6.865196       6.867238       0.002043
   1111   13.34761    2.64207   -3.64756        -6.774936       6.777003       0.002066
   1112   13.34761    2.64207   -2.13578        -7.066058       7.067916       0.001857
   1113   13.34761    2.64207   -0.62400        -7.215979       7.217693       0.001715
   1114   13.34761    2.64207    0.88778        -7.189949       7.191912       0.001962
   1115   13.34761    2.64207    2.39956        -7.002112       7.004196       0.002084
   1116   14.85939   -1.89327   -0.62400        -6.477732       6.478753       0.001021
   1117   14.85939   -1.89327    0.88778        -6.448732       6.449997       0.001265
   1118   14.85939   -0.38149   -0.62400        -6.557484       6.558784       0.001300
   1119   14.85939   -0.38149    0.88778        -6.529475       6.531109       0.001634
   1120   14.85939   -0.38149    2.39956        -6.379986       6.381600       0.001614
   1121   14.85939    1.13029   -0.62400        -6.506505       6.507941       0.001435
   1122   14.85939    1.13029    0.88778        -6.484067       6.485729       0.001663

 NET CHARGES:
 -------------------------------------
 ATOM                CHARGE    E.S.D.
 -------------------------------------
 O                  -0.6554    0.0242
 C                   0.4798    0.3405
 C                  -0.3933    0.2375
 C                   0.0712    0.3403
 C                  -0.0602    0.6476
 C                   0.3327    0.5150
 C                  -0.4473    0.2331
 C                   0.1647    0.1996
 C                  -0.2716    0.4483
 C                  -0.3379    0.3808
 C                  -0.4143    0.6476
 H                   0.3882    0.0081
 H                  -0.0554    0.0256
 H                  -0.0459    0.0378
 H                   0.1763    0.0200
 H                   0.0329    0.0416
 H                   0.0180    0.0605
 H                  -0.0219    0.0619
 H                  -0.0503    0.0362
 H                   0.1496    0.0206
 H                   0.0891    0.0464
 H                   0.0796    0.0290
 H                   0.0912    0.0295
 H                   0.0969    0.0252
 H                   0.1060    0.0268
 H                   0.0987    0.0308
 H                   0.1261    0.0410
 H                   0.1302    0.0538
 H                   0.1226    0.0417
 -------------------------------------

 RMS DEVIATION IS            1.090 KCAL/MOLE
 RELATIVE RMS DEVIATION IS  16.450 %

 MULTIPOLE MOMENTS:
 ---------------------------------------------------------
 STATUS  ACTUAL VALUE       QUANTITY        FITTED VALUE 
 ---------------------------------------------------------
 FIXED       0.0000       TOTAL CHARGE        -0.0000
             1.5479 D    DIPOLE MOMENT         1.5594 D
 FREE        0.4635 D          DX              0.4576 D
 FREE        0.4071 D          DY              0.4022 D
 FREE       -1.4197 D          DZ             -1.4355 D
 FREE        0.0000 BU         QXX            -1.1623 BU
 FREE        0.0000 BU         QYY             7.7314 BU
 FREE        0.0000 BU         QZZ            -6.5690 BU
 FREE        0.0000 BU         QXY             0.6513 BU
 FREE        0.0000 BU         QXZ             4.1822 BU
 FREE        0.0000 BU         QYZ            -5.3056 BU
 ---------------------------------------------------------
 ...... END OF PROPERTY EVALUATION ......
 CPU     0: STEP CPU TIME=     0.81 TOTAL CPU TIME=         41.8 (      0.7 MIN)
 TOTAL WALL CLOCK TIME=         61.5 SECONDS, CPU UTILIZATION IS    68.02%
              1116036  WORDS OF DYNAMIC MEMORY USED
 EXECUTION OF GAMESS TERMINATED NORMALLY Mon May 25 19:23:13 2020
 DDI: 263640 bytes (0.3 MB / 0 MWords) used by master data server.
Note: The following floating-point exceptions are signalling: IEEE_UNDERFLOW_FLAGNote: The following floating-point exceptions are signalling: IEEE_UNDERFLOW_FLAGNote: The following floating-point exceptions are signalling: IEEE_UNDERFLOW_FLAG
 ----------------------------------------
 CPU timing information for all processes
 ========================================
 0: 41.436 + 0.403 = 41.839
 1: 40.405 + 0.133 = 40.538
 2: 39.723 + 0.116 = 39.839
 3: 40.678 + 0.161 = 40.839
 4: 39.818 + 0.128 = 39.947
 5: 39.183 + 0.60 = 39.243
 ----------------------------------------
 IEEE_DENORMAL IEEE_DENORMAL
 IEEE_DENORMAL
Note: The following floating-point exceptions are signalling: IEEE_UNDERFLOW_FLAGNote: The following floating-point exceptions are signalling: IEEE_UNDERFLOW_FLAG
Note: The following floating-point exceptions are signalling: IEEE_DENORMAL
 IEEE_DENORMAL
 IEEE_UNDERFLOW_FLAG IEEE_DENORMAL
 ddikick.x: exited gracefully.
unset echo
----- accounting info -----
Files used on the master node pietdev were:
-rwxr-xr-x 1 piet piet     1332 mei 25 19:22 /home/piet/scr/nerol_charge_chelpg.F05*
-rw-r--r-- 1 piet piet 45875200 mei 25 19:23 /home/piet/scr/nerol_charge_chelpg.F10
ls: No match.
ls: No match.
ls: No match.
ma 25 mei 2020 19:23:16 CEST
0.103u 0.026s 1:04.64 0.1%	0+0k 0+8io 0pf+0w
