----- GAMESS execution script 'rungms' -----
This job is running on host pietdev
under operating system Linux at ma 25 mei 2020 19:23:34 CEST
Available scratch disk space (Kbyte units) at beginning of the job is
Filesystem     1K-blocks     Used Available Use% Mounted on
/dev/sda2      244568380 31071536 201003788  14% /
GAMESS temporary binary files will be written to /home/piet/scr
GAMESS supplementary output files will be written to /home/piet/gamess/scr
Copying input file nerol_fukui_base.inp to your run's scratch directory...
cp nerol_fukui_base.inp /home/piet/scr/nerol_fukui_base.F05
unset echo
 
Assuming a single but multicore node.
 
/home/piet/gamess/ddikick.x /home/piet/gamess/gamess.03.x nerol_fukui_base -ddi 1 6 pietdev:cpus=6 -scr /home/piet/scr

 Distributed Data Interface kickoff program.
 Initiating 6 compute processes on 1 nodes to run the following command:
 /home/piet/gamess/gamess.03.x nerol_fukui_base 

          ******************************************************
          *         GAMESS VERSION = 30 SEP 2019 (R2)          *
          *             FROM IOWA STATE UNIVERSITY             *
          * M.W.SCHMIDT, K.K.BALDRIDGE, J.A.BOATZ, S.T.ELBERT, *
          *   M.S.GORDON, J.H.JENSEN, S.KOSEKI, N.MATSUNAGA,   *
          *          K.A.NGUYEN, S.J.SU, T.L.WINDUS,           *
          *       TOGETHER WITH M.DUPUIS, J.A.MONTGOMERY       *
          *         J.COMPUT.CHEM.  14, 1347-1363(1993)        *
          **************** 64 BIT LINUX VERSION ****************

  SINCE 1993, STUDENTS AND POSTDOCS WORKING AT IOWA STATE UNIVERSITY
  AND ALSO IN THEIR VARIOUS JOBS AFTER LEAVING ISU HAVE MADE IMPORTANT
  CONTRIBUTIONS TO THE CODE:
     IVANA ADAMOVIC, CHRISTINE AIKENS, YURI ALEXEEV, POOJA ARORA,
     ANDREY ASADCHEV, ROB BELL, PRADIPTA BANDYOPADHYAY, JONATHAN BENTZ,
     COLLEEN BERTONI, BRETT BODE, KURT BRORSEN, CALEB CARLIN, GALINA CHABAN,
     WEI CHEN, CHEOL HO CHOI, PAUL DAY, ALBERT DEFUSCO, NUWAN DESILVA,
     TIM DUDLEY, DMITRI FEDOROV, ALEX FINDLATER, GRAHAM FLETCHER, 
     MARK FREITAG, KURT GLAESEMANN, EMILIE B GUIDEZ, ANASTASIA GUNINA, 
     DAN KEMP, SAROM SOK LEANG, GRANT MERRILL,
     NORIYUKI MINEZAWA, JONATHAN MULLIN,
     TAKESHI NAGATA, SEAN NEDD, HEATHER NETZLOFF, BOSILJKA NJEGIC, RYAN OLSON,
     MIKE PAK, BUU PHAM, DAVID POOLE,
     SPENCER PRUITT, LUKE ROSKOP, TOSAPORN SATTASATHUCHANA,
     JIM SHOEMAKER, LYUDMILA SLIPCHENKO,
     TONY SMITH, JIE SONG, TETSUYA TAKETSUGU, SIMON WEBB,
     JORGE LUIS GALVEZ VALLEJO, PENG XU, SOOHAENG YOO,
     FEDERICO ZAHARIEV

  ADDITIONAL CODE HAS BEEN PROVIDED BY COLLABORATORS IN OTHER GROUPS:
     IOWA STATE UNIVERSITY:
          JOE IVANIC, AARON WEST, LAIMUTIS BYTAUTAS, KLAUS RUEDENBERG
     UNIVERSITY OF TOKYO: KIMIHIKO HIRAO, TAKAHITO NAKAJIMA,
          TAKAO TSUNEDA, MUNEAKI KAMIYA, SUSUMU YANAGISAWA,
          KIYOSHI YAGI, MAHITO CHIBA, SEIKEN TOKURA, NAOAKI KAWAKAMI
     UNIVERSITY OF AARHUS: FRANK JENSEN
     UNIVERSITY OF IOWA: VISVALDAS KAIRYS, HUI LI
     NATIONAL INST. OF STANDARDS AND TECHNOLOGY: WALT STEVENS, DAVID GARMER
     UNIVERSITY OF PISA: BENEDETTA MENNUCCI, JACOPO TOMASI
     UNIVERSITY OF MEMPHIS: HENRY KURTZ, PRAKASHAN KORAMBATH
     UNIVERSITY OF ALBERTA: TOBY ZENG, MARIUSZ KLOBUKOWSKI
     UNIVERSITY OF NEW ENGLAND: MARK SPACKMAN
     MIE UNIVERSITY: HIROAKI UMEDA
     NAT. INST. OF ADVANCED INDUSTRIAL SCIENCE AND TECHNOLOGY: KAZUO KITAURA
     MICHIGAN STATE UNIVERSITY:
          KAROL KOWALSKI, MARTA WLOCH, JEFFREY GOUR, JESSE LUTZ,
          WEI LI, JUN SHEN, J. EMILIANO DEUSTUA, PIOTR PIECUCH
     UNIVERSITY OF MINNESOTA:
          ANDREW SAND, PRACHI SHARMA, YINAN SHU
     UNIVERSITY OF SILESIA: MONIKA MUSIAL, STANISLAW KUCHARSKI
     FACULTES UNIVERSITAIRES NOTRE-DAME DE LA PAIX:
          OLIVIER QUINET, BENOIT CHAMPAGNE
     UNIVERSITY OF CALIFORNIA - SANTA BARBARA: BERNARD KIRTMAN
     INSTITUTE FOR MOLECULAR SCIENCE:
          KAZUYA ISHIMURA, MICHIO KATOUDA, AND SHIGERU NAGASE
     UNIVERSITY OF NOTRE DAME: ANNA POMOGAEVA, DAN CHIPMAN
     KYUSHU UNIVERSITY:
          HARUYUKI NAKANO,
          FENG LONG GU, JACEK KORCHOWIEC, MARCIN MAKOWSKI, AND YURIKO AOKI,
          HIROTOSHI MORI AND EISAKU MIYOSHI
     PENNSYLVANIA STATE UNIVERSITY:
          TZVETELIN IORDANOV, CHET SWALINA, JONATHAN SKONE,
          SHARON HAMMES-SCHIFFER
     WASEDA UNIVERSITY:
          MASATO KOBAYASHI, TOMOKO AKAMA, TSUGUKI TOUMA,
          TAKESHI YOSHIKAWA, YASUHIRO IKABATA, JUNJI SEINO,
          YUYA NAKAJIMA, HIROMI NAKAI
     NANJING UNIVERSITY: SHUHUA LI
     UNIVERSITY OF NEBRASKA:
          PEIFENG SU, DEJUN SI, NANDUN THELLAMUREGE, YALI WANG, HUI LI
     UNIVERSITY OF ZURICH: ROBERTO PEVERATI, KIM BALDRIDGE
     N. COPERNICUS UNIVERSITY AND JACKSON STATE UNIVERSITY:
          MARIA BARYSZ
     UNIVERSITY OF COPENHAGEN: Jimmy Kromann, CASPER STEINMANN
     TOKYO INSTITUTE OF TECHNOLOGY: HIROYA NAKATA
     NAGOYA UNIVERSITY: YOSHIO NISHIMOTO, STEPHAN IRLE
     MOSCOW STATE UNIVERSITY: VLADIMIR MIRONOV
     A.N.NESMEYANOV INSTITUTE OF ORGANOELEMENT COMPOUNDS OF RUSSIAN ACADEMY OF SCIENCES:
          IGOR S. GERASIMOV
     JOHANNES KEPLER UNIVERSITY LINZ:
          CHRISTIAN FRIEDL


 PARALLEL VERSION RUNNING ON        6 PROCESSORS IN        1 NODES.

 EXECUTION OF GAMESS BEGUN Mon May 25 19:23:34 2020

            ECHO OF THE FIRST FEW INPUT CARDS -
 INPUT CARD> $BASIS GBASIS=N21 NGAUSS=3 $END                                                
 INPUT CARD> $CONTRL SCFTYP=UHF MAXIT=60 MULT=2 ICHARG=1 $END                               
 INPUT CARD> $SYSTEM MEMDDI=1000 MWORDS=30 $END                                             
 INPUT CARD> $SCF DIRSCF=.TRUE. $END                                                        
 INPUT CARD> $STATPT OPTTOL=0.0001 NSTEP=999 $END                                           
 INPUT CARD> $DATA                                                                          
 INPUT CARD>                                                                                
 INPUT CARD>C1                                                                              
 INPUT CARD>O 8.0000000 -2.52029 2.48217 0.42397                                            
 INPUT CARD>C 6.0000000 -2.45477 1.55258 -0.67516                                           
 INPUT CARD>C 6.0000000 -2.75856 0.18176 -0.15067                                           
 INPUT CARD>C 6.0000000 -1.94497 -0.88933 -0.12523                                          
 INPUT CARD>C 6.0000000 -0.51234 -0.89438 -0.62308                                          
 INPUT CARD>C 6.0000000 0.53133 -0.78642 0.52209                                            
 INPUT CARD>C 6.0000000 1.94372 -0.92199 0.01813                                            
 INPUT CARD>C 6.0000000 2.95467 -0.03832 0.09679                                            
 INPUT CARD>C 6.0000000 2.86642 1.32280 0.74618                                             
 INPUT CARD>C 6.0000000 4.31534 -0.36812 -0.47476                                           
 INPUT CARD>C 6.0000000 -2.43347 -2.20409 0.44011                                           
 INPUT CARD>H 1.0000000 -2.51047 3.38088 0.06861                                            
 INPUT CARD>H 1.0000000 -3.20532 1.82699 -1.43354                                           
 INPUT CARD>H 1.0000000 -1.46751 1.59759 -1.15009                                           
 INPUT CARD>H 1.0000000 -3.76117 0.07749 0.26379                                            
 INPUT CARD>H 1.0000000 -0.33076 -1.82766 -1.17497                                          
 INPUT CARD>H 1.0000000 -0.33187 -0.08102 -1.33143                                          
 INPUT CARD>H 1.0000000 0.37597 0.15839 1.05070                                             
 INPUT CARD>H 1.0000000 0.33781 -1.58446 1.25274                                            
 INPUT CARD>H 1.0000000 2.15368 -1.87207 -0.47863                                           
 INPUT CARD>H 1.0000000 1.87519 1.55348 1.14104                                             
 INPUT CARD>H 1.0000000 3.58534 1.39874 1.57313                                             
 INPUT CARD>H 1.0000000 3.13580 2.10918 0.02802                                             
 INPUT CARD>H 1.0000000 4.61440 0.36959 -1.23206                                            
 INPUT CARD>H 1.0000000 5.08767 -0.34297 0.30640                                            
 INPUT CARD>H 1.0000000 4.33353 -1.35866 -0.93897                                           
 INPUT CARD>H 1.0000000 -2.43390 -2.98463 -0.33293                                          
 INPUT CARD>H 1.0000000 -1.77792 -2.56016 1.24479                                           
 INPUT CARD>H 1.0000000 -3.44754 -2.12234 0.84213                                           
 INPUT CARD> $END                                                                           
   30000000 WORDS OF MEMORY AVAILABLE

     BASIS OPTIONS
     -------------
     GBASIS=N21          IGAUSS=       3      POLAR=NONE    
     NDFUNC=       0     NFFUNC=       0     DIFFSP=       F
     NPFUNC=       0      DIFFS=       F     BASNAM=        


     RUN TITLE
     ---------
                                                                                 

 THE POINT GROUP OF THE MOLECULE IS C1      
 THE ORDER OF THE PRINCIPAL AXIS IS     0

 ATOM      ATOMIC                      COORDINATES (BOHR)
           CHARGE         X                   Y                   Z
 O           8.0    -4.7626575096        4.6906211549        0.8011871270
 C           6.0    -4.6388426629        2.9339507740       -1.2758673979
 C           6.0    -5.2129225207        0.3434765955       -0.2847250146
 C           6.0    -3.6754603543       -1.6805900127       -0.2366503854
 C           6.0    -0.9681822125       -1.6901331289       -1.1774504684
 C           6.0     1.0040681091       -1.4861183113        0.9866070409
 C           6.0     3.6730981969       -1.7423084634        0.0342607322
 C           6.0     5.5835166841       -0.0724142998        0.1829065784
 C           6.0     5.4167483657        2.4997295366        1.4100757375
 C           6.0     8.1548101439       -0.6956459306       -0.8971663099
 C           6.0    -4.5985914993       -4.1651261523        0.8316873045
 H           1.0    -4.7441004004        6.3889367974        0.1296541000
 H           1.0    -6.0571765030        3.4525104823       -2.7089977924
 H           1.0    -2.7731917842        3.0190073407       -2.1733549612
 H           1.0    -7.1075806932        0.1464348668        0.4984908183
 H           1.0    -0.6250457677       -3.4537765987       -2.2203713438
 H           1.0    -0.6271433635       -0.1531055995       -2.5160378718
 H           1.0     0.7104802796        0.2993136992        1.9855350953
 H           1.0     0.6383683359       -2.9941952385        2.3673353339
 H           1.0     4.0698650652       -3.5376993298       -0.9044795495
 H           1.0     3.5435952749        2.9356515274        2.1562529410
 H           1.0     6.7753101728        2.6432353281        2.9727846431
 H           1.0     5.9258027523        3.9857722588        0.0529501222
 H           1.0     8.7199515977        0.6984238278       -2.3282558004
 H           1.0     9.6143022160       -0.6481193220        0.5790120426
 H           1.0     8.1891842596       -2.5674951105       -1.7743960107
 H           1.0    -4.5994040815       -5.6401328747       -0.6291464731
 H           1.0    -3.3597816281       -4.8380008847        2.3523120123
 H           1.0    -6.5149059317       -4.0106410528        1.5913949460

          INTERNUCLEAR DISTANCES (ANGS.)
          ------------------------------

                1 O          2 C          3 C          4 C          5 C     

   1 O       0.0000000    1.4410126 *  2.3830380 *  3.4640476    4.0656201  
   2 C       1.4410126 *  0.0000000    1.4988414 *  2.5544556 *  3.1246376  
   3 C       2.3830380 *  1.4988414 *  0.0000000    1.3452917 *  2.5351041 *
   4 C       3.4640476    2.5544556 *  1.3452917 *  0.0000000    1.5166769 *
   5 C       4.0656201    3.1246376    2.5351041 *  1.5166769 *  0.0000000  
   6 C       4.4727724    3.9775774    3.4947610    2.5615767 *  1.5531635 *
   7 C       5.6285342    5.0941989    4.8330316    3.8914687    2.5385317 *
   8 C       6.0361497    5.6911256    5.7228200    4.9779497    3.6429672  
   9 C       5.5194749    5.5125375    5.8091920    5.3667819    4.2669403  
  10 C       7.4604093    7.0401447    7.1026378    6.2916860    4.8585433  
  11 C       4.6870920    3.9187817    2.4793113 *  1.5122286 *  2.5566489 *
  12 H       0.9664662 *  1.9745828 *  3.2162091    4.3118508    4.7695709  
  13 H       2.0853945 *  1.1017107 *  2.1335725 *  3.2678053    3.9134181  
  14 H       2.0900939 *  1.0964792 *  2.1610703 *  2.7318633 *  2.7202948 *
  15 H       2.7107059 *  2.1827044 *  1.0898973 *  2.0939580 *  3.5051342  
  16 H       5.0916879    4.0233383    3.3137852    2.1419830 *  1.0993477 *
  17 H       3.8000729    2.7579057 *  2.7114704 *  2.1703399 *  1.0935646 *
  18 H       3.7657756    3.5965883    3.3569502    2.8048692 *  2.1677082 *
  19 H       5.0391542    4.6212900    3.8310051    2.7555565 *  2.1720189 *
  20 H       6.4513633    5.7449685    5.3344051    4.2296101    2.8433090 *
  21 H       4.5493845    4.6954379    5.0021765    4.7079064    3.8476535  
  22 H       6.3065923    6.4468134    6.6856259    6.2212555    5.1838903  
  23 H       5.6821873    5.6620437    6.2040598    5.9015906    4.7701393  
  24 H       7.6229411    7.1890728    7.4542084    6.7701763    5.3152554  
  25 H       8.1164213    7.8386843    7.8770286    7.0670248    5.7033410  
  26 H       7.9739845    7.3909357    7.3001405    6.3483861    4.8782987  
  27 H       5.5196253    4.5501463    3.1882046    2.1615906 *  2.8540716 *
  28 H       5.1623590    4.5890047    3.2291003    2.1671487 *  2.8045417 *
  29 H       4.7155236    4.0979017    2.6017729 *  2.1711323 *  3.5028738  

                6 C          7 C          8 C          9 C         10 C     

   1 O       4.4727724    5.6285342    6.0361497    5.5194749    7.4604093  
   2 C       3.9775774    5.0941989    5.6911256    5.5125375    7.0401447  
   3 C       3.4947610    4.8330316    5.7228200    5.8091920    7.1026378  
   4 C       2.5615767 *  3.8914687    4.9779497    5.3667819    6.2916860  
   5 C       1.5531635 *  2.5385317 *  3.6429672    4.2669403    4.8585433  
   6 C       0.0000000    1.5057226 *  2.5715969 *  3.1546269    3.9354055  
   7 C       1.5057226 *  0.0000000    1.3450204 *  2.5338734 *  2.4848127 *
   8 C       2.5715969 *  1.3450204 *  0.0000000    1.5106764 *  1.5122369 *
   9 C       3.1546269    2.5338734 *  1.5106764 *  0.0000000    2.5395421 *
  10 C       3.9354055    2.4848127 *  1.5122369 *  2.5395421 *  0.0000000  
  11 C       3.2873314    4.5805720    5.8172572    6.3734972    7.0536664  
  12 H       5.1792452    6.1933066    6.4466641    5.7970458    7.8065315  
  13 H       4.9615475    6.0147194    6.6156457    6.4708124    7.8929142  
  14 H       3.5320038    4.3988080    4.8771495    4.7385967    6.1450338  
  15 H       4.3861846    5.7969888    6.7189142    6.7608022    8.1224404  
  16 H       2.1696526 *  2.7234142 *  3.9513493    4.8824354    4.9200403  
  17 H       2.1629239 *  2.7761219 *  3.5837105    4.0640168    4.7342233  
  18 H       1.0937235 *  2.1659321 *  2.7565074 *  2.7660304 *  4.2570972  
  19 H       1.0991666 *  2.1312145 *  3.2518803    3.8862105    4.5038299  
  20 H       2.1936490 *  1.0924769 *  2.0821461 *  3.4950468    2.6333732 *
  21 H       2.7684275 *  2.7191129 *  2.1885069 *  1.0916339 *  3.5010981  
  22 H       3.8995623    3.2401742    2.1546382 *  1.0983893 *  2.8015260 *
  23 H       3.9257953    3.2571681    2.1562221 *  1.0985048 *  2.7894655 *
  24 H       4.5918256    3.2192679    2.1649334 *  2.8066843 *  1.0987066 *
  25 H       4.5829471    3.2097952    2.1648180 *  2.8110759 *  1.0987889 *
  26 H       4.1132566    2.6111134 *  2.1719465 *  3.4903252    1.0940710 *
  27 H       3.7889016    4.8519361    6.1564672    6.9146094    7.2400608  
  28 H       3.0001807    4.2472226    5.4840668    6.0741982    6.6999783  
  29 H       4.2093366    5.5843980    6.7739917    7.1933502    8.0668329  

               11 C         12 H         13 H         14 H         15 H     

   1 O       4.6870920    0.9664662 *  2.0853945 *  2.0900939 *  2.7107059 *
   2 C       3.9187817    1.9745828 *  1.1017107 *  1.0964792 *  2.1827044 *
   3 C       2.4793113 *  3.2162091    2.1335725 *  2.1610703 *  1.0898973 *
   4 C       1.5122286 *  4.3118508    3.2678053    2.7318633 *  2.0939580 *
   5 C       2.5566489 *  4.7695709    3.9134181    2.7202948 *  3.5051342  
   6 C       3.2873314    5.1792452    4.9615475    3.5320038    4.3861846  
   7 C       4.5805720    6.1933066    6.0147194    4.3988080    5.7969888  
   8 C       5.8172572    6.4466641    6.6156457    4.8771495    6.7189142  
   9 C       6.3734972    5.7970458    6.4708124    4.7385967    6.7608022  
  10 C       7.0536664    7.8065315    7.8929142    6.1450338    8.1224404  
  11 C       0.0000000    5.5978417    4.5117538    4.2325625    2.6456537 *
  12 H       5.5978417    0.0000000    2.2702082 *  2.3985659 *  3.5376166  
  13 H       4.5117538    2.2702082 *  0.0000000    1.7756553 *  2.5001297 *
  14 H       4.2325625    2.3985659 *  1.7756553 *  0.0000000    3.0936446  
  15 H       2.6456537 *  3.5376166    2.5001297 *  3.0936446    0.0000000  
  16 H       2.6779791 *  5.7815669    4.6568681    3.6090383    4.1793946  
  17 H       3.4731114    4.3233276    3.4507454    2.0347712 *  3.7854921  
  18 H       3.7211672    4.4362685    4.6670454    3.2114159    4.2120897  
  19 H       2.9536929 *  5.8454653    5.6042717    4.3770098    4.5322993  
  20 H       4.6900177    7.0460805    6.5813205    5.0598830    6.2719552  
  21 H       5.7597905    4.8706786    5.7021796    4.0527603    5.8920852  
  22 H       7.1056451    6.5841749    7.4388525    5.7434103    7.5783430  
  23 H       7.0562656    5.7878522    6.5134930    4.7791349    7.1938548  
  24 H       7.6871616    7.8436842    7.9569234    6.2051859    8.5131112  
  25 H       7.7491414    8.4649474    8.7469881    6.9898155    8.8589261  
  26 H       6.9576506    8.3856301    8.1992210    6.5142959    8.3086296  
  27 H       1.0985598 *  6.3786217    4.9958101    4.7537775    3.3903244  
  28 H       1.0972883 *  6.1004906    5.3346047    4.8081899    3.4427952  
  29 H       1.0939109 *  5.6357665    4.5644881    4.6612593    2.2961039 *

               16 H         17 H         18 H         19 H         20 H     

   1 O       5.0916879    3.8000729    3.7657756    5.0391542    6.4513633  
   2 C       4.0233383    2.7579057 *  3.5965883    4.6212900    5.7449685  
   3 C       3.3137852    2.7114704 *  3.3569502    3.8310051    5.3344051  
   4 C       2.1419830 *  2.1703399 *  2.8048692 *  2.7555565 *  4.2296101  
   5 C       1.0993477 *  1.0935646 *  2.1677082 *  2.1720189 *  2.8433090 *
   6 C       2.1696526 *  2.1629239 *  1.0937235 *  1.0991666 *  2.1936490 *
   7 C       2.7234142 *  2.7761219 *  2.1659321 *  2.1312145 *  1.0924769 *
   8 C       3.9513493    3.5837105    2.7565074 *  3.2518803    2.0821461 *
   9 C       4.8824354    4.0640168    2.7660304 *  3.8862105    3.4950468  
  10 C       4.9200403    4.7342233    4.2570972    4.5038299    2.6333732 *
  11 C       2.6779791 *  3.4731114    3.7211672    2.9536929 *  4.6900177  
  12 H       5.7815669    4.3233276    4.4362685    5.8454653    7.0460805  
  13 H       4.6568681    3.4507454    4.6670454    5.6042717    6.5813205  
  14 H       3.6090383    2.0347712 *  3.2114159    4.3770098    5.0598830  
  15 H       4.1793946    3.7854921    4.2120897    4.5322993    6.2719552  
  16 H       0.0000000    1.7536340 *  3.0655291    2.5298039 *  2.5805627 *
  17 H       1.7536340 *  0.0000000    2.4965772 *  3.0637783    3.1801080  
  18 H       3.0655291    2.4965772 *  0.0000000    1.7549366 *  3.1019141  
  19 H       2.5298039 *  3.0637783    1.7549366 *  0.0000000    2.5254199 *
  20 H       2.5805627 *  3.1801080    3.1019141    2.5254199 *  0.0000000  
  21 H       4.6542696    3.6953771    2.0499020 *  3.4960952    3.7993789  
  22 H       5.7704029    5.0961449    3.4801519    4.4213780    4.1179567  
  23 H       5.3817221    4.3208582    3.5310222    4.7928763    4.1317799  
  24 H       5.4116332    4.9677470    4.8187019    5.3180602    3.4128931  
  25 H       5.8101760    5.6676731    4.7964009    4.9998027    3.4003994  
  26 H       4.6937467    4.8530759    4.6821479    4.5629329    2.2863177 *
  27 H       2.5437784 *  3.7210863    4.4371586    3.4867179    4.7228073  
  28 H       2.9130854 *  3.8566962    3.4738203    2.3298856 *  4.3475422  
  29 H       3.7242243    4.3126268    4.4569563    3.8453596    5.7602697  

               21 H         22 H         23 H         24 H         25 H     

   1 O       4.5493845    6.3065923    5.6821873    7.6229411    8.1164213  
   2 C       4.6954379    6.4468134    5.6620437    7.1890728    7.8386843  
   3 C       5.0021765    6.6856259    6.2040598    7.4542084    7.8770286  
   4 C       4.7079064    6.2212555    5.9015906    6.7701763    7.0670248  
   5 C       3.8476535    5.1838903    4.7701393    5.3152554    5.7033410  
   6 C       2.7684275 *  3.8995623    3.9257953    4.5918256    4.5829471  
   7 C       2.7191129 *  3.2401742    3.2571681    3.2192679    3.2097952  
   8 C       2.1885069 *  2.1546382 *  2.1562221 *  2.1649334 *  2.1648180 *
   9 C       1.0916339 *  1.0983893 *  1.0985048 *  2.8066843 *  2.8110759 *
  10 C       3.5010981    2.8015260 *  2.7894655 *  1.0987066 *  1.0987889 *
  11 C       5.7597905    7.1056451    7.0562656    7.6871616    7.7491414  
  12 H       4.8706786    6.5841749    5.7878522    7.8436842    8.4649474  
  13 H       5.7021796    7.4388525    6.5134930    7.9569234    8.7469881  
  14 H       4.0527603    5.7434103    4.7791349    6.2051859    6.9898155  
  15 H       5.8920852    7.5783430    7.1938548    8.5131112    8.8589261  
  16 H       4.6542696    5.7704029    5.3817221    5.4116332    5.8101760  
  17 H       3.6953771    5.0961449    4.3208582    4.9677470    5.6676731  
  18 H       2.0499020 *  3.4801519    3.5310222    4.8187019    4.7964009  
  19 H       3.4960952    4.4213780    4.7928763    5.3180602    4.9998027  
  20 H       3.7993789    4.1179567    4.1317799    3.4128931    3.4003994  
  21 H       0.0000000    1.7706663 *  1.7710882 *  3.8126724    3.8227182  
  22 H       1.7706663 *  0.0000000    1.7590270 *  3.1602540    2.6258625 *
  23 H       1.7710882 *  1.7590270 *  0.0000000    2.6077256 *  3.1464792  
  24 H       3.8126724    3.1602540    2.6077256 *  0.0000000    1.7602799 *
  25 H       3.8227182    2.6258625 *  3.1464792    1.7602799 *  0.0000000  
  26 H       4.3417089    3.8044302    3.7941456    1.7752853 *  1.7751901 *
  27 H       6.4292524    7.6862375    7.5563710    7.8573379    7.9975700  
  28 H       5.5025458    6.6742231    6.8867924    7.4551979    7.2754954  
  29 H       6.4755274    7.8989725    7.8682210    8.6894681    8.7351574  

               26 H         27 H         28 H         29 H     

   1 O       7.9739845    5.5196253    5.1623590    4.7155236  
   2 C       7.3909357    4.5501463    4.5890047    4.0979017  
   3 C       7.3001405    3.1882046    3.2291003    2.6017729 *
   4 C       6.3483861    2.1615906 *  2.1671487 *  2.1711323 *
   5 C       4.8782987    2.8540716 *  2.8045417 *  3.5028738  
   6 C       4.1132566    3.7889016    3.0001807    4.2093366  
   7 C       2.6111134 *  4.8519361    4.2472226    5.5843980  
   8 C       2.1719465 *  6.1564672    5.4840668    6.7739917  
   9 C       3.4903252    6.9146094    6.0741982    7.1933502  
  10 C       1.0940710 *  7.2400608    6.6999783    8.0668329  
  11 C       6.9576506    1.0985598 *  1.0972883 *  1.0939109 *
  12 H       8.3856301    6.3786217    6.1004906    5.6357665  
  13 H       8.1992210    4.9958101    5.3346047    4.5644881  
  14 H       6.5142959    4.7537775    4.8081899    4.6612593  
  15 H       8.3086296    3.3903244    3.4427952    2.2961039 *
  16 H       4.6937467    2.5437784 *  2.9130854 *  3.7242243  
  17 H       4.8530759    3.7210863    3.8566962    4.3126268  
  18 H       4.6821479    4.4371586    3.4738203    4.4569563  
  19 H       4.5629329    3.4867179    2.3298856 *  3.8453596  
  20 H       2.2863177 *  4.7228073    4.3475422    5.7602697  
  21 H       4.3417089    6.4292524    5.5025458    6.4755274  
  22 H       3.8044302    7.6862375    6.6742231    7.8989725  
  23 H       3.7941456    7.5563710    6.8867924    7.8682210  
  24 H       1.7752853 *  7.8573379    7.4551979    8.6894681  
  25 H       1.7751901 *  7.9975700    7.2754954    8.7351574  
  26 H       0.0000000    6.9863561    6.6001690    8.0187639  
  27 H       6.9863561    0.0000000    1.7605922 *  1.7753242 *
  28 H       6.6001690    1.7605922 *  0.0000000    1.7724143 *
  29 H       8.0187639    1.7753242 *  1.7724143 *  0.0000000  

  * ... LESS THAN  3.000


     ATOMIC BASIS SET
     ----------------
 THE CONTRACTED PRIMITIVE FUNCTIONS HAVE BEEN UNNORMALIZED
 THE CONTRACTED BASIS FUNCTIONS ARE NOW NORMALIZED TO UNITY

  SHELL TYPE  PRIMITIVE        EXPONENT          CONTRACTION COEFFICIENT(S)

 O         

      1   S       1           322.0370000    0.059239393389
      1   S       2            48.4308000    0.351499960776
      1   S       3            10.4206000    0.707657921031

      2   L       4             7.4029400   -0.404453583190    0.244586106967
      2   L       5             1.5762000    1.221561761397    0.853955373466

      3   L       6             0.3736840    1.000000000000    1.000000000000

 C         

      4   S       7           172.2560000    0.061766907377
      4   S       8            25.9109000    0.358794042852
      4   S       9             5.5333500    0.700713083689

      5   L      10             3.6649800   -0.395895162119    0.236459946619
      5   L      11             0.7705450    1.215834355681    0.860618805716

      6   L      12             0.1958570    1.000000000000    1.000000000000

 C         

      7   S      13           172.2560000    0.061766907377
      7   S      14            25.9109000    0.358794042852
      7   S      15             5.5333500    0.700713083689

      8   L      16             3.6649800   -0.395895162119    0.236459946619
      8   L      17             0.7705450    1.215834355681    0.860618805716

      9   L      18             0.1958570    1.000000000000    1.000000000000

 C         

     10   S      19           172.2560000    0.061766907377
     10   S      20            25.9109000    0.358794042852
     10   S      21             5.5333500    0.700713083689

     11   L      22             3.6649800   -0.395895162119    0.236459946619
     11   L      23             0.7705450    1.215834355681    0.860618805716

     12   L      24             0.1958570    1.000000000000    1.000000000000

 C         

     13   S      25           172.2560000    0.061766907377
     13   S      26            25.9109000    0.358794042852
     13   S      27             5.5333500    0.700713083689

     14   L      28             3.6649800   -0.395895162119    0.236459946619
     14   L      29             0.7705450    1.215834355681    0.860618805716

     15   L      30             0.1958570    1.000000000000    1.000000000000

 C         

     16   S      31           172.2560000    0.061766907377
     16   S      32            25.9109000    0.358794042852
     16   S      33             5.5333500    0.700713083689

     17   L      34             3.6649800   -0.395895162119    0.236459946619
     17   L      35             0.7705450    1.215834355681    0.860618805716

     18   L      36             0.1958570    1.000000000000    1.000000000000

 C         

     19   S      37           172.2560000    0.061766907377
     19   S      38            25.9109000    0.358794042852
     19   S      39             5.5333500    0.700713083689

     20   L      40             3.6649800   -0.395895162119    0.236459946619
     20   L      41             0.7705450    1.215834355681    0.860618805716

     21   L      42             0.1958570    1.000000000000    1.000000000000

 C         

     22   S      43           172.2560000    0.061766907377
     22   S      44            25.9109000    0.358794042852
     22   S      45             5.5333500    0.700713083689

     23   L      46             3.6649800   -0.395895162119    0.236459946619
     23   L      47             0.7705450    1.215834355681    0.860618805716

     24   L      48             0.1958570    1.000000000000    1.000000000000

 C         

     25   S      49           172.2560000    0.061766907377
     25   S      50            25.9109000    0.358794042852
     25   S      51             5.5333500    0.700713083689

     26   L      52             3.6649800   -0.395895162119    0.236459946619
     26   L      53             0.7705450    1.215834355681    0.860618805716

     27   L      54             0.1958570    1.000000000000    1.000000000000

 C         

     28   S      55           172.2560000    0.061766907377
     28   S      56            25.9109000    0.358794042852
     28   S      57             5.5333500    0.700713083689

     29   L      58             3.6649800   -0.395895162119    0.236459946619
     29   L      59             0.7705450    1.215834355681    0.860618805716

     30   L      60             0.1958570    1.000000000000    1.000000000000

 C         

     31   S      61           172.2560000    0.061766907377
     31   S      62            25.9109000    0.358794042852
     31   S      63             5.5333500    0.700713083689

     32   L      64             3.6649800   -0.395895162119    0.236459946619
     32   L      65             0.7705450    1.215834355681    0.860618805716

     33   L      66             0.1958570    1.000000000000    1.000000000000

 H         

     34   S      67             5.4471780    0.156284978695
     34   S      68             0.8245472    0.904690876670

     35   S      69             0.1831916    1.000000000000

 H         

     36   S      70             5.4471780    0.156284978695
     36   S      71             0.8245472    0.904690876670

     37   S      72             0.1831916    1.000000000000

 H         

     38   S      73             5.4471780    0.156284978695
     38   S      74             0.8245472    0.904690876670

     39   S      75             0.1831916    1.000000000000

 H         

     40   S      76             5.4471780    0.156284978695
     40   S      77             0.8245472    0.904690876670

     41   S      78             0.1831916    1.000000000000

 H         

     42   S      79             5.4471780    0.156284978695
     42   S      80             0.8245472    0.904690876670

     43   S      81             0.1831916    1.000000000000

 H         

     44   S      82             5.4471780    0.156284978695
     44   S      83             0.8245472    0.904690876670

     45   S      84             0.1831916    1.000000000000

 H         

     46   S      85             5.4471780    0.156284978695
     46   S      86             0.8245472    0.904690876670

     47   S      87             0.1831916    1.000000000000

 H         

     48   S      88             5.4471780    0.156284978695
     48   S      89             0.8245472    0.904690876670

     49   S      90             0.1831916    1.000000000000

 H         

     50   S      91             5.4471780    0.156284978695
     50   S      92             0.8245472    0.904690876670

     51   S      93             0.1831916    1.000000000000

 H         

     52   S      94             5.4471780    0.156284978695
     52   S      95             0.8245472    0.904690876670

     53   S      96             0.1831916    1.000000000000

 H         

     54   S      97             5.4471780    0.156284978695
     54   S      98             0.8245472    0.904690876670

     55   S      99             0.1831916    1.000000000000

 H         

     56   S     100             5.4471780    0.156284978695
     56   S     101             0.8245472    0.904690876670

     57   S     102             0.1831916    1.000000000000

 H         

     58   S     103             5.4471780    0.156284978695
     58   S     104             0.8245472    0.904690876670

     59   S     105             0.1831916    1.000000000000

 H         

     60   S     106             5.4471780    0.156284978695
     60   S     107             0.8245472    0.904690876670

     61   S     108             0.1831916    1.000000000000

 H         

     62   S     109             5.4471780    0.156284978695
     62   S     110             0.8245472    0.904690876670

     63   S     111             0.1831916    1.000000000000

 H         

     64   S     112             5.4471780    0.156284978695
     64   S     113             0.8245472    0.904690876670

     65   S     114             0.1831916    1.000000000000

 H         

     66   S     115             5.4471780    0.156284978695
     66   S     116             0.8245472    0.904690876670

     67   S     117             0.1831916    1.000000000000

 H         

     68   S     118             5.4471780    0.156284978695
     68   S     119             0.8245472    0.904690876670

     69   S     120             0.1831916    1.000000000000

 TOTAL NUMBER OF BASIS SET SHELLS             =   69
 NUMBER OF CARTESIAN GAUSSIAN BASIS FUNCTIONS =  135
 NUMBER OF ELECTRONS                          =   85
 CHARGE OF MOLECULE                           =    1
 SPIN MULTIPLICITY                            =    2
 NUMBER OF OCCUPIED ORBITALS (ALPHA)          =   43
 NUMBER OF OCCUPIED ORBITALS (BETA )          =   42
 TOTAL NUMBER OF ATOMS                        =   29
 THE NUCLEAR REPULSION ENERGY IS      598.1739947073

     $CONTRL OPTIONS
     ---------------
 SCFTYP=UHF          RUNTYP=ENERGY       EXETYP=RUN     
 MPLEVL=       0     CITYP =NONE         CCTYP =NONE         VBTYP =NONE    
 DFTTYP=NONE         TDDFT =NONE    
 MULT  =       2     ICHARG=       1     NZVAR =       0     COORD =UNIQUE  
 PP    =NONE         RELWFN=NONE         LOCAL =NONE         NUMGRD=       F
 ISPHER=      -1     NOSYM =       0     MAXIT =      60     UNITS =ANGS    
 PLTORB=       F     MOLPLT=       F     AIMPAC=       F     FRIEND=        
 NPRINT=       7     IREST =       0     GEOM  =INPUT   
 NORMF =       0     NORMP =       0     ITOL  =      20     ICUT  =       9
 INTTYP=BEST         GRDTYP=BEST         QMTTOL= 1.0E-06

     $SYSTEM OPTIONS
     ---------------
  REPLICATED MEMORY=    30000000 WORDS (ON EVERY NODE).
 DISTRIBUTED MEMDDI=        1000 MILLION WORDS IN AGGREGATE,
 MEMDDI DISTRIBUTED OVER   6 PROCESSORS IS   166666666 WORDS/PROCESSOR.
 TOTAL MEMORY REQUESTED ON EACH PROCESSOR=   196666666 WORDS.
 TIMLIM=      525600.00 MINUTES, OR     365.0 DAYS.
 PARALL= T  BALTYP=  DLB     KDIAG=    0  COREFL= F
 MXSEQ2=     300 MXSEQ3=     150  mem10=         0

          ----------------
          PROPERTIES INPUT
          ----------------

     MOMENTS            FIELD           POTENTIAL          DENSITY
 IEMOM =       1   IEFLD =       0   IEPOT =       0   IEDEN =       0
 WHERE =COMASS     WHERE =NUCLEI     WHERE =NUCLEI     WHERE =NUCLEI  
 OUTPUT=BOTH       OUTPUT=BOTH       OUTPUT=BOTH       OUTPUT=BOTH    
 IEMINT=       0   IEFINT=       0                     IEDINT=       0
                                                       MORB  =       0
          EXTRAPOLATION IN EFFECT
          SOSCF IN EFFECT
          DIIS or SOSCF will be reset if energy rises
 ORBITAL PRINTING OPTION: NPREO=     1   135     2     1

     -------------------------------
     INTEGRAL TRANSFORMATION OPTIONS
     -------------------------------
     NWORD  =            0
     CUTOFF = 1.0E-09     MPTRAN =       0
     DIRTRF =       T     AOINTS =DUP     

          ----------------------
          INTEGRAL INPUT OPTIONS
          ----------------------
 NOPK  =       1 NORDER=       0 SCHWRZ=       T

     ------------------------------------------
     THE POINT GROUP IS C1 , NAXIS= 0, ORDER= 1
     ------------------------------------------

     DIMENSIONS OF THE SYMMETRY SUBSPACES ARE
 A   =  135

 ..... DONE SETTING UP THE RUN .....
 CPU     0: STEP CPU TIME=     0.02 TOTAL CPU TIME=          0.0 (      0.0 MIN)
 TOTAL WALL CLOCK TIME=          0.0 SECONDS, CPU UTILIZATION IS    66.67%

          ********************
          1 ELECTRON INTEGRALS
          ********************
 ...... END OF ONE-ELECTRON INTEGRALS ......
 CPU     0: STEP CPU TIME=     0.02 TOTAL CPU TIME=          0.0 (      0.0 MIN)
 TOTAL WALL CLOCK TIME=          0.0 SECONDS, CPU UTILIZATION IS    80.00%

          -------------
          GUESS OPTIONS
          -------------
          GUESS =HUCKEL            NORB  =       0          NORDER=       0
          MIX   =       F          PRTMO =       F          PUNMO =       F
          TOLZ  = 1.0E-08          TOLE  = 1.0E-05
          SYMDEN=       F          PURIFY=       F

 INITIAL GUESS ORBITALS GENERATED BY HUCKEL   ROUTINE.
 HUCKEL GUESS REQUIRES    174540 WORDS.

 SYMMETRIES FOR INITIAL GUESS ORBITALS FOLLOW.  ALPHA SET(S).
    43 ORBITALS ARE OCCUPIED (   11 CORE ORBITALS).
    12=A       13=A       14=A       15=A       16=A       17=A       18=A   
    19=A       20=A       21=A       22=A       23=A       24=A       25=A   
    26=A       27=A       28=A       29=A       30=A       31=A       32=A   
    33=A       34=A       35=A       36=A       37=A       38=A       39=A   
    40=A       41=A       42=A       43=A       44=A       45=A       46=A   
    47=A       48=A       49=A       50=A       51=A       52=A       53=A   

 SYMMETRIES FOR INITIAL GUESS ORBITALS FOLLOW.   BETA SET(S).
    42 ORBITALS ARE OCCUPIED (   11 CORE ORBITALS).
    12=A       13=A       14=A       15=A       16=A       17=A       18=A   
    19=A       20=A       21=A       22=A       23=A       24=A       25=A   
    26=A       27=A       28=A       29=A       30=A       31=A       32=A   
    33=A       34=A       35=A       36=A       37=A       38=A       39=A   
    40=A       41=A       42=A       43=A       44=A       45=A       46=A   
    47=A       48=A       49=A       50=A       51=A       52=A   
 ...... END OF INITIAL ORBITAL SELECTION ......
 CPU     0: STEP CPU TIME=     0.05 TOTAL CPU TIME=          0.1 (      0.0 MIN)
 TOTAL WALL CLOCK TIME=          0.1 SECONDS, CPU UTILIZATION IS    75.00%

                    ----------------------
                    AO INTEGRAL TECHNOLOGY
                    ----------------------
     S,P,L SHELL ROTATED AXIS INTEGRALS, REPROGRAMMED BY
        KAZUYA ISHIMURA (IMS) AND JOSE SIERRA (SYNSTAR).
     S,P,D,L SHELL ROTATED AXIS INTEGRALS PROGRAMMED BY
        KAZUYA ISHIMURA (INSTITUTE FOR MOLECULAR SCIENCE).
     S,P,D,F,G SHELL TO TOTAL QUARTET ANGULAR MOMENTUM SUM 5,
        ERIC PROGRAM BY GRAHAM FLETCHER (ELORET AND NASA ADVANCED
        SUPERCOMPUTING DIVISION, AMES RESEARCH CENTER).
     S,P,D,F,G,L SHELL GENERAL RYS QUADRATURE PROGRAMMED BY
        MICHEL DUPUIS (PACIFIC NORTHWEST NATIONAL LABORATORY).

          --------------------
          2 ELECTRON INTEGRALS
          --------------------

 DIRECT SCF METHOD SKIPS INTEGRAL STORAGE ON DISK.
 DIRECT TRANSFORMATION SKIPS AO INTEGRAL STORAGE ON DISK.
  ...... END OF TWO-ELECTRON INTEGRALS .....
 CPU     0: STEP CPU TIME=     0.02 TOTAL CPU TIME=          0.1 (      0.0 MIN)
 TOTAL WALL CLOCK TIME=          0.1 SECONDS, CPU UTILIZATION IS    78.57%

          ---------------------------
                  UHF SCF CALCULATION
          ---------------------------

     NUCLEAR ENERGY =       598.1739947073
     MAXIT = 60     NPUNCH=  2     MULT=  2
     EXTRAP=T  DAMP=F  SHIFT=F  RSTRCT=F  DIIS=F  SOSCF=T
     DENSITY MATRIX CONV=  2.00E-05
     SOSCF WILL OPTIMIZE    3956 ALPHA AND    3906 BETA ROTATION ANGLES.
     SOGTOL= 2.500E-01
     MEMORY REQUIRED FOR UHF/ROHF ITERS=    288630 WORDS.

 DIRECT SCF CALCULATION, SCHWRZ=T   FDIFF=T
 SCHWARZ INEQUALITY OVERHEAD:      8173 INTEGRALS, T=        0.00

                                                                                NONZERO     BLOCKS
 ITER EX      TOTAL ENERGY        E CHANGE  DENSITY CHANGE    ORB. GRAD       INTEGRALS    SKIPPED
   1  0     -460.0446961488  -460.0446961488   0.618261308   0.000000000       18709256    1856995
          ---------------START SECOND ORDER SCF---------------
   2  1     -461.0407428078    -0.9960466591   0.144926450   0.033260951       18569308    1892827
   3  2     -461.0956710280    -0.0549282201   0.088380583   0.012978235       18200709    1957154
   4  3     -461.1061011971    -0.0104301691   0.042087545   0.009855486       17786593    2008790
   5  4     -461.1100424720    -0.0039412750   0.183999173   0.011637076       17630179    2027210
   6  5     -461.1078319298     0.0022105422   0.137509162   0.013749118       18337219    1942545
   7  6     -461.1169995303    -0.0091676005   0.031625694   0.013359368       18185338    1964217
   8  7     -461.1206561436    -0.0036566133   0.062589979   0.006570722       17596633    2030845
   9  8     -461.1214496518    -0.0007935081   0.034412529   0.008287730       17850522    2003477
  10  9     -461.1226900442    -0.0012403924   0.005996273   0.001010041       17466160    2042586
  11 10     -461.1227588647    -0.0000688205   0.002942145   0.000552065       16149434    2141778
  12 11     -461.1227734458    -0.0000145810   0.001117944   0.000332162       15646591    2172219
  13 12     -461.1227763052    -0.0000028594   0.001490879   0.000142929       14411224    2250327
  14 13     -461.1227781145    -0.0000018094   0.000498531   0.000106937       14594488    2238609
  15 14     -461.1227786141    -0.0000004996   0.000749983   0.000112225       13869838    2283670
  16 15     -461.1227790784    -0.0000004643   0.000955740   0.000082748       13931561    2279997
  17 16     -461.1227795223    -0.0000004438   0.001566991   0.000085968       13826344    2287248
  18 17     -461.1227801227    -0.0000006004   0.001749582   0.000096505       14025124    2278309
  19 18     -461.1227806988    -0.0000005761   0.001245149   0.000073392       14054782    2280198
  20 19     -461.1227810718    -0.0000003730   0.000392113   0.000037828       13983246    2279501
  21 20     -461.1227811981    -0.0000001262   0.000103703   0.000011188       13358639    2314916
  22 21     -461.1227812220    -0.0000000239   0.000038972   0.000006945       12483397    2365076
  23 22     -461.1227812262    -0.0000000042   0.000023160   0.000003812       11591612    2414781
  24 23     -461.1227812272    -0.0000000010   0.000014699   0.000001537       10812342    2457060
  25 24     -461.1227812269     0.0000000002   0.000005007   0.000000549       10012711    2502432

          -----------------
          DENSITY CONVERGED
          -----------------
     TIME TO FORM FOCK OPERATORS=       8.9 SECONDS (       0.4 SEC/ITER)
     FOCK TIME ON FIRST ITERATION=       0.5, LAST ITERATION=       0.2
     TIME TO SOLVE SCF EQUATIONS=       0.4 SECONDS (       0.0 SEC/ITER)

 FINAL UHF ENERGY IS     -461.1227812269 AFTER  25 ITERATIONS

          --------------------
          SPIN SZ   =    0.500
          S-SQUARED =    0.820
          --------------------

  ----- ALPHA SET ----- 

          ------------
          EIGENVECTORS
          ------------

                      1          2          3          4          5
                  -20.5335   -11.4744   -11.4550   -11.3602   -11.3584
                     A          A          A          A          A   
    1  O  1  S    0.983448  -0.000001   0.000007   0.000001   0.000001
    2  O  1  S    0.097686  -0.000006   0.000052   0.000004   0.000010
    3  O  1  X    0.000182   0.000000   0.000010   0.000003   0.000004
    4  O  1  Y    0.000323  -0.000001   0.000012   0.000002  -0.000001
    5  O  1  Z   -0.003809   0.000004  -0.000006  -0.000001  -0.000001
    6  O  1  S   -0.044064   0.000029  -0.000269  -0.000023  -0.000049
    7  O  1  X   -0.000301  -0.000001  -0.000064  -0.000013  -0.000023
    8  O  1  Y    0.001387  -0.000001   0.000061   0.000000   0.000026
    9  O  1  Z    0.009378  -0.000021   0.000096   0.000008   0.000012
   10  C  2  S   -0.000856   0.000012  -0.000232  -0.000015  -0.000122
   11  C  2  S   -0.003544   0.000006  -0.000366  -0.000015  -0.000059
   12  C  2  X    0.000122   0.000001  -0.000074  -0.000008  -0.000029
   13  C  2  Y    0.001499  -0.000012  -0.000091  -0.000008  -0.000003
   14  C  2  Z    0.001164   0.000012   0.000034  -0.000001  -0.000010
   15  C  2  S    0.021074   0.000109   0.002661   0.000137   0.000302
   16  C  2  X   -0.002127   0.000027   0.000309   0.000056   0.000115
   17  C  2  Y    0.003533  -0.000113  -0.000953  -0.000058  -0.000149
   18  C  2  Z    0.008311  -0.000036   0.000387   0.000052   0.000121
   19  C  3  S    0.000099   0.000044   0.000015   0.000028  -0.000007
   20  C  3  S    0.000066   0.000075   0.000077   0.000032   0.000020
   21  C  3  X   -0.000079   0.000012   0.000013   0.000001  -0.000024
   22  C  3  Y   -0.000460   0.000010   0.000176   0.000014   0.000014
   23  C  3  Z   -0.000010  -0.000016  -0.000058   0.000003  -0.000017
   24  C  3  S   -0.003275  -0.000555  -0.000304  -0.000284  -0.000420
   25  C  3  X    0.000010  -0.000363  -0.001813  -0.000252  -0.000353
   26  C  3  Y   -0.006134   0.000091  -0.002440  -0.000054  -0.000154
   27  C  3  Z    0.000078   0.000182   0.001149  -0.000000   0.000106
   28  C  4  S    0.000005   0.000010  -0.000952  -0.000137  -0.000215
   29  C  4  S    0.000042  -0.000016  -0.001349  -0.000098  -0.000152
   30  C  4  X   -0.000076   0.000053  -0.000588  -0.000046  -0.000050
   31  C  4  Y   -0.000056  -0.000081  -0.000079  -0.000045  -0.000091
   32  C  4  Z    0.000148   0.000031   0.000053  -0.000022  -0.000027
   33  C  4  S   -0.001909   0.000671   0.005529   0.000301   0.000624
   34  C  4  X    0.002922   0.000078   0.006478   0.000284   0.000595
   35  C  4  Y    0.000038   0.000504   0.001214   0.000423   0.000654
   36  C  4  Z   -0.000755  -0.000338  -0.002048   0.000052  -0.000069
   37  C  5  S    0.000064   0.000109  -0.001265   0.000160  -0.000245
   38  C  5  S    0.000394   0.000114  -0.001081   0.000142   0.000023
   39  C  5  X    0.000112  -0.000048  -0.001147  -0.000014  -0.000093
   40  C  5  Y    0.000107   0.000006   0.000092   0.000061  -0.000004
   41  C  5  Z    0.000042  -0.000060  -0.000020  -0.000029  -0.000071
   42  C  5  S   -0.002606  -0.000994  -0.000941  -0.000906  -0.001135
   43  C  5  X    0.000369   0.000428   0.007452  -0.000272   0.000138
   44  C  5  Y   -0.000583   0.000534  -0.001951  -0.000359  -0.000180
   45  C  5  Z   -0.000517  -0.000131   0.000042  -0.000055  -0.000391
   46  C  6  S   -0.000035  -0.000629  -0.000976  -0.011760  -0.016171
   47  C  6  S   -0.000198  -0.000154  -0.001528  -0.001903  -0.002501
   48  C  6  X   -0.000051  -0.000538  -0.000315  -0.000326   0.000098
   49  C  6  Y   -0.000007   0.000055  -0.000468  -0.000060  -0.000175
   50  C  6  Z   -0.000047   0.000197  -0.000064   0.000107  -0.000120
   51  C  6  S    0.001289  -0.000721   0.015920   0.002641   0.007537
   52  C  6  X   -0.000034  -0.000698   0.012852   0.001241   0.001639
   53  C  6  Y    0.000184  -0.003075   0.004885   0.000011   0.000635
   54  C  6  Z   -0.000213  -0.001155  -0.000412  -0.000754  -0.000252
   55  C  7  S    0.000014  -0.003404   0.987051   0.001319   0.001284
   56  C  7  S    0.000080  -0.004812   0.099512  -0.000807  -0.000594
   57  C  7  X   -0.000001  -0.001515  -0.000018  -0.000779  -0.000551
   58  C  7  Y    0.000022  -0.001654   0.000993  -0.000058  -0.000715
   59  C  7  Z   -0.000008  -0.000296   0.000125   0.000227  -0.000158
   60  C  7  S   -0.000491   0.032158  -0.082967   0.000821   0.001067
   61  C  7  X    0.000257   0.013676  -0.000708   0.001216   0.006605
   62  C  7  Y   -0.000228   0.013579  -0.013577   0.002469  -0.000622
   63  C  7  Z   -0.000070   0.001942  -0.004988   0.000774  -0.002327
   64  C  8  S   -0.000003   0.987297   0.002796   0.000623   0.000792
   65  C  8  S   -0.000016   0.100153  -0.003932  -0.001225  -0.001502
   66  C  8  X    0.000008  -0.000495   0.002488  -0.000428   0.000346
   67  C  8  Y   -0.000011  -0.000690   0.001285   0.000289  -0.000629
   68  C  8  Z   -0.000010  -0.000112  -0.000115   0.000263  -0.000387
   69  C  8  S    0.000130  -0.087241   0.028244   0.012708   0.015769
   70  C  8  X   -0.000222   0.006160  -0.021834   0.014097  -0.002981
   71  C  8  Y    0.000079   0.006557  -0.008299  -0.007138   0.016213
   72  C  8  Z    0.000073   0.000789   0.002569  -0.007652   0.008277
   73  C  9  S    0.000004  -0.001085  -0.001085  -0.129209   0.978986
   74  C  9  S    0.000019  -0.001743  -0.000376  -0.015332   0.101099
   75  C  9  X   -0.000002   0.000365   0.000241  -0.000883   0.000204
   76  C  9  Y    0.000016   0.000325   0.000879   0.000477  -0.000065
   77  C  9  Z    0.000000   0.000055   0.000303   0.000478  -0.000101
   78  C  9  S   -0.000173   0.014194  -0.002580   0.016907  -0.084373
   79  C  9  X    0.000072  -0.002605   0.003159   0.001754  -0.000492
   80  C  9  Y    0.000007  -0.009209   0.000606  -0.003125   0.005095
   81  C  9  Z    0.000018  -0.003447  -0.000481  -0.001890   0.002507
   82  C 10  S   -0.000001  -0.001138  -0.001723   0.979029   0.128516
   83  C 10  S   -0.000003  -0.001845  -0.001488   0.101285   0.011179
   84  C 10  X   -0.000010   0.000278   0.000317  -0.000301   0.000081
   85  C 10  Y   -0.000002   0.000276   0.000145   0.000417  -0.000826
   86  C 10  Z    0.000005   0.000046  -0.000046   0.000286  -0.000400
   87  C 10  S    0.000116   0.015618   0.007650  -0.082923  -0.002778
   88  C 10  X   -0.000030  -0.010138  -0.002716   0.005192  -0.002264
   89  C 10  Y    0.000024  -0.000882   0.002030  -0.002017   0.001616
   90  C 10  Z    0.000014   0.002759   0.001934  -0.002535   0.001432
   91  C 11  S   -0.000003  -0.000020  -0.000089   0.000007  -0.000037
   92  C 11  S    0.000041  -0.000050  -0.000125   0.000001  -0.000044
   93  C 11  X   -0.000016   0.000040  -0.000065   0.000017   0.000007
   94  C 11  Y    0.000132   0.000021  -0.000019   0.000002   0.000010
   95  C 11  Z   -0.000113  -0.000019  -0.000007   0.000002   0.000016
   96  C 11  S    0.000925   0.000452   0.001139   0.000145   0.000360
   97  C 11  X   -0.000130   0.000013  -0.000700  -0.000093  -0.000026
   98  C 11  Y    0.000331   0.000039   0.000971   0.000092   0.000150
   99  C 11  Z    0.000206   0.000054  -0.000032  -0.000127  -0.000226
  100  H 12  S    0.003109  -0.000007   0.000019   0.000004   0.000004
  101  H 12  S    0.005442   0.000014   0.000069   0.000005  -0.000002
  102  H 13  S   -0.001567  -0.000004  -0.000083   0.000005  -0.000001
  103  H 13  S   -0.001653  -0.000004   0.000071   0.000016   0.000068
  104  H 14  S   -0.001272  -0.000020  -0.000074  -0.000015  -0.000026
  105  H 14  S   -0.000849   0.000014  -0.000591  -0.000019  -0.000035
  106  H 15  S    0.000246  -0.000016  -0.000268  -0.000013  -0.000024
  107  H 15  S   -0.000225  -0.000108  -0.000754  -0.000065  -0.000102
  108  H 16  S    0.000104  -0.000092  -0.000364  -0.000042  -0.000024
  109  H 16  S   -0.000241   0.000783  -0.001747   0.000141   0.000127
  110  H 17  S   -0.000028   0.000002  -0.000683   0.000118   0.000106
  111  H 17  S    0.000924  -0.000227   0.001450   0.000145  -0.000099
  112  H 18  S    0.000023   0.000350  -0.001415  -0.000208  -0.000050
  113  H 18  S   -0.000414   0.001459  -0.002341   0.000184  -0.002952
  114  H 19  S   -0.000051  -0.000119  -0.000878  -0.000069  -0.000297
  115  H 19  S   -0.000032  -0.000145   0.002875  -0.000050  -0.000256
  116  H 20  S   -0.000006  -0.000871  -0.001434   0.000127  -0.000489
  117  H 20  S   -0.000051   0.001424   0.009236   0.000200  -0.000406
  118  H 21  S   -0.000004  -0.001068   0.000272  -0.000297   0.000058
  119  H 21  S    0.000128  -0.001243   0.001784  -0.000397   0.015236
  120  H 22  S    0.000005  -0.001031  -0.000013  -0.000533   0.000524
  121  H 22  S   -0.000015   0.002346  -0.000190  -0.002905   0.014088
  122  H 23  S    0.000011  -0.000990   0.000037  -0.000535   0.000527
  123  H 23  S    0.000011   0.002217  -0.000113  -0.002847   0.014114
  124  H 24  S   -0.000004  -0.001054  -0.000354   0.000477  -0.000449
  125  H 24  S   -0.000013   0.002202  -0.000098   0.014253   0.000778
  126  H 25  S   -0.000005  -0.001082  -0.000401   0.000480  -0.000456
  127  H 25  S    0.000000   0.002246  -0.000151   0.014251   0.000828
  128  H 26  S    0.000002  -0.001020  -0.000124   0.000324  -0.000305
  129  H 26  S   -0.000010  -0.001738  -0.000128   0.013449   0.002951
  130  H 27  S   -0.000017   0.000000  -0.000053   0.000002  -0.000025
  131  H 27  S    0.000153  -0.000053   0.000379  -0.000047  -0.000066
  132  H 28  S   -0.000032   0.000038   0.000051  -0.000006  -0.000009
  133  H 28  S   -0.000139  -0.000220   0.000105   0.000132   0.000126
  134  H 29  S    0.000000  -0.000025  -0.000140  -0.000011  -0.000014
  135  H 29  S   -0.000369  -0.000052  -0.000286  -0.000039  -0.000005

                      6          7          8          9         10
                  -11.3542   -11.3277   -11.3260   -11.2993   -11.2855
                     A          A          A          A          A   
    1  O  1  S   -0.000009   0.000037  -0.000192  -0.000000   0.000005
    2  O  1  S   -0.000084   0.000258  -0.000577   0.000017  -0.000319
    3  O  1  X   -0.000007   0.000046   0.000060  -0.000005   0.000108
    4  O  1  Y    0.000041  -0.000015  -0.000147  -0.000037   0.000726
    5  O  1  Z    0.000012  -0.000004  -0.000599  -0.000025   0.000017
    6  O  1  S    0.000333  -0.001407   0.008422  -0.000095  -0.000156
    7  O  1  X    0.000031  -0.000207  -0.000092   0.000178  -0.000579
    8  O  1  Y   -0.000238   0.000501  -0.003079   0.000008  -0.001691
    9  O  1  Z   -0.000071   0.000439  -0.001373   0.000165  -0.000000
   10  C  2  S    0.000160  -0.039175   0.986929   0.003094   0.004162
   11  C  2  S   -0.000008  -0.004890   0.101569   0.000206  -0.001827
   12  C  2  X    0.000098  -0.000318  -0.000056   0.000111  -0.000407
   13  C  2  Y   -0.000131  -0.000114  -0.000070   0.000631   0.000229
   14  C  2  Z    0.000208  -0.000044  -0.000249  -0.000223  -0.000243
   15  C  2  S    0.000759   0.010082  -0.084097  -0.001525   0.018883
   16  C  2  X    0.000245   0.000499   0.001717  -0.003043   0.003156
   17  C  2  Y    0.000076  -0.002318   0.009710   0.001038  -0.011978
   18  C  2  Z   -0.001087   0.001669  -0.000779   0.000774   0.002999
   19  C  3  S    0.000498  -0.002335  -0.004858  -0.006277   0.986979
   20  C  3  S    0.000372  -0.000755  -0.003058  -0.005090   0.098854
   21  C  3  X    0.000202  -0.000653  -0.000528  -0.001598   0.000814
   22  C  3  Y    0.000118   0.000495  -0.000705   0.001450   0.000267
   23  C  3  Z    0.000053   0.000030   0.000349   0.000119  -0.000391
   24  C  3  S   -0.001616   0.001891   0.021689   0.031243  -0.082230
   25  C  3  X   -0.001295  -0.002037   0.005286   0.013001  -0.014045
   26  C  3  Y    0.000896  -0.008949   0.017984  -0.013462   0.002097
   27  C  3  Z    0.000328   0.003037  -0.007253  -0.000308   0.004368
   28  C  4  S   -0.003471  -0.001403  -0.003065   0.987532   0.005609
   29  C  4  S   -0.001672  -0.001314  -0.000525   0.100284  -0.003639
   30  C  4  X   -0.000780  -0.000508   0.000326   0.000499   0.001083
   31  C  4  Y    0.000044  -0.000206  -0.000783   0.000082  -0.002495
   32  C  4  Z    0.000037   0.000388   0.000107   0.000237   0.000348
   33  C  4  S    0.003741   0.014841   0.000133  -0.088079   0.028104
   34  C  4  X   -0.000740   0.022689  -0.004724   0.004209  -0.006513
   35  C  4  Y    0.000142   0.002637   0.000830  -0.005115   0.022139
   36  C  4  Z   -0.001419  -0.007720   0.001596  -0.000960  -0.004316
   37  C  5  S   -0.004506   0.987302   0.038902   0.001167   0.002514
   38  C  5  S   -0.002922   0.105368   0.003364  -0.000759  -0.000034
   39  C  5  X    0.000817   0.000379  -0.000082   0.000094   0.000846
   40  C  5  Y    0.000218  -0.000196  -0.000215  -0.000108  -0.000280
   41  C  5  Z    0.000023   0.000487   0.000215   0.000303  -0.000297
   42  C  5  S    0.021309  -0.099322   0.002050   0.012070  -0.002767
   43  C  5  X    0.009452   0.004166  -0.001491  -0.010122   0.000715
   44  C  5  Y   -0.000540   0.000149   0.000740   0.001132  -0.003038
   45  C  5  Z    0.010681  -0.007651  -0.000609  -0.001052   0.001385
   46  C  6  S    0.987895   0.003593  -0.000012   0.003257  -0.000389
   47  C  6  S    0.105382  -0.002114   0.000022  -0.000958   0.000235
   48  C  6  X    0.000413  -0.000608   0.000008   0.001542  -0.000054
   49  C  6  Y   -0.000334   0.000109   0.000085  -0.000082   0.000006
   50  C  6  Z   -0.000291  -0.000214   0.000037  -0.000141   0.000052
   51  C  6  S   -0.099431   0.021741  -0.000135  -0.000493  -0.000992
   52  C  6  X   -0.003559  -0.009604  -0.000625  -0.009791   0.000358
   53  C  6  Y    0.002554  -0.001947  -0.000567   0.000078   0.000373
   54  C  6  Z    0.007023  -0.009701  -0.000165   0.001249  -0.000410
   55  C  7  S    0.000542   0.001120   0.000181   0.000592   0.000006
   56  C  7  S   -0.001753  -0.000956  -0.000255  -0.001288  -0.000041
   57  C  7  X    0.000322   0.000646   0.000084   0.000419  -0.000041
   58  C  7  Y   -0.000310   0.000040  -0.000085  -0.000139  -0.000047
   59  C  7  Z   -0.000384   0.000051   0.000036  -0.000108  -0.000005
   60  C  7  S    0.019655   0.002438   0.001155   0.007107   0.000587
   61  C  7  X   -0.019404   0.001269  -0.000375  -0.006580   0.000474
   62  C  7  Y    0.001794   0.000674   0.000769   0.001689   0.000378
   63  C  7  Z    0.006360   0.000752   0.000108   0.002576   0.000117
   64  C  8  S    0.000753  -0.000063  -0.000006   0.000015  -0.000026
   65  C  8  S   -0.000207   0.000156   0.000050   0.000108   0.000066
   66  C  8  X    0.000666  -0.000075  -0.000016  -0.000056  -0.000045
   67  C  8  Y    0.000369   0.000105   0.000029   0.000250  -0.000004
   68  C  8  Z    0.000031  -0.000156   0.000003   0.000094   0.000013
   69  C  8  S    0.001634  -0.001809  -0.000563  -0.000344  -0.000544
   70  C  8  X   -0.000734   0.001067   0.000629   0.001644   0.000590
   71  C  8  Y   -0.005832   0.000711  -0.000087  -0.002937   0.000321
   72  C  8  Z   -0.002411   0.000407  -0.000080  -0.001656  -0.000072
   73  C  9  S    0.014264   0.000317   0.000112   0.000175   0.000009
   74  C  9  S    0.000750  -0.000087  -0.000044  -0.000247  -0.000017
   75  C  9  X    0.000239   0.000002   0.000011   0.000020   0.000000
   76  C  9  Y   -0.000209   0.000032  -0.000023  -0.000062  -0.000023
   77  C  9  Z   -0.000061  -0.000132  -0.000016  -0.000054  -0.000014
   78  C  9  S    0.004501   0.000377   0.000374   0.002300   0.000136
   79  C  9  X   -0.000733  -0.000413  -0.000197  -0.000167  -0.000194
   80  C  9  Y   -0.001029  -0.000109  -0.000061  -0.001275   0.000069
   81  C  9  Z   -0.000689   0.000513  -0.000002  -0.000504   0.000112
   82  C 10  S    0.013575  -0.000047   0.000023   0.000201  -0.000022
   83  C 10  S    0.000658  -0.000003   0.000007  -0.000011   0.000024
   84  C 10  X    0.000403   0.000029   0.000018   0.000179   0.000003
   85  C 10  Y    0.000053  -0.000033   0.000003   0.000037  -0.000003
   86  C 10  Z   -0.000144   0.000065  -0.000007  -0.000033  -0.000001
   87  C 10  S   -0.000497  -0.000124  -0.000238  -0.001339  -0.000224
   88  C 10  X   -0.000990  -0.000253   0.000053   0.000300   0.000068
   89  C 10  Y    0.000473   0.000037  -0.000066  -0.000015  -0.000095
   90  C 10  Z    0.000712  -0.000386  -0.000070  -0.000164  -0.000064
   91  C 11  S    0.000230  -0.004295  -0.001623  -0.004356  -0.009079
   92  C 11  S    0.000292  -0.002639  -0.000996  -0.002437  -0.002264
   93  C 11  X    0.000148  -0.000924  -0.000011   0.000180   0.000109
   94  C 11  Y    0.000010   0.000006  -0.000380  -0.000240  -0.000328
   95  C 11  Z   -0.000273   0.000443   0.000140  -0.000068   0.000061
   96  C 11  S   -0.000181   0.009006   0.001197   0.017320   0.008269
   97  C 11  X   -0.000675   0.001329   0.000504   0.001478   0.002486
   98  C 11  Y   -0.000620   0.002903   0.001167   0.010445   0.002559
   99  C 11  Z    0.002074  -0.002221  -0.000695  -0.002859  -0.001627
  100  H 12  S    0.000003   0.000062  -0.000178   0.000042   0.000505
  101  H 12  S    0.000092  -0.000047   0.002060  -0.000202   0.001558
  102  H 13  S   -0.000074  -0.000248   0.000606  -0.000110  -0.000993
  103  H 13  S   -0.000479  -0.000075   0.014788  -0.000144   0.003074
  104  H 14  S    0.000190  -0.000230   0.000052   0.000308  -0.001569
  105  H 14  S   -0.001266  -0.002656   0.015992   0.001630  -0.001992
  106  H 15  S   -0.000058  -0.000629  -0.000784  -0.000796  -0.001658
  107  H 15  S   -0.000300  -0.000823   0.002957   0.001738   0.009093
  108  H 16  S   -0.001374   0.001408  -0.000267  -0.000811  -0.000071
  109  H 16  S    0.000271   0.014778   0.000534   0.000500   0.000087
  110  H 17  S   -0.001326   0.000961  -0.000011  -0.000946   0.000272
  111  H 17  S    0.002211   0.015055  -0.002369  -0.000919   0.001768
  112  H 18  S    0.000798  -0.001348   0.000005  -0.000778  -0.000103
  113  H 18  S    0.015373   0.001460   0.000375  -0.000352   0.000433
  114  H 19  S    0.001324  -0.001432  -0.000066  -0.000544   0.000099
  115  H 19  S    0.015774   0.000344  -0.000052  -0.001290   0.000590
  116  H 20  S   -0.000633   0.000139   0.000015  -0.000101   0.000059
  117  H 20  S    0.002284  -0.000973   0.000197   0.001127  -0.000064
  118  H 21  S    0.000007   0.000033   0.000010  -0.000205   0.000028
  119  H 21  S   -0.002581  -0.000635  -0.000256   0.000217  -0.000315
  120  H 22  S   -0.000248  -0.000009  -0.000007  -0.000075  -0.000007
  121  H 22  S    0.000371  -0.000241   0.000011   0.000019   0.000001
  122  H 23  S   -0.000290  -0.000002  -0.000017  -0.000087  -0.000002
  123  H 23  S   -0.000034   0.000298   0.000009   0.000099   0.000014
  124  H 24  S   -0.000059  -0.000027   0.000004   0.000044   0.000013
  125  H 24  S    0.000346  -0.000122   0.000024   0.000035   0.000012
  126  H 25  S   -0.000084   0.000054   0.000016   0.000062   0.000011
  127  H 25  S    0.000178   0.000213   0.000010   0.000050   0.000019
  128  H 26  S   -0.000273  -0.000074  -0.000004  -0.000033  -0.000002
  129  H 26  S    0.001148   0.000133  -0.000008   0.000278  -0.000022
  130  H 27  S    0.000182  -0.000393  -0.000093  -0.001223  -0.000383
  131  H 27  S    0.000680  -0.001886  -0.000094   0.002355  -0.000219
  132  H 28  S    0.000467  -0.000515  -0.000085  -0.001151  -0.000359
  133  H 28  S   -0.002489  -0.000481   0.000118   0.001490  -0.000340
  134  H 29  S   -0.000137  -0.000447  -0.000298  -0.000992  -0.000146
  135  H 29  S   -0.000537   0.000789   0.000779  -0.001451  -0.000179

                     11         12         13         14         15
                  -11.2691    -1.4389    -1.3739    -1.2485    -1.1988
                     A          A          A          A          A   
    1  O  1  S    0.000012  -0.220798   0.001096   0.013667  -0.024661
    2  O  1  S    0.000091   0.205338  -0.001063  -0.012340   0.021901
    3  O  1  X    0.000032   0.003933  -0.000012  -0.000013   0.000449
    4  O  1  Y   -0.000024   0.014321  -0.000268  -0.009485   0.022611
    5  O  1  Z    0.000000  -0.072283   0.000306   0.001407   0.000063
    6  O  1  S   -0.000381   0.689326  -0.003264  -0.047751   0.089979
    7  O  1  X   -0.000100   0.005987   0.000132   0.000425  -0.000224
    8  O  1  Y    0.000251   0.007959  -0.000190  -0.004713   0.012368
    9  O  1  Z    0.000075  -0.096466   0.000349   0.003898  -0.005796
   10  C  2  S    0.001311  -0.076741  -0.000126  -0.017538   0.041228
   11  C  2  S   -0.000656   0.083150   0.000871   0.019660  -0.042747
   12  C  2  X   -0.000032  -0.004699   0.000343   0.001809   0.000907
   13  C  2  Y    0.000293   0.047228  -0.000724  -0.022495   0.044877
   14  C  2  Z   -0.000097   0.055757  -0.000269   0.000243  -0.001635
   15  C  2  S    0.002104   0.125837  -0.005531   0.027388  -0.095393
   16  C  2  X   -0.000141   0.004122  -0.000827  -0.001856   0.003252
   17  C  2  Y   -0.001165  -0.000542   0.002243   0.000202   0.006508
   18  C  2  Z    0.000745  -0.010720  -0.000532  -0.002963   0.006237
   19  C  3  S    0.008788  -0.019583  -0.001867  -0.054370   0.103285
   20  C  3  S   -0.000209   0.020406   0.001844   0.060948  -0.114439
   21  C  3  X   -0.000048   0.004700   0.001498   0.029490  -0.040698
   22  C  3  Y    0.000821   0.018874  -0.001552  -0.027074   0.038540
   23  C  3  Z   -0.000203  -0.002573   0.000006  -0.002419   0.004871
   24  C  3  S    0.001263   0.033629   0.004906   0.110861  -0.228961
   25  C  3  X    0.002624  -0.000702   0.005065   0.011272  -0.010465
   26  C  3  Y   -0.001885   0.013318   0.005018   0.005977   0.009562
   27  C  3  Z   -0.000540   0.008303  -0.002904  -0.006999   0.004807
   28  C  4  S    0.003938  -0.004987  -0.004810  -0.085893   0.112963
   29  C  4  S   -0.001197   0.005831   0.008023   0.095335  -0.120082
   30  C  4  X    0.000149  -0.001577   0.005270   0.018440   0.029959
   31  C  4  Y    0.000394   0.006203   0.000721   0.013564  -0.030483
   32  C  4  Z   -0.000299  -0.000400  -0.000707  -0.006006  -0.000096
   33  C  4  S    0.013948   0.012349  -0.004944   0.144446  -0.225787
   34  C  4  X   -0.007245  -0.006564  -0.014133  -0.015849  -0.005912
   35  C  4  Y   -0.013828  -0.005328  -0.004889  -0.008287   0.007548
   36  C  4  Z    0.006730   0.000236   0.006319   0.011299  -0.001185
   37  C  5  S    0.003843  -0.001912  -0.018741  -0.116291   0.037681
   38  C  5  S   -0.001796   0.001503   0.020528   0.112121  -0.034092
   39  C  5  X    0.000752  -0.001542   0.012719   0.004782   0.058433
   40  C  5  Y    0.000691   0.000742   0.000453   0.001975  -0.002258
   41  C  5  Z   -0.000699   0.000196   0.008326   0.033085   0.001705
   42  C  5  S    0.007043   0.007631   0.038729   0.300780  -0.113196
   43  C  5  X   -0.003123  -0.000343  -0.016200  -0.009116  -0.005561
   44  C  5  Y   -0.000498   0.002119   0.004414   0.003551  -0.001713
   45  C  5  Z    0.003524   0.002411  -0.003262   0.008249  -0.009880
   46  C  6  S   -0.000065  -0.000565  -0.054439  -0.120630  -0.057705
   47  C  6  S    0.000445   0.001175   0.054311   0.113436   0.050733
   48  C  6  X   -0.000066  -0.000176   0.036679  -0.007084   0.052719
   49  C  6  Y    0.000046   0.000176   0.002764  -0.008370  -0.004249
   50  C  6  Z   -0.000007  -0.000188  -0.013053  -0.030814  -0.002140
   51  C  6  S   -0.002376  -0.002827   0.108995   0.325436   0.171417
   52  C  6  X    0.002073   0.000085  -0.009195   0.024565  -0.006097
   53  C  6  Y    0.000136  -0.001115  -0.007684  -0.008938  -0.009132
   54  C  6  Z    0.001164   0.000430  -0.004775  -0.012743  -0.008688
   55  C  7  S    0.000071  -0.000365  -0.146206  -0.048093  -0.087748
   56  C  7  S   -0.000125   0.000312   0.164865   0.053744   0.091594
   57  C  7  X    0.000148  -0.000112   0.066717  -0.084341  -0.028032
   58  C  7  Y    0.000100   0.000094   0.066890  -0.018593  -0.002335
   59  C  7  Z    0.000061   0.000018   0.008309   0.012356   0.009361
   60  C  7  S   -0.000618   0.001648   0.312558   0.120270   0.265356
   61  C  7  X   -0.001111  -0.000511   0.002756   0.015525   0.001569
   62  C  7  Y   -0.000946   0.000589   0.013730   0.004974   0.014794
   63  C  7  Z   -0.000708   0.000294   0.003484  -0.006159   0.007302
   64  C  8  S    0.000000  -0.000219  -0.162217   0.060870   0.033303
   65  C  8  S   -0.000054   0.000263   0.178600  -0.064809  -0.034105
   66  C  8  X   -0.000063  -0.000158  -0.059600  -0.046126  -0.089744
   67  C  8  Y    0.000017  -0.000069  -0.052645  -0.022334  -0.066863
   68  C  8  Z    0.000004   0.000018  -0.004838   0.003110  -0.001948
   69  C  8  S    0.001234   0.000251   0.365230  -0.174834  -0.105811
   70  C  8  X   -0.000282   0.000544   0.007486  -0.003365  -0.007664
   71  C  8  Y   -0.000659  -0.000142  -0.018942   0.013406  -0.014049
   72  C  8  Z    0.000069  -0.000215  -0.009892   0.005917  -0.003546
   73  C  9  S    0.000025  -0.000079  -0.059398   0.049228   0.066306
   74  C  9  S   -0.000032   0.000054   0.062146  -0.047659  -0.064144
   75  C  9  X   -0.000001  -0.000026  -0.001524  -0.010642  -0.016248
   76  C  9  Y   -0.000028  -0.000091  -0.043167   0.019288   0.012510
   77  C  9  Z    0.000015  -0.000021  -0.019139   0.011923   0.010734
   78  C  9  S    0.000281   0.000526   0.123765  -0.134685  -0.184375
   79  C  9  X   -0.000025  -0.000152   0.000101  -0.003782  -0.007263
   80  C  9  Y    0.000095   0.000065   0.004547   0.002504   0.000864
   81  C  9  Z   -0.000125  -0.000009   0.001832   0.002208   0.003033
   82  C 10  S   -0.000001  -0.000056  -0.061013   0.060827   0.072984
   83  C 10  S    0.000020   0.000086   0.066475  -0.058994  -0.069165
   84  C 10  X    0.000018  -0.000036  -0.044790   0.021217   0.011477
   85  C 10  Y   -0.000003   0.000008   0.005617  -0.010428  -0.016116
   86  C 10  Z   -0.000015   0.000012   0.016517  -0.011479  -0.010780
   87  C 10  S   -0.000205  -0.000236   0.104859  -0.156138  -0.212576
   88  C 10  X    0.000075   0.000131   0.015041   0.003687   0.007349
   89  C 10  Y    0.000123  -0.000073  -0.000026  -0.004335  -0.006215
   90  C 10  Z    0.000001  -0.000062  -0.004954  -0.002744  -0.005336
   91  C 11  S    0.987492  -0.000688  -0.001575  -0.039503   0.063574
   92  C 11  S    0.102062   0.001650   0.002194   0.041983  -0.064643
   93  C 11  X    0.000307   0.000062   0.000952   0.012349  -0.009332
   94  C 11  Y   -0.000107   0.000830   0.001042   0.022371  -0.032970
   95  C 11  Z   -0.000041  -0.000189  -0.000356  -0.009645   0.013348
   96  C 11  S   -0.083808  -0.004971  -0.001917   0.079625  -0.150481
   97  C 11  X   -0.002489  -0.000308   0.001686   0.002759   0.000970
   98  C 11  Y   -0.004559  -0.003336  -0.002696  -0.004504   0.000696
   99  C 11  Z    0.002142   0.001591  -0.000379  -0.000793  -0.000920
  100  H 12  S   -0.000029   0.104829  -0.000611  -0.010726   0.022055
  101  H 12  S    0.000079   0.016111  -0.000382  -0.004945   0.010639
  102  H 13  S   -0.000123   0.024856   0.000184   0.007005  -0.017734
  103  H 13  S    0.000167  -0.005003  -0.000245  -0.004414   0.008312
  104  H 14  S   -0.000171   0.024222   0.000463   0.010986  -0.022367
  105  H 14  S   -0.000047  -0.007413   0.002190   0.006788   0.000174
  106  H 15  S    0.000098   0.005452   0.000994   0.020879  -0.043739
  107  H 15  S    0.000372  -0.001772   0.001717  -0.000465   0.001535
  108  H 16  S   -0.000583   0.000590   0.008949   0.052246  -0.015110
  109  H 16  S    0.000153   0.000372   0.000346  -0.005653   0.004388
  110  H 17  S   -0.000307   0.001201   0.008925   0.052819  -0.016753
  111  H 17  S    0.001742   0.000094  -0.004625  -0.009716  -0.002179
  112  H 18  S    0.000101   0.000197   0.023943   0.054499   0.024081
  113  H 18  S    0.000316   0.002462   0.000354  -0.008169  -0.004104
  114  H 19  S    0.000515   0.000331   0.020626   0.058079   0.026640
  115  H 19  S   -0.001418  -0.000152  -0.011496  -0.004875  -0.007743
  116  H 20  S   -0.000138   0.000151   0.057506   0.025405   0.047510
  117  H 20  S   -0.000337   0.000168  -0.010806  -0.000785   0.002686
  118  H 21  S    0.000046   0.000074   0.024694  -0.018119  -0.027292
  119  H 21  S   -0.000217  -0.000414  -0.004897   0.010761   0.006724
  120  H 22  S   -0.000001   0.000012   0.023492  -0.024908  -0.037441
  121  H 22  S    0.000027   0.000011  -0.009298   0.001962  -0.001587
  122  H 23  S   -0.000033   0.000007   0.023280  -0.024806  -0.037609
  123  H 23  S   -0.000078  -0.000063  -0.009254   0.001651  -0.001420
  124  H 24  S   -0.000005   0.000034   0.024400  -0.029772  -0.040287
  125  H 24  S    0.000009   0.000011  -0.009740   0.001986  -0.002087
  126  H 25  S    0.000015   0.000033   0.024537  -0.029860  -0.040146
  127  H 25  S   -0.000024  -0.000005  -0.009697   0.001861  -0.001709
  128  H 26  S    0.000008   0.000025   0.026724  -0.025718  -0.031030
  129  H 26  S    0.000126   0.000008  -0.002212   0.001628   0.004128
  130  H 27  S    0.000465   0.000547   0.000702   0.016819  -0.027749
  131  H 27  S    0.014337  -0.000479  -0.000857  -0.003587   0.004425
  132  H 28  S    0.000248   0.000333   0.000649   0.018221  -0.028050
  133  H 28  S    0.015008  -0.000269   0.001475   0.000955   0.006873
  134  H 29  S    0.000328   0.000640   0.000861   0.016051  -0.029138
  135  H 29  S    0.013806   0.000431   0.000700  -0.001927   0.001603

                     16         17         18         19         20
                   -1.1503    -1.1318    -1.0834    -1.0280    -0.9717
                     A          A          A          A          A   
    1  O  1  S   -0.008811  -0.024851  -0.044179  -0.009024   0.043772
    2  O  1  S    0.007750   0.021801   0.038937   0.007730  -0.039727
    3  O  1  X    0.000367   0.001103   0.000466   0.002283   0.004347
    4  O  1  Y    0.010270   0.031431   0.066772   0.018822  -0.089811
    5  O  1  Z    0.001217   0.004965   0.018414   0.005779  -0.054539
    6  O  1  S    0.033275   0.095108   0.173524   0.037169  -0.180549
    7  O  1  X    0.000166   0.000530   0.000475   0.001762   0.002810
    8  O  1  Y    0.006112   0.019307   0.044444   0.013376  -0.071275
    9  O  1  Z   -0.001206  -0.002188   0.005412   0.002332  -0.040650
   10  C  2  S    0.017781   0.053125   0.109137   0.023504  -0.131740
   11  C  2  S   -0.017950  -0.053221  -0.107110  -0.022920   0.125391
   12  C  2  X    0.001954   0.006474   0.006781   0.011901   0.005418
   13  C  2  Y    0.016032   0.043642   0.061185   0.009467   0.020947
   14  C  2  Z   -0.000438  -0.000388   0.009922  -0.000195  -0.053850
   15  C  2  S   -0.046077  -0.142661  -0.316678  -0.072804   0.450668
   16  C  2  X    0.001598   0.005335   0.007090   0.006102   0.000842
   17  C  2  Y    0.003405   0.011202   0.029654   0.002132  -0.013586
   18  C  2  Z    0.002479   0.006580   0.013806   0.001637  -0.039901
   19  C  3  S    0.034042   0.087411   0.078418   0.024993   0.081712
   20  C  3  S   -0.037176  -0.094901  -0.084227  -0.026088  -0.083414
   21  C  3  X   -0.007658  -0.013917  -0.007623   0.027158  -0.032620
   22  C  3  Y    0.006176   0.004721  -0.077909  -0.009359   0.157343
   23  C  3  Z    0.002053   0.006484   0.029188  -0.008557  -0.042719
   24  C  3  S   -0.080884  -0.213359  -0.193969  -0.072759  -0.252323
   25  C  3  X   -0.002732  -0.006433  -0.013447   0.011506  -0.013772
   26  C  3  Y    0.004750   0.013675  -0.000549   0.007956   0.024000
   27  C  3  Z    0.001233   0.002859   0.009179  -0.006505  -0.005971
   28  C  4  S    0.019898   0.031262  -0.048293  -0.021941   0.071553
   29  C  4  S   -0.021135  -0.033284   0.049407   0.021311  -0.074519
   30  C  4  X    0.025365   0.074361  -0.000124   0.094062   0.083419
   31  C  4  Y   -0.012622  -0.039055  -0.107488   0.032031  -0.124954
   32  C  4  Z   -0.003239  -0.010320   0.031101  -0.050673   0.001867
   33  C  4  S   -0.042064  -0.066514   0.120542   0.063269  -0.210104
   34  C  4  X   -0.000177   0.000264   0.004863   0.012226   0.042944
   35  C  4  Y    0.001326   0.001872  -0.010177   0.003787  -0.032078
   36  C  4  Z   -0.000442  -0.001672   0.000005  -0.013549  -0.010780
   37  C  5  S   -0.024552  -0.086995  -0.002291  -0.129955  -0.038646
   38  C  5  S    0.022322   0.079077   0.003132   0.112919   0.035472
   39  C  5  X    0.017200   0.033226  -0.035888  -0.044243   0.026824
   40  C  5  Y    0.000621  -0.004755  -0.025467   0.005639  -0.022200
   41  C  5  Z    0.008498   0.017580  -0.000632  -0.053070  -0.024854
   42  C  5  S    0.071466   0.264072   0.007833   0.466430   0.133691
   43  C  5  X    0.002801   0.009635  -0.000678   0.004607   0.018957
   44  C  5  Y   -0.002759  -0.007865  -0.013640   0.001450  -0.012146
   45  C  5  Z    0.003258   0.009083   0.000674  -0.003475  -0.010230
   46  C  6  S   -0.038821  -0.072251   0.042577   0.095245   0.018323
   47  C  6  S    0.035641   0.065516  -0.036906  -0.079752  -0.016020
   48  C  6  X   -0.010827  -0.053586  -0.005447  -0.073992  -0.025378
   49  C  6  Y    0.006640  -0.008459  -0.003764   0.009462  -0.006676
   50  C  6  Z   -0.000317  -0.017059  -0.002224  -0.069241  -0.029303
   51  C  6  S    0.117071   0.225954  -0.145127  -0.363458  -0.075351
   52  C  6  X    0.007922   0.005804  -0.005910  -0.015485  -0.015198
   53  C  6  Y    0.004364   0.000266  -0.002369   0.010788  -0.004586
   54  C  6  Z   -0.002487  -0.005621   0.001418  -0.015471  -0.015545
   55  C  7  S    0.040999   0.069154  -0.011040   0.009760   0.007228
   56  C  7  S   -0.043339  -0.072626   0.012288  -0.007044  -0.007092
   57  C  7  X   -0.071991  -0.087605   0.057510   0.145203   0.030370
   58  C  7  Y    0.018207  -0.043639   0.017082   0.052548   0.009919
   59  C  7  Z    0.029308   0.001170  -0.010151  -0.045391  -0.016654
   60  C  7  S   -0.129466  -0.220530   0.035808  -0.048618  -0.025619
   61  C  7  X   -0.026891  -0.016313   0.017881   0.043211   0.008865
   62  C  7  Y    0.012032  -0.020597   0.006231   0.008740   0.003854
   63  C  7  Z    0.013562  -0.007790  -0.003170  -0.029372  -0.009211
   64  C  8  S    0.004005   0.023108  -0.017818  -0.052287  -0.013596
   65  C  8  S   -0.004607  -0.025562   0.019063   0.053863   0.013804
   66  C  8  X   -0.032930   0.148102  -0.037907  -0.055046  -0.003937
   67  C  8  Y    0.156555   0.048617  -0.027449  -0.050342  -0.005922
   68  C  8  Z    0.080951  -0.026235  -0.000356  -0.013833  -0.006315
   69  C  8  S   -0.013238  -0.076107   0.061322   0.205914   0.054994
   70  C  8  X   -0.007727   0.037768  -0.012295  -0.029493  -0.001023
   71  C  8  Y    0.049855   0.027528  -0.014384  -0.034627  -0.005303
   72  C  8  Z    0.024423  -0.001329  -0.002346  -0.011815  -0.006172
   73  C  9  S   -0.168289   0.002916   0.008477   0.019108   0.003564
   74  C  9  S    0.156789  -0.001170  -0.008005  -0.017136  -0.003111
   75  C  9  X   -0.003416   0.021724  -0.004686  -0.004441   0.001762
   76  C  9  Y   -0.004125   0.007827  -0.006422  -0.023068  -0.007181
   77  C  9  Z   -0.000745  -0.003594  -0.001401  -0.011003  -0.005270
   78  C  9  S    0.511999  -0.014562  -0.027966  -0.071435  -0.014848
   79  C  9  X    0.004738   0.004974  -0.000936   0.002146   0.001617
   80  C  9  Y   -0.011589   0.002151   0.000202  -0.000806  -0.001546
   81  C  9  Z   -0.006496  -0.000659   0.000324  -0.003345  -0.002218
   82  C 10  S    0.095429  -0.128385   0.028769   0.047015   0.009128
   83  C 10  S   -0.087739   0.118374  -0.026109  -0.041643  -0.007783
   84  C 10  X    0.011613   0.013420  -0.012715  -0.044232  -0.014911
   85  C 10  Y    0.021838   0.010748  -0.003889  -0.003708   0.001455
   86  C 10  Z    0.006247   0.000349   0.002226   0.010361   0.004018
   87  C 10  S   -0.291717   0.410797  -0.098819  -0.174952  -0.038068
   88  C 10  X    0.009909  -0.008949  -0.000352  -0.008133  -0.004071
   89  C 10  Y    0.000374   0.006814  -0.002086  -0.001638   0.000056
   90  C 10  Z   -0.002768   0.006236  -0.000844   0.001610   0.000925
   91  C 11  S    0.014246   0.022103  -0.144859   0.087349  -0.084125
   92  C 11  S   -0.014015  -0.021616   0.136277  -0.080313   0.076782
[...]
             43  C  5  X      0.34876     0.51824
             44  C  5  Y      0.59303     0.59052
             45  C  5  Z      0.43051     0.54932
             46  C  6  S      1.98963     1.97623
             47  C  6  S      0.34428     0.41473
             48  C  6  X      0.50128     0.48416
             49  C  6  Y      0.57039     0.54473
             50  C  6  Z      0.54516     0.52159
             51  C  6  S      1.16845     0.56205
             52  C  6  X      0.26044     0.49265
             53  C  6  Y      0.63741     0.60607
             54  C  6  Z      0.50299     0.57966
             55  C  7  S      1.98884     1.97821
             56  C  7  S      0.41956     0.44876
             57  C  7  X      0.62213     0.60006
             58  C  7  Y      0.57131     0.54464
             59  C  7  Z      0.35372     0.34166
             60  C  7  S      0.95821     0.55545
             61  C  7  X      0.28703     0.48137
             62  C  7  Y      0.44287     0.50677
             63  C  7  Z      0.40470     0.41613
             64  C  8  S      1.98924     1.97811
             65  C  8  S      0.41640     0.44220
             66  C  8  X      0.61655     0.59439
             67  C  8  Y      0.58100     0.56240
             68  C  8  Z      0.33127     0.31814
             69  C  8  S      0.94679     0.54063
             70  C  8  X      0.34021     0.49221
             71  C  8  Y      0.38462     0.49001
             72  C  8  Z      0.35535     0.39244
             73  C  9  S      1.98844     1.97632
             74  C  9  S      0.35211     0.41462
             75  C  9  X      0.57475     0.54571
             76  C  9  Y      0.51378     0.49132
             77  C  9  Z      0.55033     0.52081
             78  C  9  S      1.16920     0.57824
             79  C  9  X      0.61316     0.61809
             80  C  9  Y      0.33051     0.52352
             81  C  9  Z      0.55562     0.60476
             82  C 10  S      1.98835     1.97637
             83  C 10  S      0.35291     0.41628
             84  C 10  X      0.51773     0.49628
             85  C 10  Y      0.56611     0.53656
             86  C 10  Z      0.55228     0.52272
             87  C 10  S      1.16043     0.58002
             88  C 10  X      0.33395     0.52115
             89  C 10  Y      0.59240     0.61108
             90  C 10  Z      0.57283     0.60940
             91  C 11  S      1.98836     1.97632
             92  C 11  S      0.35312     0.41293
             93  C 11  X      0.54808     0.51868
             94  C 11  Y      0.53266     0.50934
             95  C 11  Z      0.54169     0.50943
             96  C 11  S      1.13895     0.57474
             97  C 11  X      0.56313     0.60252
             98  C 11  Y      0.39194     0.54502
             99  C 11  Z      0.53177     0.59664
            100  H 12  S      0.42913     0.44419
            101  H 12  S      0.18589     0.30592
            102  H 13  S      0.47572     0.48432
            103  H 13  S      0.30476     0.43346
            104  H 14  S      0.48669     0.49451
            105  H 14  S      0.33855     0.45231
            106  H 15  S      0.46667     0.46643
            107  H 15  S      0.27232     0.41622
            108  H 16  S      0.46196     0.47436
            109  H 16  S      0.29432     0.42546
            110  H 17  S      0.46709     0.47820
            111  H 17  S      0.28850     0.42255
            112  H 18  S      0.46071     0.46864
            113  H 18  S      0.25158     0.40724
            114  H 19  S      0.44755     0.45436
            115  H 19  S      0.24681     0.39958
            116  H 20  S      0.46239     0.46333
            117  H 20  S      0.20930     0.38903
            118  H 21  S      0.46031     0.45902
            119  H 21  S      0.25851     0.40950
            120  H 22  S      0.44556     0.44330
            121  H 22  S      0.25274     0.39952
            122  H 23  S      0.44651     0.44449
            123  H 23  S      0.25623     0.40134
            124  H 24  S      0.44624     0.44377
            125  H 24  S      0.25403     0.40090
            126  H 25  S      0.44579     0.44324
            127  H 25  S      0.25251     0.40016
            128  H 26  S      0.46010     0.46005
            129  H 26  S      0.27246     0.41460
            130  H 27  S      0.46113     0.46425
            131  H 27  S      0.31317     0.43260
            132  H 28  S      0.46583     0.46872
            133  H 28  S      0.33203     0.44280
            134  H 29  S      0.46271     0.46313
            135  H 29  S      0.29377     0.42334

          ----- MULLIKEN ATOMIC OVERLAP POPULATIONS -----
          (OFF-DIAGONAL ELEMENTS NEED TO BE MULTIPLIED BY 2)

             1           2           3           4           5

    1    8.2930106
    2    0.2256868   5.0618964
    3   -0.0489298   0.2637908   5.2685219
    4    0.0011732  -0.0733762   0.5257173   5.4015670
    5    0.0000340  -0.0069440  -0.0605836   0.2889050   5.4763250
    6   -0.0000025   0.0004043  -0.0007133  -0.0758699   0.1840374
    7   -0.0000000  -0.0000048   0.0000072   0.0039157  -0.0693983
    8   -0.0000000   0.0000004   0.0000009  -0.0000630   0.0026950
    9    0.0000000  -0.0000010   0.0000001   0.0000015   0.0001168
   10   -0.0000000   0.0000000  -0.0000000   0.0000002  -0.0000447
   11   -0.0000068   0.0021927  -0.0645995   0.2549810  -0.0793955
   12    0.2672204  -0.0452681   0.0061233  -0.0001346   0.0000083
   13   -0.0340351   0.3671984  -0.0535000   0.0025126   0.0000851
   14   -0.0367315   0.3657677  -0.0633362   0.0022035  -0.0033382
   15    0.0013262  -0.0321094   0.3950316  -0.0435971   0.0021989
   16   -0.0000007   0.0000849   0.0011040  -0.0463136   0.3907589
   17   -0.0000587  -0.0004049  -0.0000412  -0.0384642   0.3883847
   18    0.0000552   0.0002633   0.0008176   0.0012142  -0.0355854
   19    0.0000002  -0.0000129   0.0001689  -0.0028767  -0.0331758
   20   -0.0000000   0.0000000  -0.0000005  -0.0000302  -0.0000629
   21   -0.0000015   0.0000019  -0.0000027  -0.0000089  -0.0000286
   22   -0.0000000   0.0000000  -0.0000000  -0.0000000  -0.0000019
   23   -0.0000000  -0.0000000   0.0000000   0.0000000  -0.0000021
   24    0.0000000  -0.0000000   0.0000000  -0.0000000   0.0000026
   25    0.0000000  -0.0000000  -0.0000000  -0.0000000  -0.0000001
   26   -0.0000000   0.0000000  -0.0000000   0.0000000  -0.0000024
   27   -0.0000001  -0.0000583   0.0004744  -0.0521211  -0.0005708
   28    0.0000005  -0.0000477   0.0009193  -0.0550609   0.0000473
   29   -0.0000007   0.0000926   0.0003258  -0.0446101   0.0026955

             6           7           8           9          10

    6    5.6433405
    7    0.2058013   5.4645402
    8   -0.0608470   0.2747898   5.6409762
    9   -0.0049695  -0.0526206   0.2026571   5.4565035
   10    0.0017253  -0.0732955   0.2105401  -0.0646658   5.4505798
   11    0.0007999  -0.0001055  -0.0000010   0.0000000  -0.0000000
   12   -0.0000017   0.0000000  -0.0000000  -0.0000000   0.0000000
   13   -0.0000138   0.0000001  -0.0000000   0.0000000   0.0000000
   14    0.0002294  -0.0000007   0.0000006  -0.0000002   0.0000000
   15   -0.0000448   0.0000004  -0.0000000   0.0000000   0.0000000
   16   -0.0560843   0.0002851   0.0002119  -0.0000051  -0.0000014
   17   -0.0477443  -0.0021442  -0.0000120   0.0000740  -0.0000043
   18    0.3807593  -0.0466254   0.0010924  -0.0003082   0.0000557
   19    0.3721822  -0.0450519   0.0016877   0.0001337  -0.0000362
   20   -0.0243876   0.3818438  -0.0504294   0.0014135   0.0007827
   21    0.0009151  -0.0023194  -0.0432094   0.3769730   0.0020332
   22    0.0000636   0.0015647  -0.0424560   0.3655052  -0.0008545
   23    0.0000887   0.0017150  -0.0426910   0.3660468  -0.0009883
   24   -0.0000350   0.0020848  -0.0416577  -0.0006386   0.3646698
   25   -0.0000350   0.0019630  -0.0417299  -0.0004674   0.3644880
   26    0.0001059   0.0014389  -0.0501158   0.0021481   0.3820153
   27   -0.0000439   0.0000011   0.0000000   0.0000000  -0.0000000
   28    0.0003941  -0.0000243  -0.0000003   0.0000000  -0.0000000
   29   -0.0000295   0.0000009   0.0000000  -0.0000000   0.0000000

            11          12          13          14          15

   11    5.3352460
   12    0.0000006   0.3913014
   13   -0.0000537  -0.0036094   0.5455334
   14    0.0000709  -0.0006448  -0.0405512   0.5944759
   15   -0.0022093   0.0000179  -0.0030348   0.0024811   0.4171677
   16   -0.0004054   0.0000001   0.0000042   0.0000323  -0.0000400
   17    0.0020615   0.0000027  -0.0000595   0.0046119   0.0000632
   18    0.0002185   0.0000016   0.0000048  -0.0000410  -0.0000117
   19    0.0020999  -0.0000000  -0.0000000  -0.0000033  -0.0000012
   20    0.0000077   0.0000000   0.0000000  -0.0000003  -0.0000000
   21    0.0000000   0.0000000  -0.0000001   0.0000128   0.0000000
   22    0.0000000  -0.0000000  -0.0000000   0.0000000   0.0000000
   23    0.0000000   0.0000000   0.0000000   0.0000002  -0.0000000
   24    0.0000000  -0.0000000  -0.0000000  -0.0000000  -0.0000000
   25   -0.0000000  -0.0000000  -0.0000000  -0.0000000  -0.0000000
   26   -0.0000000   0.0000000  -0.0000000  -0.0000000   0.0000000
   27    0.3764906   0.0000000   0.0000051   0.0000003   0.0000740
   28    0.3756866  -0.0000000  -0.0000007   0.0000012   0.0000886
   29    0.3866300   0.0000000  -0.0000022  -0.0000007   0.0015832

            16          17          18          19          20

   16    0.4841032
   17   -0.0224488   0.4704050
   18    0.0025721  -0.0011413   0.4206976
   19   -0.0011948   0.0024484  -0.0175139   0.4141601
   20    0.0017805   0.0001396   0.0015430  -0.0008835   0.3583773
   21   -0.0000005   0.0000037   0.0043114  -0.0000103   0.0000409
   22    0.0000000  -0.0000002  -0.0000327  -0.0000017  -0.0000329
   23    0.0000002  -0.0000033  -0.0000009  -0.0000026  -0.0000303
   24    0.0000000  -0.0000001   0.0000005  -0.0000001   0.0000411
   25    0.0000000   0.0000000   0.0000005   0.0000021   0.0000410
   26    0.0000009  -0.0000002  -0.0000006  -0.0000016   0.0015260
   27    0.0023282  -0.0000366   0.0000043  -0.0000567  -0.0000002
   28   -0.0005063   0.0000019  -0.0000468   0.0023508   0.0000042
   29    0.0000158  -0.0000402  -0.0000045  -0.0000509  -0.0000000

            21          22          23          24          25

   21    0.4147371
   22   -0.0170668   0.4073915
   23   -0.0174965  -0.0163010   0.4118233
   24   -0.0000175   0.0001195   0.0004789   0.4086237
   25   -0.0000154   0.0004236   0.0001141  -0.0159473   0.4066610
   26   -0.0000335  -0.0000174  -0.0000148  -0.0174479  -0.0172061
   27   -0.0000000  -0.0000000   0.0000000   0.0000000  -0.0000000
   28    0.0000001   0.0000000  -0.0000000  -0.0000000   0.0000000
   29    0.0000000   0.0000000  -0.0000000  -0.0000000   0.0000000

            26          27          28          29

   26    0.4301660
   27   -0.0000000   0.4986001
   28    0.0000000  -0.0306123   0.5258686
   29    0.0000000  -0.0201838  -0.0212081   0.4512624

          TOTAL MULLIKEN AND LOWDIN ATOMIC POPULATIONS
       ATOM         MULL.POP.    CHARGE          LOW.POP.     CHARGE
    1 O             8.668740   -0.668740         8.396349   -0.396349
    2 C             6.129153   -0.129153         5.970496    0.029504
    3 C             6.171296   -0.171296         6.098156   -0.098156
    4 C             6.049665   -0.049665         6.047693   -0.047693
    5 C             6.447160   -0.447160         6.138057   -0.138057
    6 C             6.520025   -0.520025         6.181887   -0.181887
    7 C             6.048361   -0.048361         5.873073    0.126927
    8 C             5.961440    0.038560         5.810544    0.189456
    9 C             6.647897   -0.647897         6.273409   -0.273409
   10 C             6.636999   -0.636999         6.269865   -0.269865
   11 C             6.589709   -0.589709         6.245625   -0.245625
   12 H             0.615018    0.384982         0.750109    0.249891
   13 H             0.780483    0.219517         0.917786    0.082214
   14 H             0.825240    0.174760         0.946823    0.053177
   15 H             0.738984    0.261016         0.882653    0.117347
   16 H             0.756281    0.243719         0.899819    0.100181
   17 H             0.755593    0.244407         0.900749    0.099251
   18 H             0.712299    0.287701         0.875875    0.124125
   19 H             0.694360    0.305640         0.853939    0.146061
   20 H             0.671683    0.328317         0.852362    0.147638
   21 H             0.718818    0.281182         0.868513    0.131487
   22 H             0.698303    0.301697         0.842814    0.157186
   23 H             0.702736    0.297264         0.845835    0.154165
   24 H             0.700277    0.299723         0.844670    0.155330
   25 H             0.698292    0.301708         0.843406    0.156594
   26 H             0.732561    0.267439         0.874654    0.125346
   27 H             0.774294    0.225706         0.896847    0.103153
   28 H             0.797856    0.202144         0.911522    0.088478
   29 H             0.756476    0.243524         0.886469    0.113531

          -------------------------------
          BOND ORDER AND VALENCE ANALYSIS     BOND ORDER THRESHOLD=0.050
          -------------------------------

                   BOND                       BOND                       BOND
  ATOM PAIR DIST  ORDER      ATOM PAIR DIST  ORDER      ATOM PAIR DIST  ORDER
    1   2  1.441  0.871        1  12  0.966  0.807        2   3  1.499  0.943
    2  13  1.102  0.889        2  14  1.096  0.900        3   4  1.345  1.768
    3  15  1.090  0.919        4   5  1.517  0.938        4  11  1.512  0.932
    5   6  1.553  0.831        5  16  1.099  0.908        5  17  1.094  0.910
    6   7  1.506  0.944        6  18  1.094  0.889        6  19  1.099  0.859
    7   8  1.345  1.313        7  20  1.092  0.883        8   9  1.511  0.926
    8  10  1.512  0.927        9  21  1.092  0.894        9  22  1.098  0.868
    9  23  1.099  0.871       10  24  1.099  0.870       10  25  1.099  0.868
   10  26  1.094  0.906       11  27  1.099  0.910       11  28  1.097  0.916
   11  29  1.094  0.921

                       TOTAL       BONDED        FREE
      ATOM            VALENCE     VALENCE     VALENCE
    1 O                 1.718       1.718       0.000
    2 C                 3.587       3.586       0.001
    3 C                 3.688       3.611       0.077
    4 C                 3.621       3.551       0.070
    5 C                 3.545       3.542       0.003
    6 C                 3.482       3.478       0.005
    7 C                 3.394       3.133       0.261
    8 C                 3.320       3.147       0.173
    9 C                 3.526       3.524       0.002
   10 C                 3.531       3.528       0.003
   11 C                 3.639       3.638       0.001
   12 H                 0.824       0.824       0.000
   13 H                 0.896       0.896       0.000
   14 H                 0.912       0.912       0.000
   15 H                 0.905       0.905       0.001
   16 H                 0.896       0.896       0.000
   17 H                 0.900       0.900       0.000
   18 H                 0.883       0.883       0.000
   19 H                 0.869       0.868       0.001
   20 H                 0.868       0.865       0.002
   21 H                 0.891       0.891       0.000
   22 H                 0.875       0.874       0.001
   23 H                 0.877       0.876       0.001
   24 H                 0.876       0.875       0.001
   25 H                 0.875       0.874       0.001
   26 H                 0.895       0.895       0.000
   27 H                 0.905       0.905       0.000
   28 H                 0.913       0.913       0.000
   29 H                 0.908       0.908       0.000

          -----------------------------------------
          ATOMIC SPIN DENSITY AT THE NUCLEUS (A.U.)
          -----------------------------------------
                            SPIN DENS    ALPHA DENS     BETA DENS
    1  O            8.0     0.0158112     116.73659     116.72078
    2  C            6.0    -0.0161462      46.97375      46.98990
    3  C            6.0     0.0700555      47.04186      46.97180
    4  C            6.0    -0.0720597      46.98071      47.05277
    5  C            6.0     0.0374780      47.05990      47.02242
    6  C            6.0    -0.0422482      47.02971      47.07196
    7  C            6.0     0.0907918      47.13133      47.04054
    8  C            6.0     0.0721721      47.14048      47.06831
    9  C            6.0    -0.0222609      46.98727      47.00953
   10  C            6.0    -0.0234789      46.98684      47.01032
   11  C            6.0     0.0161437      47.00062      46.98447
   12  H            1.0     0.0004029       0.17525       0.17485
   13  H            1.0     0.0040048       0.18825       0.18425
   14  H            1.0     0.0006915       0.19121       0.19052
   15  H            1.0    -0.0076662       0.17818       0.18585
   16  H            1.0    -0.0040083       0.17978       0.18379
   17  H            1.0    -0.0024138       0.18275       0.18517
   18  H            1.0     0.0013370       0.18166       0.18032
   19  H            1.0     0.0151209       0.18292       0.16780
   20  H            1.0    -0.0139026       0.17314       0.18705
   21  H            1.0     0.0007212       0.18033       0.17961
   22  H            1.0     0.0116477       0.17958       0.16793
   23  H            1.0     0.0110837       0.17969       0.16861
   24  H            1.0     0.0124922       0.18020       0.16771
   25  H            1.0     0.0124280       0.17998       0.16755
   26  H            1.0     0.0007340       0.18027       0.17953
   27  H            1.0    -0.0052067       0.17799       0.18320
   28  H            1.0    -0.0045500       0.18028       0.18483
   29  H            1.0    -0.0006998       0.18070       0.18140

          ---------------------
          ELECTROSTATIC MOMENTS
          ---------------------

 POINT   1           X           Y           Z (BOHR)    CHARGE
                -0.048325    0.010748    0.046227        1.00 (A.U.)
         DX          DY          DZ         /D/  (DEBYE)
    10.450324   -0.754428   -1.527790   10.588323
 ...... END OF PROPERTY EVALUATION ......
 CPU     0: STEP CPU TIME=     0.08 TOTAL CPU TIME=          9.6 (      0.2 MIN)
 TOTAL WALL CLOCK TIME=         16.8 SECONDS, CPU UTILIZATION IS    57.25%
               580000  WORDS OF DYNAMIC MEMORY USED
 EXECUTION OF GAMESS TERMINATED NORMALLY Mon May 25 19:23:51 2020
 DDI: 263640 bytes (0.3 MB / 0 MWords) used by master data server.
Note: The following floating-point exceptions are signalling: IEEE_DENORMALNote: The following floating-point exceptions are signalling: IEEE_DENORMALNote: The following floating-point exceptions are signalling: IEEE_DENORMAL
Note: The following floating-point exceptions are signalling:
 ----------------------------------------
 CPU timing information for all processes
 ========================================
 0: 9.374 + 0.221 = 9.595
 1: 8.966 + 0.60 = 9.27
 2: 8.826 + 0.44 = 8.870
 3: 8.700 + 0.68 = 8.769
 4: 8.830 + 0.56 = 8.886
 5: 8.583 + 0.33 = 8.616
 ----------------------------------------


 IEEE_DENORMAL
Note: The following floating-point exceptions are signalling: IEEE_DENORMALNote: The following floating-point exceptions are signalling:
 IEEE_DENORMAL
 ddikick.x: exited gracefully.
unset echo
----- accounting info -----
Files used on the master node pietdev were:
-rwxr-xr-x 1 piet piet     1287 mei 25 19:23 /home/piet/scr/nerol_fukui_base.F05*
-rw-r--r-- 1 piet piet 68812800 mei 25 19:23 /home/piet/scr/nerol_fukui_base.F10
ls: No match.
ls: No match.
ls: No match.
ma 25 mei 2020 19:23:54 CEST
0.105u 0.029s 0:19.90 0.6%	0+0k 0+8io 0pf+0w
