----- GAMESS execution script 'rungms' -----
This job is running on host pietdev
under operating system Linux at zo 17 mei 2020 14:35:58 CEST
Available scratch disk space (Kbyte units) at beginning of the job is
Filesystem     1K-blocks     Used Available Use% Mounted on
/dev/sda2      244568380 30379792 201695532  14% /
GAMESS temporary binary files will be written to /home/piet/scr
GAMESS supplementary output files will be written to /home/piet/gamess/scr
Copying input file isoleucine_fukui_neu.inp to your run's scratch directory...
cp isoleucine_fukui_neu.inp /home/piet/scr/isoleucine_fukui_neu.F05
unset echo
 
Assuming a single but multicore node.
 
/home/piet/gamess/ddikick.x /home/piet/gamess/gamess.03.x isoleucine_fukui_neu -ddi 1 6 pietdev:cpus=6 -scr /home/piet/scr

 Distributed Data Interface kickoff program.
 Initiating 6 compute processes on 1 nodes to run the following command:
 /home/piet/gamess/gamess.03.x isoleucine_fukui_neu 

          ******************************************************
          *         GAMESS VERSION = 30 SEP 2019 (R2)          *
          *             FROM IOWA STATE UNIVERSITY             *
          * M.W.SCHMIDT, K.K.BALDRIDGE, J.A.BOATZ, S.T.ELBERT, *
          *   M.S.GORDON, J.H.JENSEN, S.KOSEKI, N.MATSUNAGA,   *
          *          K.A.NGUYEN, S.J.SU, T.L.WINDUS,           *
          *       TOGETHER WITH M.DUPUIS, J.A.MONTGOMERY       *
          *         J.COMPUT.CHEM.  14, 1347-1363(1993)        *
          **************** 64 BIT LINUX VERSION ****************

  SINCE 1993, STUDENTS AND POSTDOCS WORKING AT IOWA STATE UNIVERSITY
  AND ALSO IN THEIR VARIOUS JOBS AFTER LEAVING ISU HAVE MADE IMPORTANT
  CONTRIBUTIONS TO THE CODE:
     IVANA ADAMOVIC, CHRISTINE AIKENS, YURI ALEXEEV, POOJA ARORA,
     ANDREY ASADCHEV, ROB BELL, PRADIPTA BANDYOPADHYAY, JONATHAN BENTZ,
     COLLEEN BERTONI, BRETT BODE, KURT BRORSEN, CALEB CARLIN, GALINA CHABAN,
     WEI CHEN, CHEOL HO CHOI, PAUL DAY, ALBERT DEFUSCO, NUWAN DESILVA,
     TIM DUDLEY, DMITRI FEDOROV, ALEX FINDLATER, GRAHAM FLETCHER, 
     MARK FREITAG, KURT GLAESEMANN, EMILIE B GUIDEZ, ANASTASIA GUNINA, 
     DAN KEMP, SAROM SOK LEANG, GRANT MERRILL,
     NORIYUKI MINEZAWA, JONATHAN MULLIN,
     TAKESHI NAGATA, SEAN NEDD, HEATHER NETZLOFF, BOSILJKA NJEGIC, RYAN OLSON,
     MIKE PAK, BUU PHAM, DAVID POOLE,
     SPENCER PRUITT, LUKE ROSKOP, TOSAPORN SATTASATHUCHANA,
     JIM SHOEMAKER, LYUDMILA SLIPCHENKO,
     TONY SMITH, JIE SONG, TETSUYA TAKETSUGU, SIMON WEBB,
     JORGE LUIS GALVEZ VALLEJO, PENG XU, SOOHAENG YOO,
     FEDERICO ZAHARIEV

  ADDITIONAL CODE HAS BEEN PROVIDED BY COLLABORATORS IN OTHER GROUPS:
     IOWA STATE UNIVERSITY:
          JOE IVANIC, AARON WEST, LAIMUTIS BYTAUTAS, KLAUS RUEDENBERG
     UNIVERSITY OF TOKYO: KIMIHIKO HIRAO, TAKAHITO NAKAJIMA,
          TAKAO TSUNEDA, MUNEAKI KAMIYA, SUSUMU YANAGISAWA,
          KIYOSHI YAGI, MAHITO CHIBA, SEIKEN TOKURA, NAOAKI KAWAKAMI
     UNIVERSITY OF AARHUS: FRANK JENSEN
     UNIVERSITY OF IOWA: VISVALDAS KAIRYS, HUI LI
     NATIONAL INST. OF STANDARDS AND TECHNOLOGY: WALT STEVENS, DAVID GARMER
     UNIVERSITY OF PISA: BENEDETTA MENNUCCI, JACOPO TOMASI
     UNIVERSITY OF MEMPHIS: HENRY KURTZ, PRAKASHAN KORAMBATH
     UNIVERSITY OF ALBERTA: TOBY ZENG, MARIUSZ KLOBUKOWSKI
     UNIVERSITY OF NEW ENGLAND: MARK SPACKMAN
     MIE UNIVERSITY: HIROAKI UMEDA
     NAT. INST. OF ADVANCED INDUSTRIAL SCIENCE AND TECHNOLOGY: KAZUO KITAURA
     MICHIGAN STATE UNIVERSITY:
          KAROL KOWALSKI, MARTA WLOCH, JEFFREY GOUR, JESSE LUTZ,
          WEI LI, JUN SHEN, J. EMILIANO DEUSTUA, PIOTR PIECUCH
     UNIVERSITY OF MINNESOTA:
          ANDREW SAND, PRACHI SHARMA, YINAN SHU
     UNIVERSITY OF SILESIA: MONIKA MUSIAL, STANISLAW KUCHARSKI
     FACULTES UNIVERSITAIRES NOTRE-DAME DE LA PAIX:
          OLIVIER QUINET, BENOIT CHAMPAGNE
     UNIVERSITY OF CALIFORNIA - SANTA BARBARA: BERNARD KIRTMAN
     INSTITUTE FOR MOLECULAR SCIENCE:
          KAZUYA ISHIMURA, MICHIO KATOUDA, AND SHIGERU NAGASE
     UNIVERSITY OF NOTRE DAME: ANNA POMOGAEVA, DAN CHIPMAN
     KYUSHU UNIVERSITY:
          HARUYUKI NAKANO,
          FENG LONG GU, JACEK KORCHOWIEC, MARCIN MAKOWSKI, AND YURIKO AOKI,
          HIROTOSHI MORI AND EISAKU MIYOSHI
     PENNSYLVANIA STATE UNIVERSITY:
          TZVETELIN IORDANOV, CHET SWALINA, JONATHAN SKONE,
          SHARON HAMMES-SCHIFFER
     WASEDA UNIVERSITY:
          MASATO KOBAYASHI, TOMOKO AKAMA, TSUGUKI TOUMA,
          TAKESHI YOSHIKAWA, YASUHIRO IKABATA, JUNJI SEINO,
          YUYA NAKAJIMA, HIROMI NAKAI
     NANJING UNIVERSITY: SHUHUA LI
     UNIVERSITY OF NEBRASKA:
          PEIFENG SU, DEJUN SI, NANDUN THELLAMUREGE, YALI WANG, HUI LI
     UNIVERSITY OF ZURICH: ROBERTO PEVERATI, KIM BALDRIDGE
     N. COPERNICUS UNIVERSITY AND JACKSON STATE UNIVERSITY:
          MARIA BARYSZ
     UNIVERSITY OF COPENHAGEN: Jimmy Kromann, CASPER STEINMANN
     TOKYO INSTITUTE OF TECHNOLOGY: HIROYA NAKATA
     NAGOYA UNIVERSITY: YOSHIO NISHIMOTO, STEPHAN IRLE
     MOSCOW STATE UNIVERSITY: VLADIMIR MIRONOV
     A.N.NESMEYANOV INSTITUTE OF ORGANOELEMENT COMPOUNDS OF RUSSIAN ACADEMY OF SCIENCES:
          IGOR S. GERASIMOV
     JOHANNES KEPLER UNIVERSITY LINZ:
          CHRISTIAN FRIEDL


 PARALLEL VERSION RUNNING ON        6 PROCESSORS IN        1 NODES.

 EXECUTION OF GAMESS BEGUN Sun May 17 14:35:58 2020

            ECHO OF THE FIRST FEW INPUT CARDS -
 INPUT CARD> $BASIS GBASIS=N21 NGAUSS=3 $END                                                
 INPUT CARD> $CONTRL SCFTYP=RHF MAXIT=60 MULT=1 ICHARG=0 $END                               
 INPUT CARD> $SYSTEM MEMDDI=1000 MWORDS=30 $END                                             
 INPUT CARD> $SCF DIRSCF=.TRUE. $END                                                        
 INPUT CARD> $DATA                                                                          
 INPUT CARD>                                                                                
 INPUT CARD>C1                                                                              
 INPUT CARD>C 6.0000000 0.3776508234 0.5005596787 0.5201342728                              
 INPUT CARD>H 1.0000000 0.3318690586 0.3129686588 1.6006186958                              
 INPUT CARD>C 6.0000000 -0.8165289278 -0.1806766001 -0.1870478312                           
 INPUT CARD>H 1.0000000 -0.7526400823 0.0321521191 -1.2642355839                            
 INPUT CARD>C 6.0000000 -0.7444617928 -1.7109723205 0.0186817402                            
 INPUT CARD>C 6.0000000 -2.1519330309 0.4038417109 0.3401056798                             
 INPUT CARD>C 6.0000000 -3.3934549803 -0.0624879555 -0.4521422573                           
 INPUT CARD>H 1.0000000 0.2077132956 -2.1048896496 -0.3563001995                            
 INPUT CARD>H 1.0000000 -0.8165627027 -1.9458092430 1.0883890923                            
 INPUT CARD>H 1.0000000 -1.5557806032 -2.2276532022 -0.5049881419                           
 INPUT CARD>H 1.0000000 -2.2606009332 0.1277961281 1.3986578515                             
 INPUT CARD>H 1.0000000 -2.0947253550 1.5004106702 0.2975091464                             
 INPUT CARD>H 1.0000000 -3.2931293736 0.2055642265 -1.5110699010                            
 INPUT CARD>H 1.0000000 -3.5243096303 -1.1475656317 -0.3839796588                           
 INPUT CARD>H 1.0000000 -4.3019554242 0.4125327323 -0.0641797760                            
 INPUT CARD>H 1.0000000 1.3302125329 0.1083056313 0.1444838018                              
 INPUT CARD>H 1.0000000 0.3621271259 1.5851030467 0.3581530688                              
 INPUT CARD> $END                                                                           
   30000000 WORDS OF MEMORY AVAILABLE

     BASIS OPTIONS
     -------------
     GBASIS=N21          IGAUSS=       3      POLAR=NONE    
     NDFUNC=       0     NFFUNC=       0     DIFFSP=       F
     NPFUNC=       0      DIFFS=       F     BASNAM=        


     RUN TITLE
     ---------
                                                                                 

 THE POINT GROUP OF THE MOLECULE IS C1      
 THE ORDER OF THE PRINCIPAL AXIS IS     0

 ATOM      ATOMIC                      COORDINATES (BOHR)
           CHARGE         X                   Y                   Z
 C           6.0     0.7136565753        0.9459206332        0.9829112524
 H           1.0     0.6271415846        0.5914250079        3.0247307459
 C           6.0    -1.5430159346       -0.3414292666       -0.3534691476
 H           1.0    -1.4222835229        0.0607586950       -2.3890588375
 C           6.0    -1.4068287967       -3.2332688583        0.0353033700
 C           6.0    -4.0665637723        0.7631501760        0.6427065417
 C           6.0    -6.4127000644       -0.1180851134       -0.8544249738
 H           1.0     0.3925212127       -3.9776646721       -0.6733097464
 H           1.0    -1.5430797599       -3.6770462936        2.0567571525
 H           1.0    -2.9399990371       -4.2096541478       -0.9542892152
 H           1.0    -4.2719163313        0.2414996644        2.6430800899
 H           1.0    -3.9584569405        2.8353650357        0.5622107655
 H           1.0    -6.2231121582        0.3884600610       -2.8555080612
 H           1.0    -6.6599794972       -2.1685845968       -0.7256163400
 H           1.0    -8.1295169631        0.7795738250       -0.1212821906
 H           1.0     2.5137371926        0.2046679661        0.2730347951
 H           1.0     0.6843210407        2.9954104206        0.6768111617

          INTERNUCLEAR DISTANCES (ANGS.)
          ------------------------------

                1 C          2 H          3 C          4 H          5 C     

   1 C       0.0000000    1.0976033 *  1.5460448 *  2.1635478 *  2.5301117 *
   2 H       1.0976033 *  0.0000000    2.1813425 *  3.0761027    2.7852019 *
   3 C       1.5460448 *  2.1813425 *  0.0000000    1.0998688 *  1.5457436 *
   4 H       2.1635478 *  3.0761027    1.0998688 *  0.0000000    2.1643536 *
   5 C       2.5301117 *  2.7852019 *  1.5457436 *  2.1643536 *  0.0000000  
   6 C       2.5378257 *  2.7868304 *  1.5501150 *  2.1610379 *  2.5606107 *
   7 C       3.9349185    4.2699923    2.5932203 *  2.7644811 *  3.1553670  
   8 H       2.7541573 *  3.1130347    2.1863930 *  2.5126824 *  1.0965490 *
   9 H       2.7809675 *  2.5852180 *  2.1777127 *  3.0742902    1.0975522 *
  10 H       3.4974532    3.8015209    2.1994755 *  2.5155937 *  1.0951838 *
  11 H       2.8055532 *  2.6069096 *  2.1667861 *  3.0617144    2.7539211 *
  12 H       2.6761741 *  2.9994122 *  2.1667109 *  2.5290359 *  3.4948444  
  13 H       4.2056438    4.7785725    2.8347427 *  2.5583363 *  3.5368007  
  14 H       4.3311701    4.5762326    2.8819668 *  3.1382697    2.8648067 *
  15 H       4.7167665    4.9248143    3.5376817    3.7659611    4.1438992  
  16 H       1.0965174 *  1.7773310 *  2.1913290 *  2.5156639 *  2.7622223 *
  17 H       1.0966828 *  1.7784719 *  2.1919060 *  2.5072909 *  3.4934070  

                6 C          7 C          8 H          9 H         10 H     

   1 C       2.5378257 *  3.9349185    2.7541573 *  2.7809675 *  3.4974532  
   2 H       2.7868304 *  4.2699923    3.1130347    2.5852180 *  3.8015209  
   3 C       1.5501150 *  2.5932203 *  2.1863930 *  2.1777127 *  2.1994755 *
   4 H       2.1610379 *  2.7644811 *  2.5126824 *  3.0742902    2.5155937 *
   5 C       2.5606107 *  3.1553670    1.0965490 *  1.0975522 *  1.0951838 *
   6 C       0.0000000    1.5448291 *  3.5137793    2.8042827 *  2.8274276 *
   7 C       1.5448291 *  0.0000000    4.1411355    3.5440809    2.8403838 *
   8 H       3.5137793    4.1411355    0.0000000    1.7780818 *  1.7740039 *
   9 H       2.8042827 *  3.5440809    1.7780818 *  0.0000000    1.7789688 *
  10 H       2.8274276 *  2.8403838 *  1.7740039 *  1.7789688 *  0.0000000  
  11 H       1.0993373 *  2.1783084 *  3.7626239    2.5458500 *  3.1094664  
  12 H       1.0988861 *  2.1659474 *  4.3274566    3.7597370    3.8513535  
  13 H       2.1836882 *  1.0969252 *  4.3505850    4.1855677    3.1545409  
  14 H       2.1942155 *  1.0950628 *  3.8529509    3.1838587    2.2486304 *
  15 H       2.1877199 *  1.0961444 *  5.1729935    4.3632733    3.8348885  
  16 H       3.5001353    4.7642594    2.5316047 *  3.1175293    3.7692803  
  17 H       2.7778053 *  4.1803746    3.7616929    3.7934016    4.3543648  

               11 H         12 H         13 H         14 H         15 H     

   1 C       2.8055532 *  2.6761741 *  4.2056438    4.3311701    4.7167665  
   2 H       2.6069096 *  2.9994122 *  4.7785725    4.5762326    4.9248143  
   3 C       2.1667861 *  2.1667109 *  2.8347427 *  2.8819668 *  3.5376817  
   4 H       3.0617144    2.5290359 *  2.5583363 *  3.1382697    3.7659611  
   5 C       2.7539211 *  3.4948444    3.5368007    2.8648067 *  4.1438992  
   6 C       1.0993373 *  1.0988861 *  2.1836882 *  2.1942155 *  2.1877199 *
   7 C       2.1783084 *  2.1659474 *  1.0969252 *  1.0950628 *  1.0961444 *
   8 H       3.7626239    4.3274566    4.3505850    3.8529509    5.1729935  
   9 H       2.5458500 *  3.7597370    4.1855677    3.1838587    4.3632733  
  10 H       3.1094664    3.8513535    3.1545409    2.2486304 *  3.8348885  
  11 H       0.0000000    1.7675163 *  3.0884751    2.5300798 *  2.5274685 *
  12 H       1.7675163 *  0.0000000    2.5266099 *  3.0854362    2.4871996 *
  13 H       3.0884751    2.5266099 *  0.0000000    1.7761580 *  1.7759665 *
  14 H       2.5300798 *  3.0854362    1.7761580 *  0.0000000    1.7722618 *
  15 H       2.5274685 *  2.4871996 *  1.7759665 *  1.7722618 *  0.0000000  
  16 H       3.8035870    3.7002125    4.9117825    5.0421098    5.6442369  
  17 H       3.1757040    2.4590597 *  4.3310532    4.8085996    4.8277274  

               16 H         17 H     

   1 C       1.0965174 *  1.0966828 *
   2 H       1.7773310 *  1.7784719 *
   3 C       2.1913290 *  2.1919060 *
   4 H       2.5156639 *  2.5072909 *
   5 C       2.7622223 *  3.4934070  
   6 C       3.5001353    2.7778053 *
   7 C       4.7642594    4.1803746  
   8 H       2.5316047 *  3.7616929  
   9 H       3.1175293    3.7934016  
  10 H       3.7692803    4.3543648  
  11 H       3.8035870    3.1757040  
  12 H       3.7002125    2.4590597 *
  13 H       4.9117825    4.3310532  
  14 H       5.0421098    4.8085996  
  15 H       5.6442369    4.8277274  
  16 H       0.0000000    1.7787002 *
  17 H       1.7787002 *  0.0000000  

  * ... LESS THAN  3.000


     ATOMIC BASIS SET
     ----------------
 THE CONTRACTED PRIMITIVE FUNCTIONS HAVE BEEN UNNORMALIZED
 THE CONTRACTED BASIS FUNCTIONS ARE NOW NORMALIZED TO UNITY

  SHELL TYPE  PRIMITIVE        EXPONENT          CONTRACTION COEFFICIENT(S)

 C         

      1   S       1           172.2560000    0.061766907377
      1   S       2            25.9109000    0.358794042852
      1   S       3             5.5333500    0.700713083689

      2   L       4             3.6649800   -0.395895162119    0.236459946619
      2   L       5             0.7705450    1.215834355681    0.860618805716

      3   L       6             0.1958570    1.000000000000    1.000000000000

 H         

      4   S       7             5.4471780    0.156284978695
      4   S       8             0.8245472    0.904690876670

      5   S       9             0.1831916    1.000000000000

 C         

      6   S      10           172.2560000    0.061766907377
      6   S      11            25.9109000    0.358794042852
      6   S      12             5.5333500    0.700713083689

      7   L      13             3.6649800   -0.395895162119    0.236459946619
      7   L      14             0.7705450    1.215834355681    0.860618805716

      8   L      15             0.1958570    1.000000000000    1.000000000000

 H         

      9   S      16             5.4471780    0.156284978695
      9   S      17             0.8245472    0.904690876670

     10   S      18             0.1831916    1.000000000000

 C         

     11   S      19           172.2560000    0.061766907377
     11   S      20            25.9109000    0.358794042852
     11   S      21             5.5333500    0.700713083689

     12   L      22             3.6649800   -0.395895162119    0.236459946619
     12   L      23             0.7705450    1.215834355681    0.860618805716

     13   L      24             0.1958570    1.000000000000    1.000000000000

 C         

     14   S      25           172.2560000    0.061766907377
     14   S      26            25.9109000    0.358794042852
     14   S      27             5.5333500    0.700713083689

     15   L      28             3.6649800   -0.395895162119    0.236459946619
     15   L      29             0.7705450    1.215834355681    0.860618805716

     16   L      30             0.1958570    1.000000000000    1.000000000000

 C         

     17   S      31           172.2560000    0.061766907377
     17   S      32            25.9109000    0.358794042852
     17   S      33             5.5333500    0.700713083689

     18   L      34             3.6649800   -0.395895162119    0.236459946619
     18   L      35             0.7705450    1.215834355681    0.860618805716

     19   L      36             0.1958570    1.000000000000    1.000000000000

 H         

     20   S      37             5.4471780    0.156284978695
     20   S      38             0.8245472    0.904690876670

     21   S      39             0.1831916    1.000000000000

 H         

     22   S      40             5.4471780    0.156284978695
     22   S      41             0.8245472    0.904690876670

     23   S      42             0.1831916    1.000000000000

 H         

     24   S      43             5.4471780    0.156284978695
     24   S      44             0.8245472    0.904690876670

     25   S      45             0.1831916    1.000000000000

 H         

     26   S      46             5.4471780    0.156284978695
     26   S      47             0.8245472    0.904690876670

     27   S      48             0.1831916    1.000000000000

 H         

     28   S      49             5.4471780    0.156284978695
     28   S      50             0.8245472    0.904690876670

     29   S      51             0.1831916    1.000000000000

 H         

     30   S      52             5.4471780    0.156284978695
     30   S      53             0.8245472    0.904690876670

     31   S      54             0.1831916    1.000000000000

 H         

     32   S      55             5.4471780    0.156284978695
     32   S      56             0.8245472    0.904690876670

     33   S      57             0.1831916    1.000000000000

 H         

     34   S      58             5.4471780    0.156284978695
     34   S      59             0.8245472    0.904690876670

     35   S      60             0.1831916    1.000000000000

 H         

     36   S      61             5.4471780    0.156284978695
     36   S      62             0.8245472    0.904690876670

     37   S      63             0.1831916    1.000000000000

 H         

     38   S      64             5.4471780    0.156284978695
     38   S      65             0.8245472    0.904690876670

     39   S      66             0.1831916    1.000000000000

 TOTAL NUMBER OF BASIS SET SHELLS             =   39
 NUMBER OF CARTESIAN GAUSSIAN BASIS FUNCTIONS =   69
 NUMBER OF ELECTRONS                          =   42
 CHARGE OF MOLECULE                           =    0
 SPIN MULTIPLICITY                            =    1
 NUMBER OF OCCUPIED ORBITALS (ALPHA)          =   21
 NUMBER OF OCCUPIED ORBITALS (BETA )          =   21
 TOTAL NUMBER OF ATOMS                        =   17
 THE NUCLEAR REPULSION ENERGY IS      191.2347620268

     $CONTRL OPTIONS
     ---------------
 SCFTYP=RHF          RUNTYP=ENERGY       EXETYP=RUN     
 MPLEVL=       0     CITYP =NONE         CCTYP =NONE         VBTYP =NONE    
 DFTTYP=NONE         TDDFT =NONE    
 MULT  =       1     ICHARG=       0     NZVAR =       0     COORD =UNIQUE  
 PP    =NONE         RELWFN=NONE         LOCAL =NONE         NUMGRD=       F
 ISPHER=      -1     NOSYM =       0     MAXIT =      60     UNITS =ANGS    
 PLTORB=       F     MOLPLT=       F     AIMPAC=       F     FRIEND=        
 NPRINT=       7     IREST =       0     GEOM  =INPUT   
 NORMF =       0     NORMP =       0     ITOL  =      20     ICUT  =       9
 INTTYP=BEST         GRDTYP=BEST         QMTTOL= 1.0E-06

     $SYSTEM OPTIONS
     ---------------
  REPLICATED MEMORY=    30000000 WORDS (ON EVERY NODE).
 DISTRIBUTED MEMDDI=        1000 MILLION WORDS IN AGGREGATE,
 MEMDDI DISTRIBUTED OVER   6 PROCESSORS IS   166666666 WORDS/PROCESSOR.
 TOTAL MEMORY REQUESTED ON EACH PROCESSOR=   196666666 WORDS.
 TIMLIM=      525600.00 MINUTES, OR     365.0 DAYS.
 PARALL= T  BALTYP=  DLB     KDIAG=    0  COREFL= F
 MXSEQ2=     300 MXSEQ3=     150  mem10=         0

          ----------------
          PROPERTIES INPUT
          ----------------

     MOMENTS            FIELD           POTENTIAL          DENSITY
 IEMOM =       1   IEFLD =       0   IEPOT =       0   IEDEN =       0
 WHERE =COMASS     WHERE =NUCLEI     WHERE =NUCLEI     WHERE =NUCLEI  
 OUTPUT=BOTH       OUTPUT=BOTH       OUTPUT=BOTH       OUTPUT=BOTH    
 IEMINT=       0   IEFINT=       0                     IEDINT=       0
                                                       MORB  =       0
          EXTRAPOLATION IN EFFECT
          SOSCF IN EFFECT
 ORBITAL PRINTING OPTION: NPREO=     1    69     2     1

     -------------------------------
     INTEGRAL TRANSFORMATION OPTIONS
     -------------------------------
     NWORD  =            0
     CUTOFF = 1.0E-09     MPTRAN =       0
     DIRTRF =       T     AOINTS =DUP     

          ----------------------
          INTEGRAL INPUT OPTIONS
          ----------------------
 NOPK  =       1 NORDER=       0 SCHWRZ=       T

     ------------------------------------------
     THE POINT GROUP IS C1 , NAXIS= 0, ORDER= 1
     ------------------------------------------

     DIMENSIONS OF THE SYMMETRY SUBSPACES ARE
 A   =   69

 ..... DONE SETTING UP THE RUN .....
 CPU     0: STEP CPU TIME=     0.02 TOTAL CPU TIME=          0.0 (      0.0 MIN)
 TOTAL WALL CLOCK TIME=          0.0 SECONDS, CPU UTILIZATION IS   100.00%

          ********************
          1 ELECTRON INTEGRALS
          ********************
 ...... END OF ONE-ELECTRON INTEGRALS ......
 CPU     0: STEP CPU TIME=     0.01 TOTAL CPU TIME=          0.0 (      0.0 MIN)
 TOTAL WALL CLOCK TIME=          0.0 SECONDS, CPU UTILIZATION IS    75.00%

          -------------
          GUESS OPTIONS
          -------------
          GUESS =HUCKEL            NORB  =       0          NORDER=       0
          MIX   =       F          PRTMO =       F          PUNMO =       F
          TOLZ  = 1.0E-08          TOLE  = 1.0E-05
          SYMDEN=       F          PURIFY=       F

 INITIAL GUESS ORBITALS GENERATED BY HUCKEL   ROUTINE.
 HUCKEL GUESS REQUIRES     52158 WORDS.

 SYMMETRIES FOR INITIAL GUESS ORBITALS FOLLOW.   BOTH SET(S).
    21 ORBITALS ARE OCCUPIED (    5 CORE ORBITALS).
     6=A        7=A        8=A        9=A       10=A       11=A       12=A   
    13=A       14=A       15=A       16=A       17=A       18=A       19=A   
    20=A       21=A       22=A       23=A       24=A       25=A       26=A   
    27=A       28=A       29=A       30=A       31=A   
 ...... END OF INITIAL ORBITAL SELECTION ......
 CPU     0: STEP CPU TIME=     0.02 TOTAL CPU TIME=          0.0 (      0.0 MIN)
 TOTAL WALL CLOCK TIME=          0.1 SECONDS, CPU UTILIZATION IS   100.00%

                    ----------------------
                    AO INTEGRAL TECHNOLOGY
                    ----------------------
     S,P,L SHELL ROTATED AXIS INTEGRALS, REPROGRAMMED BY
        KAZUYA ISHIMURA (IMS) AND JOSE SIERRA (SYNSTAR).
     S,P,D,L SHELL ROTATED AXIS INTEGRALS PROGRAMMED BY
        KAZUYA ISHIMURA (INSTITUTE FOR MOLECULAR SCIENCE).
     S,P,D,F,G SHELL TO TOTAL QUARTET ANGULAR MOMENTUM SUM 5,
        ERIC PROGRAM BY GRAHAM FLETCHER (ELORET AND NASA ADVANCED
        SUPERCOMPUTING DIVISION, AMES RESEARCH CENTER).
     S,P,D,F,G,L SHELL GENERAL RYS QUADRATURE PROGRAMMED BY
        MICHEL DUPUIS (PACIFIC NORTHWEST NATIONAL LABORATORY).

          --------------------
          2 ELECTRON INTEGRALS
          --------------------

 DIRECT SCF METHOD SKIPS INTEGRAL STORAGE ON DISK.
 DIRECT TRANSFORMATION SKIPS AO INTEGRAL STORAGE ON DISK.
  ...... END OF TWO-ELECTRON INTEGRALS .....
 CPU     0: STEP CPU TIME=     0.00 TOTAL CPU TIME=          0.0 (      0.0 MIN)
 TOTAL WALL CLOCK TIME=          0.1 SECONDS, CPU UTILIZATION IS    83.33%

          --------------------------
                 RHF SCF CALCULATION
          --------------------------

     NUCLEAR ENERGY =       191.2347620268
     MAXIT =   60     NPUNCH=    2
     EXTRAP=T  DAMP=F  SHIFT=F  RSTRCT=F  DIIS=F  DEM=F  SOSCF=T
     DENSITY MATRIX CONV=  2.00E-05
     SOSCF WILL OPTIMIZE    1008 ORBITAL ROTATIONS, SOGTOL=   0.250
     MEMORY REQUIRED FOR RHF ITERS=     84241 WORDS.

 DIRECT SCF CALCULATION, SCHWRZ=T   FDIFF=T,  DIRTHR=  0.00E+00 NITDIR=10
 SCHWARZ INEQUALITY OVERHEAD:      2399 INTEGRALS, T=        0.00

                                                                                   NONZERO     BLOCKS
 ITER EX DEM     TOTAL ENERGY        E CHANGE  DENSITY CHANGE     ORB. GRAD      INTEGRALS    SKIPPED
   1  0  0     -194.8871275235  -194.8871275235   0.629752390   0.000000000        2540485      67810
          ---------------START SECOND ORDER SCF---------------
   2  1  0     -195.2334473407    -0.3463198171   0.091653332   0.019719143        2531347      72259
   3  2  0     -195.2486669262    -0.0152195856   0.066275483   0.009997837        2503576      80169
   4  3  0     -195.2507702237    -0.0021032975   0.009808133   0.001485952        2471585      88456
   5  4  0     -195.2508154825    -0.0000452587   0.001078312   0.000197603        2415168      97552
   6  5  0     -195.2508173133    -0.0000018308   0.000484090   0.000058794        2334813     109263
   7  6  0     -195.2508175008    -0.0000001876   0.000101583   0.000019691        2236475     125429
   8  7  0     -195.2508175067    -0.0000000059   0.000008788   0.000002432        2121766     140896
   9  8  0     -195.2508175070    -0.0000000003   0.000002491   0.000000573        1978556     158118

          -----------------
          DENSITY CONVERGED
          -----------------
     TIME TO FORM FOCK OPERATORS=       0.4 SECONDS (       0.0 SEC/ITER)
     FOCK TIME ON FIRST ITERATION=       0.1, LAST ITERATION=       0.0
     TIME TO SOLVE SCF EQUATIONS=       0.0 SECONDS (       0.0 SEC/ITER)

 FINAL RHF ENERGY IS     -195.2508175070 AFTER   9 ITERATIONS

          ------------
          EIGENVECTORS
          ------------

                      1          2          3          4          5
                  -11.1699   -11.1607   -11.1537   -11.1525   -11.1518
                     A          A          A          A          A   
    1  C  1  S   -0.003255  -0.018795  -0.077424   0.926928   0.331151
    2  C  1  S   -0.002698  -0.003113  -0.009128   0.096065   0.032346
    3  C  1  X   -0.000901   0.000788   0.000316  -0.000325   0.000167
    4  C  1  Y   -0.000517  -0.000110  -0.000032  -0.000521   0.000955
    5  C  1  Z   -0.000350  -0.000064  -0.000060   0.000070   0.000030
    6  C  1  S    0.024162   0.003956   0.010929  -0.075653  -0.022350
    7  C  1  X   -0.010158  -0.001344  -0.003530   0.003748   0.000238
    8  C  1  Y   -0.006031   0.000081  -0.000577   0.003034  -0.002587
    9  C  1  Z   -0.005162   0.000584  -0.000766   0.001195   0.000853
   10  H  2  S   -0.001477  -0.000221  -0.000502   0.000477  -0.000379
   11  H  2  S    0.000110  -0.001419  -0.001074   0.013985   0.003416
   12  C  3  S    0.988387   0.007008   0.009282   0.002257   0.003892
   13  C  3  S    0.107528  -0.001003   0.000163  -0.000634  -0.001112
   14  C  3  X    0.000049  -0.000591   0.001079   0.000212   0.000222
   15  C  3  Y   -0.000121   0.000150   0.000264   0.000267  -0.000264
   16  C  3  Z    0.000634   0.000163   0.000295   0.000160   0.000145
   17  C  3  S   -0.103479   0.016474  -0.001512   0.009190   0.017017
   18  C  3  X    0.000343  -0.011400  -0.004384   0.007913   0.003106
   19  C  3  Y    0.001242   0.005821  -0.002789   0.009469  -0.008734
   20  C  3  Z   -0.007769   0.002033  -0.001808   0.003206   0.000543
   21  H  4  S    0.001544  -0.001316  -0.000122  -0.000725  -0.001482
   22  H  4  S    0.014184   0.000369  -0.000744   0.000194   0.001014
   23  C  5  S   -0.003439  -0.024505   0.005844  -0.332524   0.929501
   24  C  5  S   -0.002746  -0.004248   0.000906  -0.035964   0.095092
   25  C  5  X   -0.000028   0.000854   0.000164  -0.000637  -0.000155
   26  C  5  Y    0.000999  -0.000775   0.000018  -0.000841  -0.000106
   27  C  5  Z   -0.000049  -0.000358   0.000231  -0.000443  -0.000042
   28  C  5  S    0.023800   0.005663  -0.001656   0.030546  -0.073369
   29  C  5  X   -0.000741  -0.002440   0.000485   0.001899   0.000654
   30  C  5  Y    0.013090   0.002008  -0.001264   0.003635  -0.002913
   31  C  5  Z   -0.000467   0.001604  -0.000481   0.001680   0.000910
   32  C  6  S   -0.008068   0.987366   0.012242   0.010351   0.029225
   33  C  6  S   -0.003306   0.104355  -0.000484   0.000480   0.000935
   34  C  6  X    0.000890   0.000100   0.000013  -0.000850  -0.000722
   35  C  6  Y   -0.000281  -0.000282   0.000182  -0.000573   0.001023
   36  C  6  Z   -0.000157  -0.000198   0.000106  -0.000468  -0.000044
   37  C  6  S    0.023793  -0.090412   0.016309  -0.000063   0.002127
   38  C  6  X    0.012290  -0.000178  -0.010346   0.002667   0.002213
   39  C  6  Y   -0.005489   0.003811  -0.003576   0.001870  -0.003151
   40  C  6  Z   -0.003075   0.004958  -0.006168   0.002699   0.000577
   41  C  7  S   -0.009503  -0.014398   0.984373   0.074365   0.020123
   42  C  7  S   -0.001925  -0.003830   0.101428   0.006517   0.001886
   43  C  7  X   -0.000875   0.000492   0.000072  -0.000180  -0.000074
   44  C  7  Y    0.000009   0.000060  -0.000075   0.000059   0.000090
   45  C  7  Z    0.000079   0.000232  -0.000059   0.000080  -0.000194
   46  C  7  S    0.001912   0.022307  -0.080704  -0.000940  -0.000628
   47  C  7  X    0.000718   0.010354  -0.004026   0.003068  -0.000543
   48  C  7  Y    0.000220   0.003475  -0.000925   0.000045   0.000233
   49  C  7  Z   -0.000803   0.005758  -0.002064   0.000504   0.000562
   50  H  8  S   -0.001158  -0.000148  -0.000061  -0.000449   0.000136
   51  H  8  S    0.000017   0.002091  -0.000061  -0.005850   0.012852
   52  H  9  S   -0.001540  -0.000476   0.000285  -0.000606   0.000094
   53  H  9  S    0.000020  -0.002011   0.000118  -0.006187   0.012957
   54  H 10  S   -0.001272  -0.000216   0.000228  -0.000069  -0.000010
   55  H 10  S    0.000354  -0.001732  -0.001145  -0.002864   0.014286
   56  H 11  S   -0.001579   0.000953  -0.001091  -0.000269  -0.000596
   57  H 11  S    0.000075   0.014449   0.001388  -0.001107  -0.001082
   58  H 12  S   -0.001108   0.001006  -0.001023  -0.000336  -0.000205
   59  H 12  S   -0.000185   0.014247   0.001283  -0.001451   0.002300
   60  H 13  S   -0.000042  -0.001385   0.000335  -0.000447   0.000140
   61  H 13  S   -0.001635   0.000243   0.014244   0.000917   0.000272
   62  H 14  S    0.000151  -0.001355   0.000156  -0.000405   0.000159
   63  H 14  S   -0.001041   0.000523   0.014869   0.001069  -0.000803
   64  H 15  S   -0.000288  -0.001062   0.000249  -0.000128  -0.000229
   65  H 15  S    0.001482   0.000035   0.013761   0.001836   0.000158
   66  H 16  S   -0.001199  -0.000197  -0.000154   0.000299  -0.000279
   67  H 16  S   -0.000230   0.001150  -0.000217   0.013365   0.003383
   68  H 17  S   -0.001199   0.000017  -0.000427   0.000255  -0.000023
   69  H 17  S   -0.000092  -0.001778  -0.001314   0.012253   0.006611

                      6          7          8          9         10
                   -1.0864    -0.9889    -0.9244    -0.8516    -0.7597
                     A          A          A          A          A   
    1  C  1  S   -0.082865   0.087837   0.138699  -0.082904   0.048026
    2  C  1  S    0.087440  -0.083348  -0.127134   0.074161  -0.041228
    3  C  1  X   -0.036592   0.007831  -0.004359   0.053175  -0.062002
    4  C  1  Y   -0.020631   0.016745  -0.021151   0.004575  -0.038168
    5  C  1  Z   -0.016221   0.009735  -0.003660   0.016493  -0.078952
    6  C  1  S    0.172858  -0.243599  -0.427379   0.286700  -0.201452
    7  C  1  X    0.007873   0.004206   0.005704   0.017228  -0.015852
    8  C  1  Y    0.006577   0.003166  -0.001764  -0.004744  -0.011651
    9  C  1  Z    0.000669   0.003294  -0.001005   0.005062  -0.039409
   10  H  2  S    0.040965  -0.045798  -0.079481   0.056828  -0.071148
   11  H  2  S    0.002401  -0.004313  -0.011386   0.015591  -0.043316
   12  C  3  S   -0.143736   0.056239   0.000216   0.058685  -0.126254
   13  C  3  S    0.131633  -0.047154  -0.000412  -0.049012   0.102624
   14  C  3  X   -0.010933  -0.073557  -0.041815   0.089637   0.019335
   15  C  3  Y   -0.000924   0.025863  -0.112485  -0.043315   0.010093
   16  C  3  Z    0.020684  -0.008136  -0.024734  -0.000071  -0.114189
   17  C  3  S    0.371498  -0.173097   0.001643  -0.206289   0.511822
   18  C  3  X    0.005430  -0.000809  -0.008942   0.025651   0.004564
   19  C  3  Y   -0.002340   0.005787  -0.021998  -0.013602   0.003967
   20  C  3  Z    0.021937  -0.007833  -0.005055  -0.007989  -0.060275
   21  H  4  S    0.064798  -0.025380  -0.000158  -0.035919   0.145942
   22  H  4  S   -0.002278   0.001192  -0.000352  -0.008051   0.070728
   23  C  5  S   -0.084173   0.071383  -0.158038  -0.048197   0.057906
   24  C  5  S    0.088084  -0.069464   0.145019   0.041951  -0.049551
   25  C  5  X   -0.004210  -0.014503  -0.009108   0.018754  -0.002735
   26  C  5  Y    0.045352  -0.017535  -0.017987  -0.036240   0.105538
   27  C  5  Z   -0.001462   0.000123  -0.005084   0.002006  -0.050963
   28  C  5  S    0.181868  -0.189487   0.486705   0.173073  -0.239662
   29  C  5  X    0.000073  -0.005317  -0.002308   0.004165  -0.000075
   30  C  5  Y   -0.007824   0.002133   0.002431  -0.002989   0.037813
   31  C  5  Z   -0.005518   0.001170   0.001232   0.004545  -0.029257
   32  C  6  S   -0.112419  -0.104535   0.019727   0.109826   0.081430
   33  C  6  S    0.111817   0.093842  -0.017024  -0.095500  -0.067864
   34  C  6  X    0.026446  -0.071514  -0.011939  -0.086950   0.056841
   35  C  6  Y   -0.021928  -0.002306  -0.024719  -0.023103  -0.052586
   36  C  6  Z   -0.018601  -0.020775  -0.006061  -0.033690  -0.102219
   37  C  6  S    0.259847   0.302489  -0.066345  -0.380119  -0.335178
   38  C  6  X   -0.010138   0.002910  -0.002259  -0.023055   0.016732
   39  C  6  Y    0.002823  -0.006635  -0.004920  -0.006566  -0.017607
   40  C  6  Z   -0.008515  -0.003889   0.002817  -0.006939  -0.054104
   41  C  7  S   -0.064006  -0.147397  -0.003690  -0.127273  -0.034690
   42  C  7  S    0.066198   0.140894   0.001704   0.113937   0.030645
   43  C  7  X    0.031431   0.022789  -0.001227  -0.070341  -0.030951
   44  C  7  Y    0.006503   0.012621  -0.008522  -0.025186  -0.030910
   45  C  7  Z    0.014345   0.017699  -0.002351  -0.038861  -0.064294
   46  C  7  S    0.139994   0.407700   0.020720   0.442025   0.141560
   47  C  7  X   -0.002694   0.002503   0.010073  -0.015197  -0.006456
   48  C  7  Y   -0.003174   0.004684  -0.003595  -0.008148  -0.017928
   49  C  7  Z   -0.001482   0.004660   0.000331  -0.011430  -0.032360
   50  H  8  S    0.037754  -0.042256   0.091008   0.043665  -0.051689
   51  H  8  S   -0.004008  -0.008618   0.015690   0.022239  -0.026348
   52  H  9  S    0.041384  -0.038226   0.090434   0.032948  -0.079516
   53  H  9  S    0.003724  -0.002905   0.013082   0.008885  -0.047313
   54  H 10  S    0.038759  -0.031214   0.099897   0.033121  -0.050419
   55  H 10  S   -0.002276   0.007001   0.024424   0.013690  -0.023150
   56  H 11  S    0.053636   0.050569  -0.009873  -0.074850  -0.104597
   57  H 11  S    0.000831  -0.001608  -0.002088  -0.019801  -0.056390
   58  H 12  S    0.051044   0.053701  -0.023051  -0.078435  -0.079249
   59  H 12  S   -0.005028   0.003771  -0.013417  -0.023664  -0.040200
   60  H 13  S    0.030400   0.076812   0.001407   0.089937   0.052812
   61  H 13  S    0.001503   0.005512   0.000593   0.027353   0.033805
   62  H 14  S    0.030853   0.076150   0.007306   0.094371   0.038465
   63  H 14  S    0.001458   0.002937   0.008015   0.031939   0.017151
   64  H 15  S    0.027638   0.078186   0.000191   0.094627   0.018102
   65  H 15  S   -0.004775   0.008406   0.001970   0.033999   0.006104
   66  H 16  S    0.037417  -0.049445  -0.077582   0.070274  -0.039970
   67  H 16  S   -0.002476  -0.010232  -0.011779   0.027406  -0.021470
   68  H 17  S    0.037642  -0.042188  -0.089170   0.051419  -0.046833
   69  H 17  S   -0.001719   0.000653  -0.024213   0.011835  -0.026596

                     11         12         13         14         15
                   -0.6324    -0.6040    -0.5871    -0.5621    -0.5308
                     A          A          A          A          A   
    1  C  1  S   -0.003865   0.014956  -0.006044  -0.002946  -0.002315
    2  C  1  S    0.001436  -0.009997   0.003710   0.001869   0.000008
    3  C  1  X    0.066037  -0.039822   0.166155   0.164292  -0.054784
    4  C  1  Y    0.086622  -0.169563  -0.026232  -0.167257  -0.030694
    5  C  1  Z   -0.087811  -0.055513  -0.090458   0.090359   0.237824
    6  C  1  S    0.027986  -0.081047   0.033941   0.022971   0.019157
    7  C  1  X    0.036271  -0.020182   0.123444   0.129355  -0.054838
    8  C  1  Y    0.056168  -0.121721  -0.023063  -0.142361  -0.028020
    9  C  1  Z   -0.065362  -0.034540  -0.075658   0.069960   0.203235
   10  H  2  S   -0.067887  -0.024910  -0.060087   0.079186   0.177576
   11  H  2  S   -0.056261  -0.019058  -0.051828   0.071339   0.165357
   12  C  3  S    0.030558  -0.020522   0.009970   0.013326  -0.009888
   13  C  3  S   -0.021746   0.013973  -0.006563  -0.008506   0.005998
   14  C  3  X    0.027667   0.165644   0.025035  -0.057961  -0.029575
   15  C  3  Y    0.072895  -0.041830  -0.082260  -0.108981  -0.083674
   16  C  3  Z   -0.165255   0.040335  -0.123438  -0.001119  -0.022997
   17  C  3  S   -0.134138   0.094184  -0.042622  -0.066330   0.051746
   18  C  3  X    0.024209   0.129071   0.028181  -0.037157  -0.035377
   19  C  3  Y    0.061404  -0.033129  -0.067001  -0.094850  -0.071131
   20  C  3  Z   -0.143366   0.038723  -0.109941   0.000418  -0.017880
   21  H  4  S    0.092902  -0.011164   0.062378  -0.023757   0.010173
   22  H  4  S    0.072231  -0.011821   0.047565  -0.014405   0.006794
   23  C  5  S   -0.020246   0.003274   0.008742   0.004951  -0.002570
   24  C  5  S    0.013592  -0.001422  -0.006582  -0.002345   0.003775
   25  C  5  X    0.055204   0.194715  -0.004885   0.020480  -0.078012
   26  C  5  Y   -0.125713   0.082288   0.028313   0.083818   0.041899
   27  C  5  Z   -0.105051   0.045865  -0.145320   0.011132  -0.228389
   28  C  5  S    0.102745  -0.027306  -0.040047  -0.028616  -0.002958
   29  C  5  X    0.040679   0.148854  -0.008164   0.021299  -0.063760
   30  C  5  Y   -0.074246   0.052647   0.021316   0.060997   0.023287
   31  C  5  Z   -0.077104   0.036515  -0.110414   0.011606  -0.198185
   32  C  6  S   -0.017063   0.003499  -0.019855  -0.024719   0.011132
   33  C  6  S    0.011379  -0.003477   0.013477   0.018562  -0.007299
   34  C  6  X   -0.052925  -0.062141  -0.131158  -0.060530  -0.000556
   35  C  6  Y    0.183914   0.090769  -0.105167  -0.030836   0.034973
   36  C  6  Z   -0.098397   0.089874   0.090145  -0.125299   0.014974
   37  C  6  S    0.085364  -0.007073   0.097145   0.105627  -0.052729
   38  C  6  X   -0.024988  -0.047305  -0.087963  -0.037075  -0.005296
   39  C  6  Y    0.133404   0.072196  -0.090610  -0.021548   0.038602
   40  C  6  Z   -0.076776   0.064917   0.075082  -0.105710   0.017926
   41  C  7  S    0.008167  -0.007296   0.007251   0.000749   0.004413
   42  C  7  S   -0.006835   0.005367  -0.005383   0.000563  -0.003963
   43  C  7  X    0.034903  -0.118524   0.037577   0.205743  -0.096533
   44  C  7  Y    0.130336   0.116778  -0.085718   0.071769   0.104297
   45  C  7  Z   -0.036705   0.059440   0.180894  -0.105072   0.042130
   46  C  7  S   -0.039577   0.029365  -0.039543  -0.015631  -0.012666
   47  C  7  X    0.024406  -0.091019   0.024565   0.157731  -0.075398
   48  C  7  Y    0.096342   0.091943  -0.071930   0.055841   0.089593
   49  C  7  Z   -0.029896   0.047634   0.139401  -0.094366   0.035559
   50  H  8  S    0.098304   0.082712   0.021246  -0.010674  -0.002594
   51  H  8  S    0.079482   0.070940   0.025135  -0.006661  -0.007584
   52  H  9  S   -0.040999   0.008628  -0.107545  -0.008524  -0.161755
   53  H  9  S   -0.038479   0.005965  -0.089882  -0.007775  -0.152235
   54  H 10  S    0.055030  -0.144862   0.037692  -0.045516   0.109295
   55  H 10  S    0.039626  -0.126660   0.036201  -0.042946   0.096855
   56  H 11  S   -0.079116   0.042750   0.098320  -0.053741  -0.005267
   57  H 11  S   -0.065646   0.037580   0.074855  -0.051110  -0.002718
   58  H 12  S    0.133762   0.049353  -0.065948  -0.004503   0.015822
   59  H 12  S    0.105144   0.038269  -0.058562  -0.016941   0.014480
   60  H 13  S    0.041555  -0.021993  -0.136105   0.098918  -0.021622
   61  H 13  S    0.036031  -0.019891  -0.114593   0.085687  -0.017639
   62  H 14  S   -0.093424  -0.067026   0.059727  -0.073161  -0.066097
   63  H 14  S   -0.070492  -0.062921   0.051996  -0.070407  -0.056701
   64  H 15  S    0.003157   0.119794  -0.008064  -0.125378   0.101048
   65  H 15  S    0.004723   0.100964  -0.006109  -0.115950   0.099607
   66  H 16  S    0.040653   0.022436   0.132127   0.124413  -0.088240
   67  H 16  S    0.037385   0.022715   0.116040   0.113269  -0.084730
   68  H 17  S    0.068547  -0.116391  -0.008444  -0.128455  -0.047476
   69  H 17  S    0.061076  -0.097402  -0.008843  -0.115731  -0.043934

                     16         17         18         19         20
                   -0.5268    -0.4993    -0.4882    -0.4508    -0.4453
                     A          A          A          A          A   
    1  C  1  S    0.002284   0.003372  -0.001045  -0.015802  -0.024967
    2  C  1  S   -0.001101  -0.002807  -0.000379   0.014010   0.019670
    3  C  1  X   -0.092988  -0.050259  -0.004017  -0.086033  -0.136458
    4  C  1  Y   -0.011406   0.170856  -0.138868   0.008038  -0.143839
    5  C  1  Z    0.066469   0.101562   0.090443  -0.135356  -0.076154
    6  C  1  S   -0.013939  -0.010614   0.004316   0.057955   0.094000
    7  C  1  X   -0.080889  -0.051124  -0.004529  -0.069221  -0.110606
    8  C  1  Y   -0.009275   0.155420  -0.133929   0.023170  -0.140784
    9  C  1  Z    0.063980   0.088301   0.086271  -0.122748  -0.061872
   10  H  2  S    0.050876   0.052673   0.089309  -0.101670  -0.012903
   11  H  2  S    0.045425   0.056615   0.089744  -0.137690  -0.029145
   12  C  3  S    0.012468  -0.001965   0.000725  -0.010292  -0.003434
   13  C  3  S   -0.007957   0.002043  -0.000275   0.009546   0.002473
   14  C  3  X    0.028675  -0.057360   0.005556   0.057240   0.076852
   15  C  3  Y    0.060571  -0.041120   0.108838  -0.093094   0.235157
   16  C  3  Z    0.028385  -0.061553  -0.063637   0.239219   0.077700
   17  C  3  S   -0.063804   0.012099   0.001378   0.029749   0.019996
   18  C  3  X    0.033326  -0.043492   0.008745   0.056755   0.071917
   19  C  3  Y    0.048639  -0.031597   0.094965  -0.088746   0.212356
   20  C  3  Z    0.020356  -0.054405  -0.067259   0.244155   0.079743
   21  H  4  S   -0.019292   0.037444   0.060440  -0.197536  -0.018290
   22  H  4  S   -0.015058   0.033652   0.051219  -0.227575  -0.018982
   23  C  5  S    0.006190  -0.004944   0.009864  -0.016932   0.022654
   24  C  5  S   -0.005569   0.003573  -0.009189   0.014463  -0.016196
   25  C  5  X    0.233893   0.150209  -0.027168  -0.030253  -0.040706
   26  C  5  Y   -0.066961   0.047348  -0.096397   0.122730  -0.231932
   27  C  5  Z   -0.136354   0.074051   0.094692  -0.111971  -0.044192
   28  C  5  S   -0.017610   0.022077  -0.032130   0.066137  -0.086293
   29  C  5  X    0.201972   0.143815  -0.031867  -0.034580  -0.043296
   30  C  5  Y   -0.048392   0.039493  -0.074685   0.096851  -0.215495
   31  C  5  Z   -0.121969   0.069666   0.088377  -0.108410  -0.057034
   32  C  6  S   -0.011357  -0.005343  -0.001034  -0.006874  -0.008576
   33  C  6  S    0.006502   0.005560   0.000801   0.007604   0.007985
   34  C  6  X    0.041986  -0.129404  -0.008035  -0.039727  -0.053539
   35  C  6  Y   -0.000774  -0.143169   0.119961   0.053893  -0.178998
   36  C  6  Z    0.034909  -0.134343  -0.159807  -0.168509  -0.040766
   37  C  6  S    0.062640   0.004842   0.002021   0.023449   0.020781
   38  C  6  X    0.038406  -0.104860  -0.002988  -0.042322  -0.057332
   39  C  6  Y   -0.007363  -0.130148   0.114131   0.062133  -0.186133
   40  C  6  Z    0.027439  -0.117828  -0.150478  -0.167993  -0.032731
   41  C  7  S   -0.002671  -0.014302  -0.002122  -0.012895  -0.013903
   42  C  7  S    0.002283   0.014355   0.002174   0.010928   0.012320
   43  C  7  X    0.079653   0.114236  -0.004098   0.081966   0.093542
   44  C  7  Y   -0.194145   0.097886  -0.138669  -0.008200   0.128168
   45  C  7  Z   -0.084013   0.167920   0.184838   0.095630   0.045469
   46  C  7  S    0.009970   0.043755   0.003648   0.046907   0.045833
   47  C  7  X    0.068484   0.078883  -0.007611   0.067201   0.079518
   48  C  7  Y   -0.169116   0.082980  -0.129123  -0.017315   0.123121
   49  C  7  Z   -0.074742   0.141293   0.168954   0.083293   0.033019
   50  H  8  S    0.198611   0.070625  -0.026903  -0.009595   0.030874
   51  H  8  S    0.190782   0.061639  -0.018991  -0.017899   0.040787
   52  H  9  S   -0.104945   0.045012   0.079878  -0.102946  -0.014912
   53  H  9  S   -0.094769   0.043767   0.088327  -0.139521  -0.002797
   54  H 10  S   -0.056393  -0.130658   0.011743   0.036671   0.110041
   55  H 10  S   -0.042818  -0.133518   0.019751   0.033476   0.121341
   56  H 11  S    0.028472  -0.053566  -0.139738  -0.142200   0.018911
   57  H 11  S    0.022010  -0.052635  -0.137111  -0.174480   0.013174
   58  H 12  S    0.008479  -0.101381   0.097473   0.059315  -0.146065
   59  H 12  S    0.009254  -0.098465   0.093154   0.063254  -0.170610
   60  H 13  S    0.032611  -0.082949  -0.165451  -0.065873   0.011548
   61  H 13  S    0.029857  -0.091982  -0.172357  -0.091482   0.004657
   62  H 14  S    0.129814  -0.069276   0.122584   0.021454  -0.097241
   63  H 14  S    0.117536  -0.086622   0.127671   0.019737  -0.110492
   64  H 15  S   -0.133770   0.021874   0.009436  -0.017890   0.010071
   65  H 15  S   -0.127629   0.013239   0.008431  -0.023322   0.006376
   66  H 16  S   -0.070564  -0.111408   0.011973  -0.009841  -0.008282
   67  H 16  S   -0.059036  -0.104936   0.011012  -0.017326  -0.018911
   68  H 17  S   -0.015720   0.114389  -0.116514   0.043991  -0.090379
   69  H 17  S   -0.015255   0.109992  -0.114054   0.043248  -0.116789

                     21         22         23         24         25
                   -0.4391     0.2516     0.2927     0.3009     0.3155
                     A          A          A          A          A   
    1  C  1  S   -0.013674  -0.058883   0.067772   0.056094  -0.050783
    2  C  1  S    0.010493   0.017758  -0.014135  -0.013800   0.019360
    3  C  1  X   -0.166552   0.063903  -0.029107  -0.076883   0.013932
    4  C  1  Y   -0.005400   0.041418   0.028393  -0.035744  -0.080715
    5  C  1  Z    0.007571   0.031475  -0.105952   0.062953  -0.065331
    6  C  1  S    0.049230   0.785747  -0.964001  -0.799874   0.594797
    7  C  1  X   -0.163978   0.313724  -0.195711  -0.374207   0.049020
    8  C  1  Y    0.006367   0.245943   0.158311  -0.054829  -0.314839
    9  C  1  Z    0.019526   0.181323  -0.425342   0.216573  -0.253683
   10  H  2  S    0.030573   0.015343   0.013939  -0.001113   0.021274
   11  H  2  S    0.032967  -0.364004   0.944820  -0.048795   0.047465
   12  C  3  S    0.011850  -0.048865   0.000360   0.033141   0.010419
   13  C  3  S   -0.008709   0.008005   0.002504   0.000392  -0.007468
   14  C  3  X    0.268517   0.016732   0.028246  -0.009279  -0.022004
   15  C  3  Y   -0.069894   0.015360   0.020982  -0.009445  -0.014177
   16  C  3  Z   -0.085501  -0.071166  -0.078500   0.089684  -0.063229
   17  C  3  S   -0.047050   0.727722  -0.049434  -0.534772  -0.053699
   18  C  3  X    0.248911   0.073718   0.256327   0.134035  -0.240375
   19  C  3  Y   -0.058272   0.013959   0.004116  -0.015495   0.080586
   20  C  3  Z   -0.082237  -0.270536  -0.241428   0.298483  -0.225192
   21  H  4  S    0.063534   0.014191  -0.037324   0.039813  -0.041527
   22  H  4  S    0.081092  -0.535107  -0.496907   0.711172  -0.352933
   23  C  5  S   -0.004732  -0.078795   0.010956  -0.032495  -0.046287
   24  C  5  S    0.002089   0.030570   0.004262   0.003584   0.000885
   25  C  5  X   -0.099805  -0.001342  -0.044428  -0.118041  -0.037010
   26  C  5  Y    0.057457  -0.072741   0.030244  -0.041343  -0.077976
   27  C  5  Z    0.039034   0.000129  -0.126858   0.033238  -0.075712
   28  C  5  S    0.020741   0.970229  -0.235780   0.476580   0.740248
   29  C  5  X   -0.114423   0.036827  -0.169838  -0.455692  -0.198748
   30  C  5  Y    0.057086  -0.437095   0.126804  -0.116788  -0.236870
   31  C  5  Z    0.040055   0.012919  -0.505558   0.077127  -0.298508
   32  C  6  S    0.022245  -0.062942   0.011852   0.014298   0.062038
   33  C  6  S   -0.016289   0.018644  -0.003079  -0.013071  -0.007332
   34  C  6  X   -0.259000  -0.017236   0.043476  -0.011406   0.001865
   35  C  6  Y    0.092054   0.057752   0.040367  -0.061609  -0.112640
   36  C  6  Z    0.089351   0.061170  -0.083003   0.104749  -0.069254
   37  C  6  S   -0.088534   0.840134  -0.121245  -0.057114  -0.957479
   38  C  6  X   -0.229538  -0.122637   0.377030   0.174242  -0.127928
   39  C  6  Y    0.088232   0.279455   0.127650  -0.282703  -0.407451
   40  C  6  Z    0.081146   0.280119  -0.270392   0.385465  -0.277086
   41  C  7  S   -0.008984  -0.056923  -0.093765  -0.078845   0.028080
   42  C  7  S    0.005895   0.018703   0.021177   0.020378  -0.011659
   43  C  7  X    0.161894  -0.055451  -0.009388  -0.032222   0.049002
   44  C  7  Y   -0.021870  -0.045220   0.008085  -0.073802  -0.161818
   45  C  7  Z   -0.023394  -0.035085  -0.069449   0.074779  -0.012890
   46  C  7  S    0.031966   0.755619   1.294679   1.055420  -0.381434
   47  C  7  X    0.165626  -0.293233  -0.090342  -0.135756   0.220560
   48  C  7  Y   -0.031157  -0.202250   0.038358  -0.264188  -0.637859
   49  C  7  Z   -0.031493  -0.180592  -0.244371   0.310366   0.038909
   50  H  8  S   -0.103761  -0.017970  -0.019146  -0.006516   0.021850
   51  H  8  S   -0.122300  -0.605999   0.030499   0.296676  -0.255134
   52  H  9  S    0.034958   0.026520   0.020753  -0.005320   0.000681
   53  H  9  S    0.043047  -0.408772   0.747761  -0.406435   0.037485
   54  H 10  S    0.034816  -0.007330   0.006903   0.003722  -0.032258
   55  H 10  S    0.041356  -0.554070  -0.286482  -0.553507  -0.813996
   56  H 11  S    0.056821   0.016853   0.006325  -0.043837   0.007587
   57  H 11  S    0.082873  -0.486587   0.532130  -0.622687   0.537970
   58  H 12  S    0.044209  -0.000979  -0.007289   0.018924   0.039256
   59  H 12  S    0.057487  -0.590289  -0.186925   0.460404   0.958816
   60  H 13  S    0.039130   0.015819  -0.011764   0.027401   0.010145
   61  H 13  S    0.044554  -0.341429  -0.853257   0.131094   0.331670
   62  H 14  S    0.016119   0.008356   0.003241  -0.017466  -0.033989
   63  H 14  S    0.019863  -0.465060  -0.399323  -0.827851  -0.661551
   64  H 15  S   -0.121675  -0.023559   0.004883  -0.007323   0.015340
   65  H 15  S   -0.134772  -0.442825  -0.433329  -0.542383   0.760843
   66  H 16  S   -0.115043   0.000577   0.009329   0.029247   0.008165
   67  H 16  S   -0.137726  -0.439600   0.409468   0.787661  -0.543423
   68  H 17  S    0.012694  -0.016739  -0.017015  -0.025045  -0.016607
   69  H 17  S    0.011085  -0.540026   0.063515   0.394454   0.037934

                     26         27         28         29         30
                    0.3276     0.3381     0.3493     0.3541     0.3666
                     A          A          A          A          A   
    1  C  1  S    0.067034   0.041888  -0.046833   0.023778   0.052973
    2  C  1  S   -0.021345  -0.007979   0.001461  -0.019571  -0.009576
    3  C  1  X    0.096565   0.026868   0.004631  -0.085470  -0.004944
    4  C  1  Y   -0.167564   0.048535   0.019112   0.044228   0.069938
    5  C  1  Z   -0.015301  -0.058470  -0.015662   0.050197  -0.160920
    6  C  1  S   -0.872468  -0.602745   0.717178  -0.217440  -0.787912
    7  C  1  X    0.474852   0.206411  -0.071567  -0.493872   0.118564
    8  C  1  Y   -0.808035   0.270275   0.058524   0.173271   0.380282
    9  C  1  Z   -0.079547  -0.336555  -0.218864   0.219157  -0.790163
   10  H  2  S   -0.006041   0.011553  -0.021421  -0.023025   0.074504
   11  H  2  S    0.288859   0.649160  -0.135598  -0.176402   1.407626
   12  C  3  S   -0.001046   0.024573   0.071433   0.031944  -0.002422
   13  C  3  S   -0.000446   0.003301  -0.020915  -0.017798  -0.006060
   14  C  3  X    0.067161  -0.002986   0.012756   0.022265   0.048293
   15  C  3  Y   -0.025572   0.082243  -0.059494   0.038565   0.001259
   16  C  3  Z    0.007312   0.076351   0.088517   0.008624  -0.023640
   17  C  3  S    0.011702  -0.432084  -0.964229  -0.330343   0.116986
   18  C  3  X    0.144884   0.007585  -0.166757  -0.177644   0.242565
   19  C  3  Y    0.091439   0.438575  -0.492740   0.065344  -0.015245
   20  C  3  Z    0.046530   0.540325   0.515081  -0.095081  -0.121236
   21  H  4  S    0.011650  -0.021719  -0.015147   0.010193  -0.027297
   22  H  4  S    0.062269   0.472435   0.945416   0.136876  -0.216989
   23  C  5  S   -0.011589  -0.101975   0.043245  -0.070612  -0.004956
   24  C  5  S   -0.010791   0.029346  -0.003532   0.018383   0.004002
   25  C  5  X    0.131072   0.058636   0.061493   0.060188  -0.033333
   26  C  5  Y   -0.060349   0.018994   0.022407  -0.002341   0.007477
   27  C  5  Z    0.013712  -0.042491  -0.119517   0.092125   0.063670
   28  C  5  S    0.327784   1.353579  -0.744469   0.930535   0.036418
   29  C  5  X    0.713777   0.265905   0.416764   0.342524  -0.189060
   30  C  5  Y   -0.149578   0.134364   0.016542   0.085170   0.025692
   31  C  5  Z    0.103074  -0.232545  -0.803276   0.415270   0.324092
   32  C  6  S   -0.033062   0.021054  -0.056411   0.027336  -0.084013
   33  C  6  S    0.025498  -0.001037   0.023425  -0.004379   0.014258
   34  C  6  X    0.046056   0.019334   0.058198   0.030727  -0.028276
   35  C  6  Y   -0.080747   0.071947   0.044630   0.060586  -0.033130
   36  C  6  Z    0.010449  -0.067081   0.030780  -0.019902   0.080717
   37  C  6  S    0.268715  -0.389106   0.691723  -0.364170   1.218301
   38  C  6  X    0.111194   0.054579   0.262691   0.176758  -0.181339
   39  C  6  Y   -0.282264   0.357454   0.428412   0.520426  -0.173790
   40  C  6  Z    0.058292  -0.545450   0.142206   0.117315   0.459243
   41  C  7  S   -0.023388   0.026711  -0.006454  -0.014970   0.064643
   42  C  7  S    0.009744   0.002071   0.000614  -0.001715  -0.011273
   43  C  7  X   -0.015705  -0.023217   0.036422   0.165349   0.051473
   44  C  7  Y   -0.010343   0.012230  -0.097394  -0.044163  -0.058933
   45  C  7  Z   -0.023097   0.151264   0.051973  -0.098932  -0.011237
   46  C  7  S    0.336496  -0.483735   0.127889   0.228905  -0.910247
   47  C  7  X   -0.099284  -0.243157   0.273268   0.898804   0.157891
   48  C  7  Y   -0.025710   0.026972  -0.580005  -0.306603  -0.296684
   49  C  7  Z   -0.179842   0.819883   0.148124  -0.454467  -0.216549
   50  H  8  S   -0.050124   0.000763  -0.050584  -0.016837   0.012696
   51  H  8  S   -0.932060  -0.840362  -0.481487  -0.526629   0.308784
   52  H  9  S   -0.026808  -0.013286   0.063793   0.001497  -0.007770
   53  H  9  S   -0.233062  -0.288637   1.194928  -0.815339  -0.390691
   54  H 10  S    0.062001   0.022237  -0.005148   0.026082  -0.002418
   55  H 10  S    0.593239  -0.296797   0.212550   0.209101   0.017989
   56  H 11  S    0.027706   0.006144  -0.028516   0.030155  -0.041233
   57  H 11  S   -0.236914   0.706991  -0.420402   0.345023  -1.074218
   58  H 12  S   -0.009673  -0.040728   0.014953  -0.047657   0.028302
   59  H 12  S    0.194167  -0.409764  -0.608506  -0.458531  -0.162066
   60  H 13  S   -0.011813   0.027618  -0.016273  -0.033867   0.013476
   61  H 13  S   -0.291539   1.063216   0.265070  -0.702687   0.281251
   62  H 14  S   -0.008956   0.024115  -0.026595   0.000651  -0.023100
   63  H 14  S   -0.214146   0.197306  -0.683346  -0.250277  -0.006545
   64  H 15  S    0.017558  -0.040086   0.045456   0.051020   0.008952
   65  H 15  S   -0.089107  -0.457502   0.466486   1.165561   0.759513
   66  H 16  S   -0.040814   0.016706   0.005730   0.034697  -0.047474
   67  H 16  S   -0.584488   0.079784  -0.250182   0.823763  -0.037954
   68  H 17  S    0.041863  -0.031722   0.017179  -0.012665  -0.022512
   69  H 17  S    1.354780  -0.197458  -0.308526  -0.111249  -0.306850

                     31         32         33         34         35
                    0.3750     0.3978     0.4224     0.4376     0.4466
                     A          A          A          A          A   
    1  C  1  S   -0.056526  -0.010226  -0.018356   0.063912   0.035375
    2  C  1  S    0.016152  -0.002898  -0.015340   0.004081   0.002479
    3  C  1  X    0.103886   0.027462   0.082477   0.072956   0.127813
    4  C  1  Y   -0.002216   0.125077   0.093161   0.004119   0.051246
    5  C  1  Z   -0.077396  -0.025312  -0.057482  -0.003387   0.129382
    6  C  1  S    0.739983   0.227852   0.494374  -0.984034  -0.607653
    7  C  1  X    0.482855  -0.014232   0.219574   0.713306   0.779738
    8  C  1  Y    0.028778   0.733856   0.208548   0.493372   0.502980
    9  C  1  Z   -0.609411  -0.100329  -0.246578   0.069698   0.894787
   10  H  2  S    0.035012  -0.002870  -0.018635  -0.042562  -0.014905
   11  H  2  S    0.361520   0.197652   0.225070   0.308682  -0.571293
   12  C  3  S    0.085207  -0.012056  -0.036771  -0.154865   0.015314
   13  C  3  S   -0.017968   0.003391   0.004274   0.006153   0.001444
   14  C  3  X   -0.012401   0.011355  -0.027487   0.050319   0.279072
   15  C  3  Y   -0.028538  -0.014124   0.019647  -0.111906   0.081921
   16  C  3  Z    0.114360   0.021064  -0.022739   0.174558  -0.009179
   17  C  3  S   -1.225646   0.139964   0.526018   2.376558  -0.234695
   18  C  3  X    0.035051   0.127312  -0.416869   0.226780   1.864850
   19  C  3  Y   -0.078158  -0.141500   0.075334  -0.790623   0.500359
   20  C  3  Z    0.732997   0.088373  -0.202095   1.085451  -0.064047
   21  H  4  S    0.028411   0.021244  -0.001135   0.035365  -0.004760
   22  H  4  S    1.256447   0.106211  -0.378609   0.387476  -0.185940
   23  C  5  S   -0.025548  -0.008223   0.052783   0.068622  -0.006745
   24  C  5  S    0.002841   0.003829  -0.007820   0.012815  -0.004859
   25  C  5  X   -0.058704   0.172590   0.055842  -0.034459  -0.027331
   26  C  5  Y    0.015612  -0.041257   0.115972  -0.130782   0.067988
   27  C  5  Z    0.076173  -0.036015   0.144771   0.002823  -0.001027
   28  C  5  S    0.342400   0.134092  -0.856282  -1.127548   0.113766
   29  C  5  X   -0.386841   0.599468   0.456718  -0.202345  -0.583315
   30  C  5  Y    0.137937  -0.255605   0.403475  -1.321023   0.421130
   31  C  5  Z    0.207475  -0.212129   0.722619  -0.101019  -0.034812
   32  C  6  S    0.001823   0.057454   0.071441   0.062416  -0.041801
   33  C  6  S   -0.002244  -0.008602  -0.004052  -0.001218  -0.011994
   34  C  6  X    0.036292   0.059398   0.040310   0.001433   0.149982
   35  C  6  Y    0.010362  -0.180224   0.039748   0.083248  -0.029270
   36  C  6  Z   -0.042082   0.090304   0.011347  -0.014473  -0.044740
   37  C  6  S   -0.064504  -0.875425  -1.088279  -0.914188   0.746385
   38  C  6  X    0.110266   0.339009   0.124243  -0.257607   0.911167
   39  C  6  Y   -0.063596  -0.843338   0.351677   0.654263  -0.583571
   40  C  6  Z   -0.344301   0.515859   0.166096  -0.083762  -0.488405
   41  C  7  S   -0.037985  -0.030998  -0.078849  -0.010661  -0.001191
   42  C  7  S    0.009281   0.005826   0.007934   0.011113   0.021088
   43  C  7  X   -0.030147   0.044476  -0.053291   0.098813   0.100221
   44  C  7  Y    0.041517   0.089238  -0.094476  -0.040292  -0.039616
   45  C  7  Z   -0.100167   0.003933   0.095548  -0.002183   0.013355
   46  C  7  S    0.532570   0.425392   1.229245   0.026206  -0.148127
   47  C  7  X   -0.075790   0.280873   0.152908   0.436506   0.148770
   48  C  7  Y    0.233376   0.728576  -0.581523  -0.132034  -0.062236
   49  C  7  Z   -0.458930  -0.029394   0.545225   0.077609   0.237977
   50  H  8  S    0.051366   0.006228  -0.004826  -0.018026  -0.002335
   51  H  8  S    0.471626  -0.915881   0.393318   0.129412   0.456319
   52  H  9  S   -0.033433   0.010829  -0.025145  -0.044107   0.015546
   53  H  9  S   -0.541117   0.194088  -0.411542   0.084351   0.076294
   54  H 10  S   -0.008596  -0.030398   0.050303  -0.039601   0.027034
   55  H 10  S   -0.242622   0.246187   1.403471  -0.384268  -0.109816
   56  H 11  S    0.025821  -0.026568  -0.016087  -0.040894   0.015066
   57  H 11  S    0.368705  -0.472525   0.331180   0.471835   0.172541
   58  H 12  S    0.023213   0.011912   0.025183  -0.001244   0.029454
   59  H 12  S    0.054049   1.314934   0.140867  -0.218350   0.178402
   60  H 13  S   -0.050919  -0.001810   0.034346   0.013107   0.032018
   61  H 13  S   -0.890693  -0.372068   0.349568   0.000403   0.237151
   62  H 14  S    0.020767   0.026446  -0.055343   0.053085  -0.014526
   63  H 14  S    0.120024   0.577790  -1.253105  -0.045267  -0.135200
   64  H 15  S    0.022011   0.001487   0.042744  -0.031867   0.017437
   65  H 15  S   -0.161645  -0.222866  -0.332620   0.376438   0.335909
   66  H 16  S   -0.030866   0.043387  -0.008113  -0.011117  -0.049730
   67  H 16  S   -1.046057   0.208859  -0.395049  -0.073063  -0.132947
   68  H 17  S   -0.005442  -0.062246  -0.000169  -0.013507  -0.040916
   69  H 17  S   -0.398041  -0.985913  -0.516828   0.061548  -0.158003

                     36         37         38         39         40
                    0.4564     0.4727     0.8788     0.8879     0.9202
                     A          A          A          A          A   
    1  C  1  S   -0.004256   0.040110  -0.004883  -0.000265  -0.001739
    2  C  1  S   -0.018463   0.010974  -0.026006   0.030397   0.036478
    3  C  1  X    0.122695   0.016963   0.091142  -0.137953  -0.475062
    4  C  1  Y   -0.101969   0.043953   0.352401  -0.271912   0.182692
    5  C  1  Z   -0.044299   0.055968  -0.002297   0.072429   0.138923
    6  C  1  S    0.253086  -0.736593   0.191526  -0.077606  -0.123904
    7  C  1  X    0.368443   0.779958  -0.104339   0.242702   0.719395
    8  C  1  Y   -0.619195   0.101618  -0.482653   0.406293  -0.324177
    9  C  1  Z   -0.142407   0.310919  -0.052343  -0.173587  -0.239482
   10  H  2  S   -0.018693  -0.016352  -0.085364   0.211647   0.171588
   11  H  2  S    0.040834  -0.069896   0.038854   0.008812  -0.025122
   12  C  3  S   -0.003665  -0.053709   0.004377  -0.009791  -0.006423
   13  C  3  S    0.002580  -0.003782   0.020506  -0.056001  -0.026869
   14  C  3  X   -0.053853  -0.032713  -0.106606   0.072680   0.047456
   15  C  3  Y    0.115894   0.236817  -0.051972   0.000996  -0.022133
   16  C  3  Z   -0.030988   0.134954  -0.050395   0.126031   0.052580
   17  C  3  S    0.023974   0.900789  -0.163330   0.614036   0.313385
   18  C  3  X   -0.556672  -0.369228  -0.190117  -0.116633  -0.199129
   19  C  3  Y    0.612826   1.626826   0.047123  -0.108164   0.371137
   20  C  3  Z   -0.324642   0.898621  -0.014930   0.048530   0.114294
   21  H  4  S    0.007447   0.012679   0.044693  -0.360413  -0.130195
   22  H  4  S   -0.365822   0.287800  -0.018032   0.117210   0.050348
   23  C  5  S   -0.029279  -0.019922   0.000306  -0.003397   0.001180
   24  C  5  S   -0.002506  -0.004400   0.012563   0.068140  -0.046556
   25  C  5  X   -0.069345   0.011649  -0.446629  -0.059270   0.031824
   26  C  5  Y    0.034403   0.113182   0.008670   0.295138  -0.225085
   27  C  5  Z   -0.052406  -0.083224  -0.078687   0.322221  -0.096010
   28  C  5  S    0.503058   0.422264   0.009939  -0.243054   0.212037
   29  C  5  X   -0.312040   0.126500   0.664820   0.069108   0.000473
   30  C  5  Y    0.417571   0.838157   0.043636  -0.402916   0.249637
   31  C  5  Z   -0.210533  -0.608222   0.113844  -0.513913   0.035267
   32  C  6  S    0.074003   0.031336  -0.001506   0.003154   0.015389
   33  C  6  S   -0.004966   0.006339   0.033291   0.038215   0.045356
   34  C  6  X    0.124796  -0.178471   0.135201   0.080189   0.429617
   35  C  6  Y    0.106196  -0.019010  -0.248678  -0.231230   0.174010
   36  C  6  Z    0.200098   0.060957   0.066063   0.097126   0.231841
   37  C  6  S   -1.159834  -0.566407  -0.096205  -0.253195  -0.666837
   38  C  6  X    0.612317  -1.528091  -0.077213  -0.159052  -0.478272
   39  C  6  Y    0.521637  -0.153999   0.156258   0.421341  -0.186688
   40  C  6  Z    1.206214   0.249540  -0.084094  -0.119496  -0.135750
   41  C  7  S   -0.053081   0.008218  -0.001048  -0.000245  -0.006044
   42  C  7  S   -0.001367   0.015121   0.034476  -0.018703   0.016955
   43  C  7  X    0.137056   0.001804   0.184105  -0.153690  -0.341059
   44  C  7  Y    0.094735  -0.067499  -0.277323  -0.083521  -0.065180
   45  C  7  Z    0.066653  -0.106414   0.075850   0.166002  -0.172710
   46  C  7  S    0.806199  -0.323059  -0.108989   0.050455  -0.173198
   47  C  7  X    1.190106  -0.170501  -0.195560   0.223522   0.566265
   48  C  7  Y    0.570396  -0.372820   0.513787   0.096981   0.147864
   49  C  7  Z    0.511261  -0.748910  -0.066234  -0.251368   0.260222
   50  H  8  S    0.046671   0.038277  -0.322555  -0.172546   0.018474
   51  H  8  S    0.284845  -0.057784   0.071791   0.069455  -0.078042
   52  H  9  S    0.022955   0.014086  -0.042035   0.355971  -0.040350
   53  H  9  S    0.183233   0.638263   0.008596  -0.030326   0.060882
   54  H 10  S   -0.024990   0.035001   0.355370  -0.227945   0.019721
   55  H 10  S   -0.489824   0.132364  -0.038507   0.069563  -0.065979
   56  H 11  S   -0.029711  -0.003439   0.160586   0.306730   0.147888
   57  H 11  S   -0.589089  -0.298256  -0.075751  -0.021067  -0.007009
   58  H 12  S   -0.052549  -0.024960  -0.233695  -0.260474   0.223917
   59  H 12  S   -0.249837   0.353464   0.196162   0.055685   0.043453
   60  H 13  S    0.051375   0.003836  -0.111812  -0.248782   0.093587
   61  H 13  S    0.017650  -0.518842   0.025059   0.044469   0.000271
   62  H 14  S    0.054806  -0.001309   0.335185   0.175684   0.070919
   63  H 14  S    0.488049  -0.304682   0.063833  -0.064042   0.061095
   64  H 15  S    0.027440  -0.056736  -0.198016   0.086180   0.175550
   65  H 15  S    0.207264   0.319717   0.028655  -0.026265  -0.007459
   66  H 16  S    0.032235  -0.022959  -0.106639  -0.040268  -0.432277
   67  H 16  S   -0.747473  -0.065108  -0.034311  -0.028775   0.087029
   68  H 17  S   -0.022101  -0.034674   0.257274  -0.262704   0.190923
   69  H 17  S    0.528340   0.052358  -0.132194   0.054371  -0.020684

                     41         42         43         44         45
                    0.9337     0.9783     1.0195     1.0429     1.0476
                     A          A          A          A          A   
    1  C  1  S    0.008149  -0.002583  -0.028119  -0.010044   0.028793
    2  C  1  S   -0.051808   0.030999   0.099175   0.062173  -0.076795
    3  C  1  X   -0.047514  -0.028782  -0.351190  -0.124935   0.442287
    4  C  1  Y    0.114876  -0.038529  -0.262882  -0.196002   0.088952
    5  C  1  Z   -0.371945   0.110740  -0.510664  -0.051525   0.237878
    6  C  1  S    0.279864  -0.167237  -0.037344  -0.285026   0.001328
    7  C  1  X    0.117577   0.011499   0.336613   0.186138  -0.623642
    8  C  1  Y   -0.189945   0.061819   0.321921   0.377410  -0.053896
    9  C  1  Z    0.602714  -0.153393   0.758010   0.109686  -0.277345
   10  H  2  S   -0.392969   0.103073  -0.318919  -0.018391   0.107414
   11  H  2  S    0.023386  -0.016148  -0.074744   0.001952   0.052943
   12  C  3  S   -0.009562   0.008954   0.066005  -0.013073  -0.028712
   13  C  3  S   -0.002339  -0.013386  -0.202416   0.095252   0.099857
   14  C  3  X    0.441555   0.069509   0.031670  -0.370370   0.127533
   15  C  3  Y    0.142824  -0.332971   0.076288   0.069900  -0.038038
   16  C  3  Z    0.060852  -0.147923  -0.209520  -0.172656   0.099500
   17  C  3  S    0.068166  -0.055174   0.460168  -0.464628  -0.492195
   18  C  3  X   -0.520429   0.089557   0.154545   0.809278  -0.003483
   19  C  3  Y   -0.009422   0.341181  -0.155190  -0.052535  -0.052896
   20  C  3  Z   -0.194790   0.137300   0.268720   0.326809  -0.313986
   21  H  4  S    0.038960   0.082016   0.212344   0.117302  -0.098716
   22  H  4  S   -0.139519  -0.028352   0.094372   0.009095  -0.106011
   23  C  5  S   -0.000830  -0.002913  -0.016633   0.030371   0.018774
   24  C  5  S   -0.017523   0.009929   0.073390  -0.021831  -0.053262
   25  C  5  X   -0.105578   0.149328   0.035069   0.258628   0.115995
   26  C  5  Y   -0.288946   0.395617   0.317350  -0.440255  -0.267679
   27  C  5  Z   -0.041033  -0.417861   0.005474   0.282062   0.028974
   28  C  5  S    0.060386   0.176610  -0.149513  -0.295425  -0.028362
   29  C  5  X    0.102795  -0.246252  -0.069395  -0.442308  -0.205335
   30  C  5  Y    0.338890  -0.416490  -0.314176   0.674282   0.347439
   31  C  5  Z    0.071958   0.661687   0.013086  -0.450309   0.024113
   32  C  6  S    0.001613   0.000711  -0.043916   0.017206  -0.041942
   33  C  6  S    0.009559  -0.011208   0.129081  -0.089303   0.072741
   34  C  6  X   -0.234647  -0.208240   0.184363  -0.046037  -0.243841
   35  C  6  Y   -0.050546   0.205113  -0.127421   0.288564  -0.045517
   36  C  6  Z    0.031874   0.330417  -0.147592   0.086387  -0.137512
   37  C  6  S   -0.240717  -0.057327  -0.159153   0.449689  -0.170924
   38  C  6  X    0.145401   0.270146  -0.019928   0.185049   0.399039
   39  C  6  Y    0.164133  -0.369779   0.065987  -0.651657   0.097505
   40  C  6  Z    0.187306  -0.487954   0.102843  -0.270434   0.269197
   41  C  7  S    0.009826  -0.002360   0.017236  -0.016700   0.041984
   42  C  7  S   -0.061801   0.042996  -0.041517   0.054412  -0.108246
   43  C  7  X   -0.300624   0.007785  -0.214292   0.209357  -0.558920
   44  C  7  Y    0.052755  -0.269582  -0.296513  -0.437814  -0.398295
   45  C  7  Z    0.329008   0.112570  -0.337426   0.285637  -0.377664
   46  C  7  S    0.171611  -0.109911  -0.058164  -0.072970   0.021188
   47  C  7  X    0.481114  -0.013838   0.192551  -0.375321   0.714409
   48  C  7  Y   -0.034922   0.421044   0.464372   0.789860   0.619052
   49  C  7  Z   -0.557757  -0.138831   0.507540  -0.444857   0.518012
   50  H  8  S    0.081018   0.215968   0.031481   0.261559   0.076745
   51  H  8  S    0.012946  -0.062284   0.002624   0.061628   0.110046
   52  H  9  S   -0.010842  -0.419844  -0.023716   0.213121   0.056315
   53  H  9  S   -0.012261   0.021046  -0.049148   0.141531   0.003835
   54  H 10  S    0.021117  -0.017851  -0.050513   0.041543   0.039413
   55  H 10  S   -0.059007   0.019715   0.035492   0.115385   0.004194
   56  H 11  S    0.132185   0.257135  -0.107476   0.014948  -0.108199
   57  H 11  S   -0.141293  -0.048503  -0.039429   0.058975  -0.097772
   58  H 12  S   -0.006062  -0.025341  -0.046683   0.077995  -0.176686
   59  H 12  S    0.000632   0.090617  -0.037665   0.136621  -0.084333
   60  H 13  S   -0.368416  -0.189540   0.185854  -0.199922   0.121356
   61  H 13  S    0.033628   0.060648   0.055450  -0.076375   0.103112
   62  H 14  S    0.004925   0.175265   0.203331   0.262225   0.278717
   63  H 14  S    0.045649   0.003357   0.057992   0.002533   0.108466
   64  H 15  S    0.331598   0.103587  -0.152455  -0.186440   0.031242
   65  H 15  S   -0.046214  -0.054483   0.036830  -0.039735   0.102969
   66  H 16  S    0.037900   0.112400   0.091666  -0.020099   0.182861
   67  H 16  S   -0.047571  -0.013077  -0.043328   0.026418   0.071105
   68  H 17  S    0.118184  -0.125044  -0.029523   0.014337  -0.012811
   69  H 17  S   -0.041870   0.061973  -0.055762  -0.119044   0.044204

                     46         47         48         49         50
                    1.0934     1.1246     1.1504     1.2086     1.2538
                     A          A          A          A          A   
    1  C  1  S    0.019398  -0.018604  -0.049777   0.002838  -0.045085
    2  C  1  S   -0.013218   0.007629  -0.030045   0.019827  -0.003932
    3  C  1  X    0.079561  -0.132233  -0.158529  -0.214860   0.040150
    4  C  1  Y   -0.003694  -0.123635  -0.208731  -0.119550   0.092832
    5  C  1  Z    0.321508   0.048997   0.054516   0.477046   0.162556
    6  C  1  S    0.033999   0.079146   0.301607  -0.101011   0.081208
    7  C  1  X   -0.208480   0.296205   0.443447   0.503887   0.220810
    8  C  1  Y   -0.048469   0.192376   0.498952   0.295258  -0.051340
    9  C  1  Z   -0.652461  -0.118969   0.000278  -1.066914  -0.152197
   10  H  2  S    0.213273  -0.002596  -0.123429  -0.065444  -0.376871
   11  H  2  S    0.130391   0.007219  -0.071068   0.583802   0.196853
   12  C  3  S    0.022215   0.005196   0.008662  -0.012309  -0.004410
   13  C  3  S   -0.110826  -0.034135  -0.084066   0.064326  -0.118584
   14  C  3  X    0.209811   0.291041  -0.524024   0.185099   0.029468
   15  C  3  Y    0.451914  -0.716840   0.053820   0.083421   0.067668
   16  C  3  Z   -0.102680  -0.117994   0.097197  -0.606837  -0.492776
   17  C  3  S    0.497474   0.237144   0.223192  -0.021409  -0.041984
   18  C  3  X   -0.489034  -0.668336   0.649355  -0.648998  -0.057166
   19  C  3  Y   -0.654713   1.092667  -0.253630  -0.279739  -0.028429
   20  C  3  Z    0.187343   0.196644  -0.499179   1.594669   0.586469
   21  H  4  S    0.171100   0.027427  -0.095765   0.180879  -0.439285
   22  H  4  S    0.012675  -0.010568  -0.149933   0.569691   0.531546
   23  C  5  S   -0.022676   0.047478  -0.003019   0.009443  -0.043361
   24  C  5  S    0.103161  -0.038123   0.030655   0.065707  -0.020982
   25  C  5  X    0.104735  -0.046403  -0.088708  -0.297992   0.023007
   26  C  5  Y    0.198026  -0.330007  -0.066178   0.030662  -0.129224
   27  C  5  Z   -0.151749  -0.090133  -0.351278   0.340325   0.155828
   28  C  5  S   -0.339014   0.143562  -0.146777  -0.360341   0.146981
   29  C  5  X   -0.193937   0.110620   0.141191   0.644744  -0.019046
   30  C  5  Y   -0.384828   0.854352   0.080350  -0.117297  -0.095546
   31  C  5  Z    0.268500   0.126277   0.759009  -0.798416  -0.241571
   32  C  6  S   -0.012787  -0.025012   0.003760   0.008535  -0.028205
   33  C  6  S    0.030623   0.050607  -0.008495   0.144797  -0.027158
   34  C  6  X    0.412908   0.338087  -0.365715  -0.259390  -0.047886
   35  C  6  Y   -0.099402  -0.218314  -0.128593  -0.268855   0.125060
   36  C  6  Z   -0.448385  -0.182818  -0.410354   0.079433   0.228990
   37  C  6  S    0.039762  -0.241709   0.240533  -0.781784  -0.062458
   38  C  6  X   -0.682147  -0.750789   0.692930   0.110564  -0.008767
   39  C  6  Y    0.236800   0.508421   0.215870   0.481373   0.010711
   40  C  6  Z    0.935111   0.505866   0.801736  -0.324313  -0.138200
   41  C  7  S   -0.009707  -0.015720   0.029048   0.034902  -0.033027
   42  C  7  S   -0.011341  -0.004137  -0.018018  -0.015329  -0.015925
   43  C  7  X   -0.108344   0.008657  -0.182414   0.038573  -0.115045
   44  C  7  Y   -0.115523   0.126582   0.038047   0.129205   0.029451
   45  C  7  Z    0.413653   0.113279   0.161984  -0.066162  -0.080884
   46  C  7  S    0.107785   0.096883   0.272684  -0.029109   0.118284
   47  C  7  X    0.254047  -0.011893   0.680811   0.152214  -0.011439
   48  C  7  Y    0.193069  -0.330258   0.017565  -0.158330  -0.094804
   49  C  7  Z   -0.882226  -0.304973  -0.182303   0.266821  -0.014768
   50  H  8  S    0.137517   0.322174  -0.079785   0.122085  -0.272275
   51  H  8  S   -0.040542   0.052758   0.121754  -0.410458   0.020102
   52  H  9  S   -0.156376   0.125439  -0.091240   0.002288  -0.413420
   53  H  9  S   -0.040295   0.076148  -0.224618   0.428947   0.252282
   54  H 10  S   -0.085486   0.271679   0.195864   0.180367  -0.289170
   55  H 10  S   -0.042389   0.171080   0.105436  -0.037248   0.004099
   56  H 11  S   -0.272329  -0.150135  -0.043046   0.003460  -0.401188
   57  H 11  S   -0.206535  -0.136804  -0.245005   0.316080   0.240255
   58  H 12  S   -0.029133  -0.258958  -0.013163   0.402026  -0.322068
   59  H 12  S   -0.073560  -0.118456  -0.095593  -0.381973   0.161408
   60  H 13  S   -0.231470  -0.050774   0.107242   0.154396  -0.280738
   61  H 13  S   -0.229999  -0.116299  -0.102404   0.104935   0.092148
   62  H 14  S    0.065241  -0.085093   0.127757   0.215404  -0.162793
   63  H 14  S    0.010797  -0.138140   0.034576  -0.078732  -0.051916
   64  H 15  S   -0.045977  -0.165913   0.255460   0.293131  -0.312918
   65  H 15  S    0.128811   0.137419   0.181888  -0.087657   0.175774
   66  H 16  S   -0.030013  -0.008453  -0.461394   0.133535  -0.329970
   67  H 16  S    0.089785  -0.105902   0.012901  -0.421313   0.003535
   68  H 17  S    0.151050  -0.275994  -0.368173  -0.000759  -0.260770
   69  H 17  S   -0.012055   0.001128  -0.133758  -0.178124   0.087585

                     51         52         53         54         55
                    1.2736     1.3197     1.3537     1.3683     1.3780
                     A          A          A          A          A   
    1  C  1  S   -0.001396  -0.014880  -0.004210  -0.007159  -0.009747
    2  C  1  S    0.027488  -0.067969  -0.026140  -0.017808   0.031214
    3  C  1  X   -0.221063  -0.002563  -0.014601   0.006680  -0.168756
    4  C  1  Y    0.548121  -0.224422   0.163730  -0.079379   0.093511
    5  C  1  Z   -0.003421   0.165376  -0.251737   0.024105   0.142721
    6  C  1  S   -0.283052   0.662324   0.319065   0.338073   0.140883
    7  C  1  X    0.586470  -0.253010  -0.176554  -0.300510  -0.007126
    8  C  1  Y   -1.041088   0.462852   0.054534   0.296844   0.116433
    9  C  1  Z    0.112239  -0.452963   0.109272  -0.051309  -0.234277
   10  H  2  S   -0.011205  -0.110259   0.418089  -0.011562  -0.096464
   11  H  2  S   -0.096490   0.261263  -0.515053   0.003072   0.211841
   12  C  3  S    0.007812   0.006101  -0.008086   0.011516   0.010889
   13  C  3  S   -0.045712   0.008863   0.065849  -0.041834  -0.082479
   14  C  3  X    0.024229   0.222580   0.103223   0.065965   0.047058
   15  C  3  Y   -0.350060   0.157452   0.259685   0.184447   0.072925
   16  C  3  Z   -0.057917   0.180371  -0.104237   0.279677   0.155614
   17  C  3  S    0.021253  -0.278765  -0.044668  -0.225497   0.141213
   18  C  3  X   -0.207686  -0.704883  -0.339455   0.009594  -0.189042
   19  C  3  Y    1.293020  -0.508610  -0.581545  -0.597357  -0.192778
   20  C  3  Z    0.160296  -0.502603   0.079472  -0.600085  -0.198472
   21  H  4  S    0.056794   0.038527  -0.041367   0.043004   0.152626
   22  H  4  S   -0.050324  -0.167636   0.173397  -0.281228  -0.253737
   23  C  5  S   -0.028487   0.001552   0.019664   0.007552  -0.017414
   24  C  5  S   -0.075384   0.001371  -0.039960  -0.033656   0.105102
   25  C  5  X   -0.072822  -0.731009  -0.031702  -0.257424   0.186258
[...]
   42  C  7  S   -1.537175   0.130795   1.088553  -0.382460
   43  C  7  X   -0.086974   0.062669   0.001630   0.118243
   44  C  7  Y    0.016386  -0.002028  -0.003296  -0.000331
   45  C  7  Z   -0.025826   0.009746  -0.031377   0.001568
   46  C  7  S    3.082540  -0.126314  -2.985317   1.546477
   47  C  7  X    0.207579  -0.086116  -0.675954   0.395971
   48  C  7  Y    0.055392   0.095273  -0.150141   0.185345
   49  C  7  Z    0.080234   0.072211  -0.291677   0.312332
   50  H  8  S    0.150215   0.135424   0.180490   0.127059
   51  H  8  S    0.306360   0.394087   0.149145   0.183707
   52  H  9  S    0.115940   0.153051   0.239028   0.107111
   53  H  9  S    0.421320   0.303389   0.325683  -0.005227
   54  H 10  S    0.091709   0.091878   0.191425   0.138139
   55  H 10  S    0.494441   0.041453   0.355389   0.071432
   56  H 11  S   -0.019204   0.126479  -0.245245   0.293244
   57  H 11  S   -0.266909   0.312167  -0.347273   0.183408
   58  H 12  S    0.037664   0.139719  -0.223142   0.291042
   59  H 12  S   -0.054610   0.353407  -0.166784   0.305560
   60  H 13  S   -0.166617   0.018332   0.249485  -0.131453
   61  H 13  S   -0.540294   0.038046   0.303052  -0.020969
   62  H 14  S   -0.134448   0.010955   0.227173  -0.144484
   63  H 14  S   -0.597769   0.062847   0.310190  -0.015468
   64  H 15  S   -0.195516  -0.023399   0.205393  -0.098330
   65  H 15  S   -0.426805  -0.043713   0.221875  -0.207089
   66  H 16  S    0.017782  -0.239085   0.037939   0.162434
   67  H 16  S   -0.075229  -0.429128  -0.053154   0.205509
   68  H 17  S    0.076849  -0.226683   0.017566   0.192065
   69  H 17  S    0.255975  -0.413001   0.170709   0.152748
 ...... END OF RHF CALCULATION ......
 CPU     0: STEP CPU TIME=     0.46 TOTAL CPU TIME=          0.5 (      0.0 MIN)
 TOTAL WALL CLOCK TIME=          0.8 SECONDS, CPU UTILIZATION IS    68.00%

     ----------------------------------------------------------------
     PROPERTY VALUES FOR THE RHF   SELF-CONSISTENT FIELD WAVEFUNCTION
     ----------------------------------------------------------------

          -----------------
          ENERGY COMPONENTS
          -----------------

         WAVEFUNCTION NORMALIZATION =       1.0000000000

                ONE ELECTRON ENERGY =    -640.6401265411
                TWO ELECTRON ENERGY =     254.1545470072
           NUCLEAR REPULSION ENERGY =     191.2347620268
                                      ------------------
                       TOTAL ENERGY =    -195.2508175070

 ELECTRON-ELECTRON POTENTIAL ENERGY =     254.1545470072
  NUCLEUS-ELECTRON POTENTIAL ENERGY =    -835.3543435137
   NUCLEUS-NUCLEUS POTENTIAL ENERGY =     191.2347620268
                                      ------------------
             TOTAL POTENTIAL ENERGY =    -389.9650344797
               TOTAL KINETIC ENERGY =     194.7142169727
                 VIRIAL RATIO (V/T) =       2.0027558364

          ---------------------------------------
          MULLIKEN AND LOWDIN POPULATION ANALYSES
          ---------------------------------------

     ATOMIC MULLIKEN POPULATION IN EACH MOLECULAR ORBITAL

                      1          2          3          4          5

                  2.000000   2.000000   2.000000   2.000000   2.000000

    1             0.004981   0.000766   0.012095   1.751123   0.223881
    2             0.000002   0.000001   0.000018   0.002604   0.000232
    3             1.981806   0.004379   0.000363   0.003569   0.003761
    4             0.002870   0.000008  -0.000003   0.000003   0.000031
    5             0.004992   0.001309   0.000061   0.225275   1.761164
    6             0.005150   1.982777   0.004623   0.000225   0.001899
    7             0.000204   0.004996   1.974236   0.011425   0.000829
    8             0.000000  -0.000009  -0.000000   0.000376   0.002421
    9             0.000001   0.000004   0.000000   0.000401   0.002435
   10             0.000007   0.000003  -0.000005   0.000191   0.002672
   11             0.000002   0.002893   0.000033  -0.000006  -0.000013
   12            -0.000004   0.002859   0.000031  -0.000012   0.000019
   13            -0.000001   0.000005   0.002832   0.000012   0.000001
   14            -0.000000   0.000010   0.002954   0.000014  -0.000006
   15            -0.000003   0.000001   0.002735   0.000027   0.000000
   16            -0.000005  -0.000004   0.000004   0.002483   0.000232
   17            -0.000002   0.000000   0.000022   0.002290   0.000442

                      6          7          8          9         10

                  2.000000   2.000000   2.000000   2.000000   2.000000

    1             0.238150   0.269679   0.642039   0.247283   0.167490
    2             0.012456   0.016142   0.049686   0.027457   0.053045
    3             0.769819   0.142270   0.105607   0.173533   0.576126
    4             0.026605   0.004040  -0.000000   0.010081   0.194145
    5             0.253173   0.174112   0.832410   0.088329   0.216335
    6             0.453298   0.401130   0.018973   0.433896   0.340950
    7             0.148875   0.758007   0.001929   0.576481   0.090546
    8             0.007370   0.016152   0.067280   0.020353   0.025314
    9             0.013585   0.010676   0.064448   0.009452   0.065046
   10             0.008807   0.004084   0.088131   0.011217   0.022662
   11             0.019888   0.016288   0.000841   0.046519   0.106564
   12             0.014077   0.021541   0.006877   0.053165   0.058895
   13             0.006937   0.043616   0.000037   0.070929   0.029651
   14             0.007166   0.040310   0.001407   0.080908   0.012993
   15             0.003172   0.048307   0.000001   0.082250   0.002638
   16             0.008003   0.022192   0.047540   0.047023   0.015564
   17             0.008619   0.011454   0.072794   0.021125   0.022037

                     11         12         13         14         15

                  2.000000   2.000000   2.000000   2.000000   2.000000

    1             0.163917   0.270786   0.299945   0.509053   0.470072
    2             0.043912   0.005552   0.032789   0.056577   0.272558
    3             0.338765   0.264590   0.199641   0.124240   0.064972
    4             0.083695   0.001585   0.033537   0.004097   0.000714
    5             0.256899   0.394043   0.180428   0.057902   0.462274
    6             0.407134   0.170263   0.301238   0.170815   0.016953
    7             0.175900   0.273447   0.343561   0.456806   0.163973
    8             0.092818   0.063294   0.005477   0.000739   0.000283
    9             0.017653   0.000551   0.102565   0.000655   0.229284
   10             0.026361   0.201979   0.014559   0.019665   0.097524
   11             0.060539   0.017428   0.081757   0.027955   0.000164
   12             0.168749   0.021454   0.041021   0.001469   0.002379
   13             0.017584   0.004804   0.167361   0.084679   0.003486
   14             0.079527   0.046938   0.032938   0.051877   0.034243
   15             0.000146   0.133143   0.000601   0.145114   0.092359
   16             0.017642   0.005207   0.161842   0.140757   0.069406
   17             0.048758   0.124937   0.000739   0.147601   0.019357

                     16         17         18         19         20

                  2.000000   2.000000   2.000000   2.000000   2.000000

    1             0.104360   0.302339   0.205457   0.169815   0.299351
    2             0.021814   0.025347   0.067676   0.108931   0.003640
    3             0.039666   0.056257   0.108420   0.446988   0.395082
    4             0.002702   0.010820   0.027560   0.348399   0.002914
    5             0.594544   0.225739   0.133307   0.187484   0.391905
    6             0.027256   0.377468   0.285396   0.220751   0.248186
    7             0.392684   0.346239   0.385838   0.102877   0.180117
    8             0.348619   0.039080   0.004911   0.001772   0.010440
    9             0.091878   0.017014   0.059275   0.111862   0.001108
   10             0.022142   0.153000   0.002634   0.009820   0.103565
   11             0.006146   0.025083   0.161063   0.192373   0.002042
   12             0.000571   0.087256   0.075861   0.028477   0.193729
   13             0.009020   0.066046   0.237903   0.046994   0.000636
   14             0.139437   0.053449   0.129856   0.003367   0.081012
   15             0.157548   0.002922   0.000665   0.003537   0.000469
   16             0.039393   0.101838   0.001122   0.001725   0.001544
   17             0.002219   0.110104   0.113056   0.014826   0.084258

                     21

                  2.000000

    1             0.192657
    2             0.007606
    3             0.501687
    4             0.038492
    5             0.108962
    6             0.515380
    7             0.193168
    8             0.097806
    9             0.011260
   10             0.011674
   11             0.035701
   12             0.020270
   13             0.013093
   14             0.002653
   15             0.126295
   16             0.122150
   17             0.001148

               ----- POPULATIONS IN EACH AO -----
                             MULLIKEN      LOWDIN
              1  C  1  S      1.98833     1.97650
              2  C  1  S      0.35177     0.41672
              3  C  1  X      0.53177     0.50986
              4  C  1  Y      0.53719     0.50854
              5  C  1  Z      0.53497     0.50431
              6  C  1  S      1.11116     0.58334
              7  C  1  X      0.44937     0.56406
              8  C  1  Y      0.52009     0.58900
              9  C  1  Z      0.52059     0.59698
             10  H  2  S      0.46617     0.46918
             11  H  2  S      0.34188     0.44691
             12  C  3  S      1.99025     1.97613
             13  C  3  S      0.33248     0.40751
             14  C  3  X      0.52065     0.50979
             15  C  3  Y      0.51971     0.50506
             16  C  3  Z      0.53546     0.51146
             17  C  3  S      1.12795     0.55499
             18  C  3  X      0.36566     0.52127
             19  C  3  Y      0.37846     0.53022
             20  C  3  Z      0.53092     0.56980
             21  H  4  S      0.46789     0.48548
             22  H  4  S      0.32440     0.43711
             23  C  5  S      1.98830     1.97649
             24  C  5  S      0.35131     0.41595
             25  C  5  X      0.54039     0.50847
             26  C  5  Y      0.52687     0.51063
             27  C  5  Z      0.53799     0.50486
             28  C  5  S      1.11323     0.58286
             29  C  5  X      0.55647     0.60186
             30  C  5  Y      0.38378     0.54464
             31  C  5  Z      0.55232     0.60585
             32  C  6  S      1.98922     1.97628
             33  C  6  S      0.34353     0.41268
             34  C  6  X      0.52168     0.50948
             35  C  6  Y      0.53626     0.50971
             36  C  6  Z      0.53177     0.50469
             37  C  6  S      1.10628     0.56725
             38  C  6  X      0.33470     0.51912
             39  C  6  Y      0.51884     0.57756
             40  C  6  Z      0.50148     0.57845
             41  C  7  S      1.98825     1.97646
             42  C  7  S      0.35137     0.41302
             43  C  7  X      0.53204     0.50826
             44  C  7  Y      0.54099     0.50883
             45  C  7  Z      0.53502     0.50442
             46  C  7  S      1.12238     0.58323
             47  C  7  X      0.45087     0.56712
             48  C  7  Y      0.54498     0.60214
             49  C  7  Z      0.51623     0.59453
             50  H  8  S      0.46717     0.47020
             51  H  8  S      0.33733     0.44479
             52  H  9  S      0.46615     0.46919
             53  H  9  S      0.34300     0.44728
             54  H 10  S      0.46871     0.47111
             55  H 10  S      0.33198     0.44336
             56  H 11  S      0.46729     0.47757
             57  H 11  S      0.33597     0.44355
             58  H 12  S      0.46835     0.47960
             59  H 12  S      0.33033     0.44077
             60  H 13  S      0.46674     0.46967
             61  H 13  S      0.33889     0.44539
             62  H 14  S      0.46849     0.47093
             63  H 14  S      0.33256     0.44316
             64  H 15  S      0.46719     0.46993
             65  H 15  S      0.33474     0.44300
             66  H 16  S      0.46749     0.47038
             67  H 16  S      0.33817     0.44512
             68  H 17  S      0.46754     0.47044
             69  H 17  S      0.33825     0.44549

          ----- MULLIKEN ATOMIC OVERLAP POPULATIONS -----
          (OFF-DIAGONAL ELEMENTS NEED TO BE MULTIPLIED BY 2)

             1           2           3           4           5

    1    5.3570513
    2    0.3743547   0.5274033
    3    0.2642333  -0.0473509   5.5626232
    4   -0.0420649   0.0031216   0.3944168   0.5266309
    5   -0.0864698  -0.0010988   0.2549477  -0.0436868   5.3719308
    6   -0.0808126  -0.0013486   0.2518258  -0.0469017  -0.0804370
    7    0.0033007  -0.0000335  -0.0708175  -0.0013799  -0.0001816
    8   -0.0014662   0.0000166  -0.0420242  -0.0015036   0.3785914
    9   -0.0010290   0.0025043  -0.0479175   0.0031586   0.3741028
   10    0.0032803  -0.0000418  -0.0397056  -0.0013670   0.3783410
   11   -0.0000047   0.0022507  -0.0481264   0.0033454  -0.0022363
   12   -0.0020309   0.0000479  -0.0461894  -0.0010870   0.0034542
   13   -0.0000232   0.0000012  -0.0015504   0.0027234   0.0001434
   14   -0.0000269   0.0000016  -0.0018875   0.0000676   0.0008388
   15   -0.0000533   0.0000006   0.0031455  -0.0000300  -0.0000130
   16    0.3788091  -0.0260231  -0.0421192  -0.0016820  -0.0010691
   17    0.3781916  -0.0257598  -0.0419637  -0.0014661   0.0034891

             6           7           8           9          10

    6    5.4429418
    7    0.2529800   5.3522596
    8    0.0033646  -0.0000259   0.5170466
    9   -0.0014106   0.0001236  -0.0257902   0.5280470
   10   -0.0016663   0.0002042  -0.0255205  -0.0255673   0.5118543
   11    0.3816567  -0.0419798  -0.0000427   0.0029215   0.0000730
   12    0.3892115  -0.0436082  -0.0000498  -0.0000386  -0.0000311
   13   -0.0453810   0.3761167  -0.0000104   0.0000134   0.0000865
   14   -0.0425029   0.3759743  -0.0000016   0.0000957   0.0008285
   15   -0.0401000   0.3792939   0.0000005  -0.0000098   0.0000096
   16    0.0035334  -0.0000580   0.0019392  -0.0000054  -0.0000294
   17   -0.0011936  -0.0000318  -0.0000275  -0.0000463  -0.0000541

            11          12          13          14          15

   11    0.5321698
   12   -0.0265579   0.5237745
   13    0.0029857  -0.0016010   0.5246061
   14   -0.0017873   0.0028518  -0.0267051   0.5194667
   15   -0.0013725  -0.0017988  -0.0257826  -0.0261621   0.5148007
   16   -0.0000662   0.0000077   0.0000001   0.0000009   0.0000004
   17    0.0000313   0.0023309   0.0000022  -0.0000002  -0.0000010

            16          17

   16    0.5172983
   17   -0.0248786   0.5171608

          TOTAL MULLIKEN AND LOWDIN ATOMIC POPULATIONS
       ATOM         MULL.POP.    CHARGE          LOW.POP.     CHARGE
    1 C             6.545240   -0.545240         6.249307   -0.249307
    2 H             0.808046    0.191954         0.916084    0.083916
    3 C             6.301540   -0.301540         6.086229   -0.086229
    4 H             0.792295    0.207705         0.922585    0.077415
    5 C             6.550647   -0.550647         6.251612   -0.251612
    6 C             6.383759   -0.383759         6.155218   -0.155218
    7 C             6.582137   -0.582137         6.258030   -0.258030
    8 H             0.804496    0.195504         0.914992    0.085008
    9 H             0.809152    0.190848         0.916476    0.083524
   10 H             0.800694    0.199306         0.914462    0.085538
   11 H             0.803260    0.196740         0.921114    0.078886
   12 H             0.798686    0.201314         0.920368    0.079632
   13 H             0.805625    0.194375         0.915063    0.084937
   14 H             0.801052    0.198948         0.914090    0.085910
   15 H             0.801928    0.198072         0.912937    0.087063
   16 H             0.805658    0.194342         0.915504    0.084496
   17 H             0.805783    0.194217         0.915929    0.084071

          -------------------------------
          BOND ORDER AND VALENCE ANALYSIS     BOND ORDER THRESHOLD=0.050
          -------------------------------

                   BOND                       BOND                       BOND
  ATOM PAIR DIST  ORDER      ATOM PAIR DIST  ORDER      ATOM PAIR DIST  ORDER
    1   2  1.098  0.928        1   3  1.546  0.917        1  16  1.097  0.932
    1  17  1.097  0.933        3   4  1.100  0.918        3   5  1.546  0.910
    3   6  1.550  0.894        5   8  1.097  0.932        5   9  1.098  0.929
    5  10  1.095  0.929        6   7  1.545  0.921        6  11  1.099  0.923
    6  12  1.099  0.927        7  13  1.097  0.929        7  14  1.095  0.925
    7  15  1.096  0.931

                       TOTAL       BONDED        FREE
      ATOM            VALENCE     VALENCE     VALENCE
    1 C                 3.661       3.661      -0.000
    2 H                 0.921       0.921       0.000
    3 C                 3.559       3.559      -0.000
    4 H                 0.907       0.907      -0.000
    5 C                 3.655       3.655      -0.000
    6 C                 3.594       3.594      -0.000
    7 C                 3.675       3.675       0.000
    8 H                 0.921       0.921       0.000
    9 H                 0.922       0.922      -0.000
   10 H                 0.919       0.919       0.000
   11 H                 0.915       0.915      -0.000
   12 H                 0.914       0.914       0.000
   13 H                 0.919       0.919      -0.000
   14 H                 0.917       0.917      -0.000
   15 H                 0.919       0.919      -0.000
   16 H                 0.921       0.921       0.000
   17 H                 0.922       0.922       0.000

          ---------------------
          ELECTROSTATIC MOMENTS
          ---------------------

 POINT   1           X           Y           Z (BOHR)    CHARGE
                -2.548871   -0.413167    0.096621       -0.00 (A.U.)
         DX          DY          DZ         /D/  (DEBYE)
    -0.009377    0.026661   -0.034993    0.044980
 ...... END OF PROPERTY EVALUATION ......
 CPU     0: STEP CPU TIME=     0.01 TOTAL CPU TIME=          0.5 (      0.0 MIN)
 TOTAL WALL CLOCK TIME=          0.8 SECONDS, CPU UTILIZATION IS    66.67%
               580000  WORDS OF DYNAMIC MEMORY USED
 EXECUTION OF GAMESS TERMINATED NORMALLY Sun May 17 14:35:59 2020
 DDI: 263640 bytes (0.3 MB / 0 MWords) used by master data server.
Note: The following floating-point exceptions are signalling: IEEE_DENORMALNote: The following floating-point exceptions are signalling: IEEE_DENORMALNote: The following floating-point exceptions are signalling: IEEE_DENORMALNote: The following floating-point exceptions are signalling: IEEE_DENORMAL

 ----------------------------------------
 CPU timing information for all processes
 ========================================
 0: 0.448 + 0.91 = 0.540
 1: 0.430 + 0.15 = 0.446
 2: 0.435 + 0.08 = 0.443
 3: 0.406 + 0.19 = 0.426
 4: 0.399 + 0.11 = 0.410
 5: 0.405 + 0.08 = 0.413
 ----------------------------------------



Note: The following floating-point exceptions are signalling: IEEE_DENORMALNote: The following floating-point exceptions are signalling:
 IEEE_DENORMAL
 ddikick.x: exited gracefully.
unset echo
----- accounting info -----
Files used on the master node pietdev were:
-rwxr-xr-x 1 piet piet     1055 mei 17 14:35 /home/piet/scr/isoleucine_fukui_neu.F05*
-rw-r--r-- 1 piet piet 49152000 mei 17 14:36 /home/piet/scr/isoleucine_fukui_neu.F10
ls: No match.
ls: No match.
ls: No match.
zo 17 mei 2020 14:36:02 CEST
0.097u 0.032s 0:03.93 3.0%	0+0k 0+8io 0pf+0w
