----- GAMESS execution script 'rungms' -----
This job is running on host pietdev
under operating system Linux at ma 25 mei 2020 18:07:28 CEST
Available scratch disk space (Kbyte units) at beginning of the job is
Filesystem     1K-blocks     Used Available Use% Mounted on
/dev/sda2      244568380 31071260 201004064  14% /
GAMESS temporary binary files will be written to /home/piet/scr
GAMESS supplementary output files will be written to /home/piet/gamess/scr
Copying input file apigenin_fukui_acid.inp to your run's scratch directory...
cp apigenin_fukui_acid.inp /home/piet/scr/apigenin_fukui_acid.F05
unset echo
 
Assuming a single but multicore node.
 
/home/piet/gamess/ddikick.x /home/piet/gamess/gamess.03.x apigenin_fukui_acid -ddi 1 6 pietdev:cpus=6 -scr /home/piet/scr

 Distributed Data Interface kickoff program.
 Initiating 6 compute processes on 1 nodes to run the following command:
 /home/piet/gamess/gamess.03.x apigenin_fukui_acid 

          ******************************************************
          *         GAMESS VERSION = 30 SEP 2019 (R2)          *
          *             FROM IOWA STATE UNIVERSITY             *
          * M.W.SCHMIDT, K.K.BALDRIDGE, J.A.BOATZ, S.T.ELBERT, *
          *   M.S.GORDON, J.H.JENSEN, S.KOSEKI, N.MATSUNAGA,   *
          *          K.A.NGUYEN, S.J.SU, T.L.WINDUS,           *
          *       TOGETHER WITH M.DUPUIS, J.A.MONTGOMERY       *
          *         J.COMPUT.CHEM.  14, 1347-1363(1993)        *
          **************** 64 BIT LINUX VERSION ****************

  SINCE 1993, STUDENTS AND POSTDOCS WORKING AT IOWA STATE UNIVERSITY
  AND ALSO IN THEIR VARIOUS JOBS AFTER LEAVING ISU HAVE MADE IMPORTANT
  CONTRIBUTIONS TO THE CODE:
     IVANA ADAMOVIC, CHRISTINE AIKENS, YURI ALEXEEV, POOJA ARORA,
     ANDREY ASADCHEV, ROB BELL, PRADIPTA BANDYOPADHYAY, JONATHAN BENTZ,
     COLLEEN BERTONI, BRETT BODE, KURT BRORSEN, CALEB CARLIN, GALINA CHABAN,
     WEI CHEN, CHEOL HO CHOI, PAUL DAY, ALBERT DEFUSCO, NUWAN DESILVA,
     TIM DUDLEY, DMITRI FEDOROV, ALEX FINDLATER, GRAHAM FLETCHER, 
     MARK FREITAG, KURT GLAESEMANN, EMILIE B GUIDEZ, ANASTASIA GUNINA, 
     DAN KEMP, SAROM SOK LEANG, GRANT MERRILL,
     NORIYUKI MINEZAWA, JONATHAN MULLIN,
     TAKESHI NAGATA, SEAN NEDD, HEATHER NETZLOFF, BOSILJKA NJEGIC, RYAN OLSON,
     MIKE PAK, BUU PHAM, DAVID POOLE,
     SPENCER PRUITT, LUKE ROSKOP, TOSAPORN SATTASATHUCHANA,
     JIM SHOEMAKER, LYUDMILA SLIPCHENKO,
     TONY SMITH, JIE SONG, TETSUYA TAKETSUGU, SIMON WEBB,
     JORGE LUIS GALVEZ VALLEJO, PENG XU, SOOHAENG YOO,
     FEDERICO ZAHARIEV

  ADDITIONAL CODE HAS BEEN PROVIDED BY COLLABORATORS IN OTHER GROUPS:
     IOWA STATE UNIVERSITY:
          JOE IVANIC, AARON WEST, LAIMUTIS BYTAUTAS, KLAUS RUEDENBERG
     UNIVERSITY OF TOKYO: KIMIHIKO HIRAO, TAKAHITO NAKAJIMA,
          TAKAO TSUNEDA, MUNEAKI KAMIYA, SUSUMU YANAGISAWA,
          KIYOSHI YAGI, MAHITO CHIBA, SEIKEN TOKURA, NAOAKI KAWAKAMI
     UNIVERSITY OF AARHUS: FRANK JENSEN
     UNIVERSITY OF IOWA: VISVALDAS KAIRYS, HUI LI
     NATIONAL INST. OF STANDARDS AND TECHNOLOGY: WALT STEVENS, DAVID GARMER
     UNIVERSITY OF PISA: BENEDETTA MENNUCCI, JACOPO TOMASI
     UNIVERSITY OF MEMPHIS: HENRY KURTZ, PRAKASHAN KORAMBATH
     UNIVERSITY OF ALBERTA: TOBY ZENG, MARIUSZ KLOBUKOWSKI
     UNIVERSITY OF NEW ENGLAND: MARK SPACKMAN
     MIE UNIVERSITY: HIROAKI UMEDA
     NAT. INST. OF ADVANCED INDUSTRIAL SCIENCE AND TECHNOLOGY: KAZUO KITAURA
     MICHIGAN STATE UNIVERSITY:
          KAROL KOWALSKI, MARTA WLOCH, JEFFREY GOUR, JESSE LUTZ,
          WEI LI, JUN SHEN, J. EMILIANO DEUSTUA, PIOTR PIECUCH
     UNIVERSITY OF MINNESOTA:
          ANDREW SAND, PRACHI SHARMA, YINAN SHU
     UNIVERSITY OF SILESIA: MONIKA MUSIAL, STANISLAW KUCHARSKI
     FACULTES UNIVERSITAIRES NOTRE-DAME DE LA PAIX:
          OLIVIER QUINET, BENOIT CHAMPAGNE
     UNIVERSITY OF CALIFORNIA - SANTA BARBARA: BERNARD KIRTMAN
     INSTITUTE FOR MOLECULAR SCIENCE:
          KAZUYA ISHIMURA, MICHIO KATOUDA, AND SHIGERU NAGASE
     UNIVERSITY OF NOTRE DAME: ANNA POMOGAEVA, DAN CHIPMAN
     KYUSHU UNIVERSITY:
          HARUYUKI NAKANO,
          FENG LONG GU, JACEK KORCHOWIEC, MARCIN MAKOWSKI, AND YURIKO AOKI,
          HIROTOSHI MORI AND EISAKU MIYOSHI
     PENNSYLVANIA STATE UNIVERSITY:
          TZVETELIN IORDANOV, CHET SWALINA, JONATHAN SKONE,
          SHARON HAMMES-SCHIFFER
     WASEDA UNIVERSITY:
          MASATO KOBAYASHI, TOMOKO AKAMA, TSUGUKI TOUMA,
          TAKESHI YOSHIKAWA, YASUHIRO IKABATA, JUNJI SEINO,
          YUYA NAKAJIMA, HIROMI NAKAI
     NANJING UNIVERSITY: SHUHUA LI
     UNIVERSITY OF NEBRASKA:
          PEIFENG SU, DEJUN SI, NANDUN THELLAMUREGE, YALI WANG, HUI LI
     UNIVERSITY OF ZURICH: ROBERTO PEVERATI, KIM BALDRIDGE
     N. COPERNICUS UNIVERSITY AND JACKSON STATE UNIVERSITY:
          MARIA BARYSZ
     UNIVERSITY OF COPENHAGEN: Jimmy Kromann, CASPER STEINMANN
     TOKYO INSTITUTE OF TECHNOLOGY: HIROYA NAKATA
     NAGOYA UNIVERSITY: YOSHIO NISHIMOTO, STEPHAN IRLE
     MOSCOW STATE UNIVERSITY: VLADIMIR MIRONOV
     A.N.NESMEYANOV INSTITUTE OF ORGANOELEMENT COMPOUNDS OF RUSSIAN ACADEMY OF SCIENCES:
          IGOR S. GERASIMOV
     JOHANNES KEPLER UNIVERSITY LINZ:
          CHRISTIAN FRIEDL


 PARALLEL VERSION RUNNING ON        6 PROCESSORS IN        1 NODES.

 EXECUTION OF GAMESS BEGUN Mon May 25 18:07:28 2020

            ECHO OF THE FIRST FEW INPUT CARDS -
 INPUT CARD> $BASIS GBASIS=N21 NGAUSS=3 $END                                                
 INPUT CARD> $CONTRL SCFTYP=UHF MAXIT=60 MULT=2 ICHARG=-1 $END                              
 INPUT CARD> $SYSTEM MEMDDI=1000 MWORDS=30 $END                                             
 INPUT CARD> $SCF DIRSCF=.TRUE. $END                                                        
 INPUT CARD> $STATPT OPTTOL=0.0001 NSTEP=999 $END                                           
 INPUT CARD> $DATA                                                                          
 INPUT CARD>                                                                                
 INPUT CARD>C1                                                                              
 INPUT CARD>C 6.0000000 2.22960 1.81070 -0.01420                                            
 INPUT CARD>C 6.0000000 4.19310 0.40880 -0.00840                                            
 INPUT CARD>C 6.0000000 -2.71150 1.25970 0.00010                                            
 INPUT CARD>C 6.0000000 -3.07290 -1.13180 0.01780                                           
 INPUT CARD>C 6.0000000 -4.07400 1.46090 0.00130                                            
 INPUT CARD>C 6.0000000 -4.43400 -0.92150 0.01890                                           
 INPUT CARD>H 1.0000000 4.13060 -2.32020 -0.87200                                           
 INPUT CARD>H 1.0000000 4.62700 3.10240 0.85580                                             
 INPUT CARD>H 1.0000000 -6.67230 0.62840 -0.87030                                           
 INPUT CARD>C 6.0000000 3.39980 -0.72390 0.00100                                            
 INPUT CARD>C 6.0000000 3.60910 1.67050 -0.01570                                            
 INPUT CARD>C 6.0000000 -2.19920 -0.04080 0.00840                                           
 INPUT CARD>C 6.0000000 -4.93910 0.37320 0.01110                                            
 INPUT CARD>O 8.0000000 1.57930 -2.90130 0.01970                                            
 INPUT CARD>O 8.0000000 3.96790 -1.95640 0.00910                                            
 INPUT CARD>O 8.0000000 4.39710 2.77590 -0.02490                                            
 INPUT CARD>O 8.0000000 -6.28140 0.57600 0.01270                                            
 INPUT CARD>C 6.0000000 1.12400 -1.76900 0.01300                                            
 INPUT CARD>C 6.0000000 -0.74070 -0.26110 0.00670                                           
 INPUT CARD>C 6.0000000 2.00600 -0.58960 0.00310                                            
 INPUT CARD>C 6.0000000 1.41820 0.68730 -0.00490                                            
 INPUT CARD>O 8.0000000 0.07350 0.80630 -0.00280                                            
 INPUT CARD>C 6.0000000 -0.27210 -1.53810 0.01540                                           
 INPUT CARD>H 1.0000000 1.78730 2.79600 -0.01580                                            
 INPUT CARD>H 1.0000000 -0.96080 -2.36990 0.02290                                           
 INPUT CARD>H 1.0000000 5.26880 0.31310 -0.00970                                            
 INPUT CARD>H 1.0000000 -2.04000 2.10540 -0.01160                                           
 INPUT CARD>H 1.0000000 -2.68120 -2.13820 0.02460                                           
 INPUT CARD>H 1.0000000 -4.47080 2.46530 -0.00510                                           
 INPUT CARD>H 1.0000000 -5.10970 -1.76390 0.02610                                           
 INPUT CARD> $END                                                                           
   30000000 WORDS OF MEMORY AVAILABLE

     BASIS OPTIONS
     -------------
     GBASIS=N21          IGAUSS=       3      POLAR=NONE    
     NDFUNC=       0     NFFUNC=       0     DIFFSP=       F
     NPFUNC=       0      DIFFS=       F     BASNAM=        


     RUN TITLE
     ---------
                                                                                 

 THE POINT GROUP OF THE MOLECULE IS C1      
 THE ORDER OF THE PRINCIPAL AXIS IS     0

 ATOM      ATOMIC                      COORDINATES (BOHR)
           CHARGE         X                   Y                   Z
 C           6.0     4.2133330622        3.4217268460       -0.0268341090
 C           6.0     7.9238100391        0.7725199838       -0.0158736983
 C           6.0    -5.1239920157        2.3804878267        0.0001889726
 C           6.0    -5.8069389877       -2.1387918729        0.0336371226
 C           6.0    -7.6987436740        2.7607006955        0.0024566438
 C           6.0    -8.3790450296       -1.7413824977        0.0357158212
 H           1.0     7.8057021649       -4.3845422367       -1.6478410613
 H           1.0     8.7437621452        5.8626859043        1.6172275003
 H           1.0   -12.6088187079        1.1875038107       -1.6446285271
 C           6.0     6.4246904131       -1.3679726425        0.0018897260
 C           6.0     6.8202100623        3.1567872625       -0.0296686980
 C           6.0    -4.1558853922       -0.0771008203        0.0158736983
 C           6.0    -9.3335456260        0.7052457386        0.0209759585
 O           8.0     2.9844442524       -5.4826620082        0.0372276020
 O           8.0     7.4982437467       -3.6970599224        0.0171965065
 O           8.0     8.3093141406        5.2456903693       -0.0470541771
 O           8.0   -11.8701248193        1.0884821689        0.0239995200
 C           6.0     2.1240520102       -3.3429252723        0.0245664378
 C           6.0    -1.3997200391       -0.4934074554        0.0126611641
 C           6.0     3.7907903314       -1.1141824424        0.0058581506
 C           6.0     2.6800093958        1.2988086714       -0.0092596573
 O           8.0     0.1388948601        1.5236860639       -0.0052912328
 C           6.0    -0.5141944413       -2.9065875417        0.0291017802
 H           1.0     3.3775072579        5.2836738617       -0.0298576706
 H           1.0    -1.8156487290       -4.4784616183        0.0432747251
 H           1.0     9.9565882841        0.5916732068       -0.0183303421
 H           1.0    -3.8550410150        3.9786290945       -0.0219208215
 H           1.0    -5.0667333183       -4.0406121069        0.0464872593
 H           1.0    -8.4485869459        4.6587414775       -0.0096376025
 H           1.0    -9.6559328795       -3.3332876697        0.0493218483

          INTERNUCLEAR DISTANCES (ANGS.)
          ------------------------------

                1 C          2 C          3 C          4 C          5 C     

   1 C       0.0000000    2.4126105 *  4.9717477    6.0643084    6.3133171  
   2 C       2.4126105 *  0.0000000    6.9568387    7.4275764    8.3337837  
   3 C       4.9717477    6.9568387    0.0000000    2.4187177 *  1.3772760 *
   4 C       6.0643084    7.4275764    2.4187177 *  0.0000000    2.7793105 *
   5 C       6.3133171    8.3337837    1.3772760 *  2.7793105 *  0.0000000  
   6 C       7.2020537    8.7291064    2.7793872 *  1.3772511 *  2.4095102 *
   7 H       4.6275217    2.8630669 *  7.7711373    7.3548930    9.0760581  
   8 H       2.8588312 *  2.8619210 *  7.6145484    8.8271827    8.8956222  
   9 H       9.0207851   10.9017436    4.1041531    4.1039866    2.8642461 *
  10 C       2.7917371 *  1.3829037 *  6.4251582    6.4855617    7.7865935  
  11 C       1.3866068 *  1.3903223 *  6.3339554    7.2459045    7.6859773  
  12 C       4.8002950    6.4081137    1.3977913 *  1.3977557 *  2.4020883 *
  13 C       7.3114503    9.1322902    2.3975415 *  2.3974512 *  1.3898149 *
  14 O       4.7567829    4.2177603    5.9770620    4.9773586    7.1406532  
  15 O       4.1488881    2.3759613 *  7.4133504    7.0889284    8.7378576  
  16 O       2.3727161 *  2.3759315 *  7.2685405    8.4304711    8.5725986  
  17 O       8.6001354   10.4758556    3.6348027    3.6347048    2.3781911 *
  18 C       3.7466443    3.7633291    4.8871516    4.2449990    6.1197708  
  19 C       3.6215293    4.9790939    2.4893631 *  2.4894575 *  3.7518265  
  20 C       2.4107543 *  2.4042340 *  5.0670234    5.1077805    6.4164596  
  21 C       1.3858153 *  2.7888429 *  4.1691832    4.8455773    5.5464183  
  22 O       2.3785955 *  4.1387367    2.8216671 *  3.6954687    4.1988420  
  23 C       4.1801723    4.8712418    3.7119525    2.8301177 *  4.8423799  
  24 H       1.0800222 *  3.3891964    4.7539112    6.2490228    6.0114576  
  25 H       5.2590346    5.8553257    4.0298221    2.4482410 *  4.9363458  
  26 H       3.3881503    1.0799494 *  8.0362513    8.4659584    9.4130483  
  27 H       4.2797592    6.4598760    1.0799341 *  3.3981187    2.1337063 *
  28 H       6.3016881    7.3310503    3.3981234    1.0799612 *  3.8592688  
  29 H       6.7323060    8.9046261    2.1327529 *  3.8592457    1.0799586 *
  30 H       8.1636214    9.5532143    3.8593000    2.1326447 *  3.3871263  

                6 C          7 H          8 H          9 H         10 C     

   1 C       7.2020537    4.6275217    2.8588312 *  9.0207851    2.7917371 *
   2 C       8.7291064    2.8630669 *  2.8619210 * 10.9017436    1.3829037 *
   3 C       2.7793872 *  7.7711373    7.6145484    4.1041531    6.4251582  
   4 C       1.3772511 *  7.3548930    8.8271827    4.1039866    6.4855617  
   5 C       2.4095102 *  9.0760581    8.8956222    2.8642461 *  7.7865935  
   6 C       0.0000000    8.7236711    9.9495675    2.8640624 *  7.8363122  
   7 H       8.7236711    0.0000000    5.7128186   11.1980754    1.9607068 *
   8 H       9.9495675    5.7128186    0.0000000   11.6950536    4.1081960  
   9 H       2.8640624 * 11.1980754   11.6950536    0.0000000   10.1997587  
  10 C       7.8363122    1.9607068 *  4.1081960   10.1997587    0.0000000  
  11 C       8.4505100    4.1147173    1.9611145 * 10.3693539    2.4035883 *
  12 C       2.4020978 *  6.7850672    7.5627243    4.6074468    5.6405214  
  13 C       1.3897607 *  9.5023012    9.9836026    1.9611158 *  8.4107659  
  14 O       6.3308282    2.7644055 *  6.7846851    9.0188572    2.8382461 *
  15 O       8.4654024    0.9670362 *  5.1713413   10.9849165    1.3571512 *
  16 O       9.5739758    5.1728943    0.9669999 * 11.3074344    3.6392139  
  17 O       2.3781151 * 10.8434502   11.2288336    0.9670768 *  9.7680863  
  18 C       5.6222464    3.1822461    6.0590312    8.2042696    2.5043250 *
  19 C       3.7518984    5.3611165    6.3911115    6.0617009    4.1662881  
  20 C       6.4485663    2.8765781 *  4.6073422    8.8067725    1.4002569 *
  21 C       6.0693532    4.1417427    4.1072996    8.1368653    2.4327472 *
  22 O       4.8273512    5.1952451    5.1714245    6.8036771    3.6613929  
  23 C       4.2073293    4.5588295    6.8001245    6.8147448    3.7611140  
  24 H       7.2474536    5.6920678    2.9862123 *  8.7745936    3.8717095  
  25 H       3.7631100    5.1696876    7.8653225    6.5122071    4.6609686  
  26 H       9.7810727    2.9955516 *  2.9901826 * 11.9762229    2.1374388 *
  27 H       3.8593121    7.6421547    6.7967110    4.9373169    6.1316002  
  28 H       2.1337055 *  6.8729640    9.0313105    4.9379956    6.2433455  
  29 H       3.3870850    9.8811238    9.1606228    2.9948915 *  8.4921951  
  30 H       1.0799352 *  9.3004945   10.9166206    2.9947205 *  8.5728537  

               11 C         12 C         13 C         14 O         15 O     

   1 C       1.3866068 *  4.8002950    7.3114503    4.7567829    4.1488881  
   2 C       1.3903223 *  6.4081137    9.1322902    4.2177603    2.3759613 *
   3 C       6.3339554    1.3977913 *  2.3975415 *  5.9770620    7.4133504  
   4 C       7.2459045    1.3977557 *  2.3974512 *  4.9773586    7.0889284  
   5 C       7.6859773    2.4020883 *  1.3898149 *  7.1406532    8.7378576  
   6 C       8.4505100    2.4020978 *  1.3897607 *  6.3308282    8.4654024  
   7 H       4.1147173    6.7850672    9.5023012    2.7644055 *  0.9670362 *
   8 H       1.9611145 *  7.5627243    9.9836026    6.7846851    5.1713413  
   9 H      10.3693539    4.6074468    1.9611158 *  9.0188572   10.9849165  
  10 C       2.4035883 *  5.6405214    8.4107659    2.8382461 *  1.3571512 *
  11 C       0.0000000    6.0552025    8.6461222    5.0022691    3.6446888  
  12 C       6.0552025    0.0000000    2.7710026 *  4.7391613    6.4577586  
  13 C       8.6461222    2.7710026 *  0.0000000    7.2946530    9.2066112  
  14 O       5.0022691    4.7391613    7.2946530    0.0000000    2.5687270 *
  15 O       3.6446888    6.4577586    9.2066112    2.5687270 *  0.0000000  
  16 O       1.3575485 *  7.1725924    9.6404820    6.3381847    4.7518451  
  17 O       9.9509159    4.1285370    1.3575344 *  8.5954796   10.5575193  
  18 C       4.2434309    3.7457115    6.4304126    1.2204287 *  2.8500704 *
  19 C       4.7594475    1.4750448 *  4.2460474    3.5147155    5.0044942  
  20 C       2.7709809 *  4.2408627    7.0115235    2.3508095 *  2.3910729 *
  21 C       2.4014249 *  3.6899714    6.3650749    3.5922985    3.6729165  
  22 O       3.6397081    2.4254627 *  5.0312948    4.0017793    4.7748303  
  23 C       5.0358509    2.4404243 *  5.0432108    2.2991335 *  4.2605885  
  24 H       2.1414260 *  4.8928726    7.1494853    5.7012061    5.2288567  
  25 H       6.1000253    2.6379067 *  4.8323501    2.5950923 *  4.9460344  
  26 H       2.1441023 *  7.4764027   10.2080981    4.8934284    2.6159749 *
  27 H       5.6658173    2.1521894 *  3.3772493    6.1779735    7.2521383  
  28 H       7.3536177    2.1521322 *  3.3771918    4.3283029    6.6516030  
  29 H       8.1189041    3.3824379    2.1439332 *  8.0873185    9.5269770  
  30 H       9.3709297    3.3823656    2.1439510 *  6.7850159    9.0796568  

               16 O         17 O         18 C         19 C         20 C     

   1 C       2.3727161 *  8.6001354    3.7466443    3.6215293    2.4107543 *
   2 C       2.3759315 * 10.4758556    3.7633291    4.9790939    2.4042340 *
   3 C       7.2685405    3.6348027    4.8871516    2.4893631 *  5.0670234  
   4 C       8.4304711    3.6347048    4.2449990    2.4894575 *  5.1077805  
   5 C       8.5725986    2.3781911 *  6.1197708    3.7518265    6.4164596  
   6 C       9.5739758    2.3781151 *  5.6222464    3.7518984    6.4485663  
   7 H       5.1728943   10.8434502    3.1822461    5.3611165    2.8765781 *
   8 H       0.9669999 * 11.2288336    6.0590312    6.3911115    4.6073422  
   9 H      11.3074344    0.9670768 *  8.2042696    6.0617009    8.8067725  
  10 C       3.6392139    9.7680863    2.5043250 *  4.1662881    1.4002569 *
  11 C       1.3575485 *  9.9509159    4.2434309    4.7594475    2.7709809 *
  12 C       7.1725924    4.1285370    3.7457115    1.4750448 *  4.2408627  
  13 C       9.6404820    1.3575344 *  6.4304126    4.2460474    7.0115235  
  14 O       6.3381847    8.5954796    1.2204287 *  3.5147155    2.3508095 *
  15 O       4.7518451   10.5575193    2.8500704 *  5.0044942    2.3910729 *
  16 O       0.0000000   10.9028132    5.6009585    5.9683630    4.1285268  
  17 O      10.9028132    0.0000000    7.7678166    5.6035818    8.3689733  
  18 C       5.6009585    7.7678166    0.0000000    2.3981051 *  1.4727547 *
  19 C       5.9683630    5.6035818    2.3981051 *  0.0000000    2.7662766 *
  20 C       4.1285268    8.3689733    1.4727547 *  2.7662766 *  0.0000000  
  21 C       3.6381994    7.7004245    2.4739207 *  2.3580599 *  1.4057192 *
  22 O       4.7511398    6.3590905    2.7813612 *  1.3425180 *  2.3839312 *
  23 C       6.3571730    6.3703306    1.4150674 *  1.3602906 *  2.4677000 *
  24 H       2.6098933 *  8.3685800    4.6130273    3.9670078    3.3927090  
  25 H       7.4289054    6.0817115    2.1696935 *  2.1203169 *  3.4600235  
  26 H       2.6125612 * 11.5532133    4.6384289    6.0368920    3.3853944  
  27 H       6.4719397    4.5087835    5.0022471    2.6997847 *  4.8614151  
  28 H       8.6170273    4.5087097    3.8230865    2.6998824 *  4.9364429  
  29 H       8.8733598    2.6168767 *  7.0165099    4.6202859    7.1611046  
  30 H      10.5352566    2.6169051 *  6.2337159    4.6202754    7.2119828  

               21 C         22 O         23 C         24 H         25 H     

   1 C       1.3858153 *  2.3785955 *  4.1801723    1.0800222 *  5.2590346  
   2 C       2.7888429 *  4.1387367    4.8712418    3.3891964    5.8553257  
   3 C       4.1691832    2.8216671 *  3.7119525    4.7539112    4.0298221  
   4 C       4.8455773    3.6954687    2.8301177 *  6.2490228    2.4482410 *
   5 C       5.5464183    4.1988420    4.8423799    6.0114576    4.9363458  
   6 C       6.0693532    4.8273512    4.2073293    7.2474536    3.7631100  
   7 H       4.1417427    5.1952451    4.5588295    5.6920678    5.1696876  
   8 H       4.1072996    5.1714245    6.8001245    2.9862123 *  7.8653225  
   9 H       8.1368653    6.8036771    6.8147448    8.7745936    6.5122071  
  10 C       2.4327472 *  3.6613929    3.7611140    3.8717095    4.6609686  
  11 C       2.4014249 *  3.6397081    5.0358509    2.1414260 *  6.1000253  
  12 C       3.6899714    2.4254627 *  2.4404243 *  4.8928726    2.6379067 *
  13 C       6.3650749    5.0312948    5.0432108    7.1494853    4.8323501  
  14 O       3.5922985    4.0017793    2.2991335 *  5.7012061    2.5950923 *
  15 O       3.6729165    4.7748303    4.2605885    5.2288567    4.9460344  
  16 O       3.6381994    4.7511398    6.3571730    2.6098933 *  7.4289054  
  17 O       7.7004245    6.3590905    6.3703306    8.3685800    6.0817115  
  18 C       2.4739207 *  2.7813612 *  1.4150674 *  4.6130273    2.1696935 *
  19 C       2.3580599 *  1.3425180 *  1.3602906 *  3.9670078    2.1203169 *
  20 C       1.4057192 *  2.3839312 *  2.4677000 *  3.3927090    3.4600235  
  21 C       0.0000000    1.3499569 *  2.7946254 *  2.1407871 *  3.8738722  
  22 O       1.3499569 *  0.0000000    2.3698063 *  2.6260589 *  3.3404616  
  23 C       2.7946254 *  2.3698063 *  0.0000000    4.7985961    1.0799330 *
  24 H       2.1407871 *  2.6260589 *  4.7985961    0.0000000    5.8515019  
  25 H       3.8738722    3.3404616    1.0799330 *  5.8515019    0.0000000  
  26 H       3.8687426    5.2186623    5.8420154    4.2761749    6.7828805  
  27 H       3.7376730    2.4808508 *  4.0498508    3.8891093    4.6037130  
  28 H       4.9788955    4.0322702    2.4827339 *  6.6569854    1.7359332 *
  29 H       6.1515531    4.8376594    5.8014406    6.2668407    5.9749513  
  30 H       6.9730066    5.7855272    4.8428787    8.2681952    4.1929247  

               26 H         27 H         28 H         29 H         30 H     

   1 C       3.3881503    4.2797592    6.3016881    6.7323060    8.1636214  
   2 C       1.0799494 *  6.4598760    7.3310503    8.9046261    9.5532143  
   3 C       8.0362513    1.0799341 *  3.3981234    2.1327529 *  3.8593000  
   4 C       8.4659584    3.3981187    1.0799612 *  3.8592457    2.1326447 *
   5 C       9.4130483    2.1337063 *  3.8592688    1.0799586 *  3.3871263  
   6 C       9.7810727    3.8593121    2.1337055 *  3.3870850    1.0799352 *
   7 H       2.9955516 *  7.6421547    6.8729640    9.8811238    9.3004945  
   8 H       2.9901826 *  6.7967110    9.0313105    9.1606228   10.9166206  
   9 H      11.9762229    4.9373169    4.9379956    2.9948915 *  2.9947205 *
  10 C       2.1374388 *  6.1316002    6.2433455    8.4921951    8.5728537  
  11 C       2.1441023 *  5.6658173    7.3536177    8.1189041    9.3709297  
  12 C       7.4764027    2.1521894 *  2.1521322 *  3.3824379    3.3823656  
  13 C      10.2080981    3.3772493    3.3771918    2.1439332 *  2.1439510 *
  14 O       4.8934284    6.1779735    4.3283029    8.0873185    6.7850159  
  15 O       2.6159749 *  7.2521383    6.6516030    9.5269770    9.0796568  
  16 O       2.6125612 *  6.4719397    8.6170273    8.8733598   10.5352566  
  17 O      11.5532133    4.5087835    4.5087097    2.6168767 *  2.6169051 *
  18 C       4.6384289    5.0022471    3.8230865    7.0165099    6.2337159  
  19 C       6.0368920    2.6997847 *  2.6998824 *  4.6202859    4.6202754  
  20 C       3.3853944    4.8614151    4.9364429    7.1611046    7.2119828  
  21 C       3.8687426    3.7376730    4.9788955    6.1515531    6.9730066  
  22 O       5.2186623    2.4808508 *  4.0322702    4.8376594    5.7855272  
  23 C       5.8420154    4.0498508    2.4827339 *  5.8014406    4.8428787  
  24 H       4.2761749    3.8891093    6.6569854    6.2668407    8.2681952  
  25 H       6.7828805    4.6037130    1.7359332 *  5.9749513    4.1929247  
  26 H       0.0000000    7.5253505    8.3194079    9.9745573   10.5843504  
  27 H       7.5253505    0.0000000    4.2919213    2.4573072 *  4.9392268  
  28 H       8.3194079    4.2919213    0.0000000    4.9392067    2.4571762 *
  29 H       9.9745573    2.4573072 *  4.9392067    0.0000000    4.2773005  
  30 H      10.5843504    4.9392268    2.4571762 *  4.2773005    0.0000000  

  * ... LESS THAN  3.000


     ATOMIC BASIS SET
     ----------------
 THE CONTRACTED PRIMITIVE FUNCTIONS HAVE BEEN UNNORMALIZED
 THE CONTRACTED BASIS FUNCTIONS ARE NOW NORMALIZED TO UNITY

  SHELL TYPE  PRIMITIVE        EXPONENT          CONTRACTION COEFFICIENT(S)

 C         

      1   S       1           172.2560000    0.061766907377
      1   S       2            25.9109000    0.358794042852
      1   S       3             5.5333500    0.700713083689

      2   L       4             3.6649800   -0.395895162119    0.236459946619
      2   L       5             0.7705450    1.215834355681    0.860618805716

      3   L       6             0.1958570    1.000000000000    1.000000000000

 C         

      4   S       7           172.2560000    0.061766907377
      4   S       8            25.9109000    0.358794042852
      4   S       9             5.5333500    0.700713083689

      5   L      10             3.6649800   -0.395895162119    0.236459946619
      5   L      11             0.7705450    1.215834355681    0.860618805716

      6   L      12             0.1958570    1.000000000000    1.000000000000

 C         

      7   S      13           172.2560000    0.061766907377
      7   S      14            25.9109000    0.358794042852
      7   S      15             5.5333500    0.700713083689

      8   L      16             3.6649800   -0.395895162119    0.236459946619
      8   L      17             0.7705450    1.215834355681    0.860618805716

      9   L      18             0.1958570    1.000000000000    1.000000000000

 C         

     10   S      19           172.2560000    0.061766907377
     10   S      20            25.9109000    0.358794042852
     10   S      21             5.5333500    0.700713083689

     11   L      22             3.6649800   -0.395895162119    0.236459946619
     11   L      23             0.7705450    1.215834355681    0.860618805716

     12   L      24             0.1958570    1.000000000000    1.000000000000

 C         

     13   S      25           172.2560000    0.061766907377
     13   S      26            25.9109000    0.358794042852
     13   S      27             5.5333500    0.700713083689

     14   L      28             3.6649800   -0.395895162119    0.236459946619
     14   L      29             0.7705450    1.215834355681    0.860618805716

     15   L      30             0.1958570    1.000000000000    1.000000000000

 C         

     16   S      31           172.2560000    0.061766907377
     16   S      32            25.9109000    0.358794042852
     16   S      33             5.5333500    0.700713083689

     17   L      34             3.6649800   -0.395895162119    0.236459946619
     17   L      35             0.7705450    1.215834355681    0.860618805716

     18   L      36             0.1958570    1.000000000000    1.000000000000

 H         

     19   S      37             5.4471780    0.156284978695
     19   S      38             0.8245472    0.904690876670

     20   S      39             0.1831916    1.000000000000

 H         

     21   S      40             5.4471780    0.156284978695
     21   S      41             0.8245472    0.904690876670

     22   S      42             0.1831916    1.000000000000

 H         

     23   S      43             5.4471780    0.156284978695
     23   S      44             0.8245472    0.904690876670

     24   S      45             0.1831916    1.000000000000

 C         

     25   S      46           172.2560000    0.061766907377
     25   S      47            25.9109000    0.358794042852
     25   S      48             5.5333500    0.700713083689

     26   L      49             3.6649800   -0.395895162119    0.236459946619
     26   L      50             0.7705450    1.215834355681    0.860618805716

     27   L      51             0.1958570    1.000000000000    1.000000000000

 C         

     28   S      52           172.2560000    0.061766907377
     28   S      53            25.9109000    0.358794042852
     28   S      54             5.5333500    0.700713083689

     29   L      55             3.6649800   -0.395895162119    0.236459946619
     29   L      56             0.7705450    1.215834355681    0.860618805716

     30   L      57             0.1958570    1.000000000000    1.000000000000

 C         

     31   S      58           172.2560000    0.061766907377
     31   S      59            25.9109000    0.358794042852
     31   S      60             5.5333500    0.700713083689

     32   L      61             3.6649800   -0.395895162119    0.236459946619
     32   L      62             0.7705450    1.215834355681    0.860618805716

     33   L      63             0.1958570    1.000000000000    1.000000000000

 C         

     34   S      64           172.2560000    0.061766907377
     34   S      65            25.9109000    0.358794042852
     34   S      66             5.5333500    0.700713083689

     35   L      67             3.6649800   -0.395895162119    0.236459946619
     35   L      68             0.7705450    1.215834355681    0.860618805716

     36   L      69             0.1958570    1.000000000000    1.000000000000

 O         

     37   S      70           322.0370000    0.059239393389
     37   S      71            48.4308000    0.351499960776
     37   S      72            10.4206000    0.707657921031

     38   L      73             7.4029400   -0.404453583190    0.244586106967
     38   L      74             1.5762000    1.221561761397    0.853955373466

     39   L      75             0.3736840    1.000000000000    1.000000000000

 O         

     40   S      76           322.0370000    0.059239393389
     40   S      77            48.4308000    0.351499960776
     40   S      78            10.4206000    0.707657921031

     41   L      79             7.4029400   -0.404453583190    0.244586106967
     41   L      80             1.5762000    1.221561761397    0.853955373466

     42   L      81             0.3736840    1.000000000000    1.000000000000

 O         

     43   S      82           322.0370000    0.059239393389
     43   S      83            48.4308000    0.351499960776
     43   S      84            10.4206000    0.707657921031

     44   L      85             7.4029400   -0.404453583190    0.244586106967
     44   L      86             1.5762000    1.221561761397    0.853955373466

     45   L      87             0.3736840    1.000000000000    1.000000000000

 O         

     46   S      88           322.0370000    0.059239393389
     46   S      89            48.4308000    0.351499960776
     46   S      90            10.4206000    0.707657921031

     47   L      91             7.4029400   -0.404453583190    0.244586106967
     47   L      92             1.5762000    1.221561761397    0.853955373466

     48   L      93             0.3736840    1.000000000000    1.000000000000

 C         

     49   S      94           172.2560000    0.061766907377
     49   S      95            25.9109000    0.358794042852
     49   S      96             5.5333500    0.700713083689

     50   L      97             3.6649800   -0.395895162119    0.236459946619
     50   L      98             0.7705450    1.215834355681    0.860618805716

     51   L      99             0.1958570    1.000000000000    1.000000000000

 C         

     52   S     100           172.2560000    0.061766907377
     52   S     101            25.9109000    0.358794042852
     52   S     102             5.5333500    0.700713083689

     53   L     103             3.6649800   -0.395895162119    0.236459946619
     53   L     104             0.7705450    1.215834355681    0.860618805716

     54   L     105             0.1958570    1.000000000000    1.000000000000

 C         

     55   S     106           172.2560000    0.061766907377
     55   S     107            25.9109000    0.358794042852
     55   S     108             5.5333500    0.700713083689

     56   L     109             3.6649800   -0.395895162119    0.236459946619
     56   L     110             0.7705450    1.215834355681    0.860618805716

     57   L     111             0.1958570    1.000000000000    1.000000000000

 C         

     58   S     112           172.2560000    0.061766907377
     58   S     113            25.9109000    0.358794042852
     58   S     114             5.5333500    0.700713083689

     59   L     115             3.6649800   -0.395895162119    0.236459946619
     59   L     116             0.7705450    1.215834355681    0.860618805716

     60   L     117             0.1958570    1.000000000000    1.000000000000

 O         

     61   S     118           322.0370000    0.059239393389
     61   S     119            48.4308000    0.351499960776
     61   S     120            10.4206000    0.707657921031

     62   L     121             7.4029400   -0.404453583190    0.244586106967
     62   L     122             1.5762000    1.221561761397    0.853955373466

     63   L     123             0.3736840    1.000000000000    1.000000000000

 C         

     64   S     124           172.2560000    0.061766907377
     64   S     125            25.9109000    0.358794042852
     64   S     126             5.5333500    0.700713083689

     65   L     127             3.6649800   -0.395895162119    0.236459946619
     65   L     128             0.7705450    1.215834355681    0.860618805716

     66   L     129             0.1958570    1.000000000000    1.000000000000

 H         

     67   S     130             5.4471780    0.156284978695
     67   S     131             0.8245472    0.904690876670

     68   S     132             0.1831916    1.000000000000

 H         

     69   S     133             5.4471780    0.156284978695
     69   S     134             0.8245472    0.904690876670

     70   S     135             0.1831916    1.000000000000

 H         

     71   S     136             5.4471780    0.156284978695
     71   S     137             0.8245472    0.904690876670

     72   S     138             0.1831916    1.000000000000

 H         

     73   S     139             5.4471780    0.156284978695
     73   S     140             0.8245472    0.904690876670

     74   S     141             0.1831916    1.000000000000

 H         

     75   S     142             5.4471780    0.156284978695
     75   S     143             0.8245472    0.904690876670

     76   S     144             0.1831916    1.000000000000

 H         

     77   S     145             5.4471780    0.156284978695
     77   S     146             0.8245472    0.904690876670

     78   S     147             0.1831916    1.000000000000

 H         

     79   S     148             5.4471780    0.156284978695
     79   S     149             0.8245472    0.904690876670

     80   S     150             0.1831916    1.000000000000

 TOTAL NUMBER OF BASIS SET SHELLS             =   80
 NUMBER OF CARTESIAN GAUSSIAN BASIS FUNCTIONS =  200
 NUMBER OF ELECTRONS                          =  141
 CHARGE OF MOLECULE                           =   -1
 SPIN MULTIPLICITY                            =    2
 NUMBER OF OCCUPIED ORBITALS (ALPHA)          =   71
 NUMBER OF OCCUPIED ORBITALS (BETA )          =   70
 TOTAL NUMBER OF ATOMS                        =   30
 THE NUCLEAR REPULSION ENERGY IS     1429.8952632900

     $CONTRL OPTIONS
     ---------------
 SCFTYP=UHF          RUNTYP=ENERGY       EXETYP=RUN     
 MPLEVL=       0     CITYP =NONE         CCTYP =NONE         VBTYP =NONE    
 DFTTYP=NONE         TDDFT =NONE    
 MULT  =       2     ICHARG=      -1     NZVAR =       0     COORD =UNIQUE  
 PP    =NONE         RELWFN=NONE         LOCAL =NONE         NUMGRD=       F
 ISPHER=      -1     NOSYM =       0     MAXIT =      60     UNITS =ANGS    
 PLTORB=       F     MOLPLT=       F     AIMPAC=       F     FRIEND=        
 NPRINT=       7     IREST =       0     GEOM  =INPUT   
 NORMF =       0     NORMP =       0     ITOL  =      20     ICUT  =       9
 INTTYP=BEST         GRDTYP=BEST         QMTTOL= 1.0E-06

     $SYSTEM OPTIONS
     ---------------
  REPLICATED MEMORY=    30000000 WORDS (ON EVERY NODE).
 DISTRIBUTED MEMDDI=        1000 MILLION WORDS IN AGGREGATE,
 MEMDDI DISTRIBUTED OVER   6 PROCESSORS IS   166666666 WORDS/PROCESSOR.
 TOTAL MEMORY REQUESTED ON EACH PROCESSOR=   196666666 WORDS.
 TIMLIM=      525600.00 MINUTES, OR     365.0 DAYS.
 PARALL= T  BALTYP=  DLB     KDIAG=    0  COREFL= F
 MXSEQ2=     300 MXSEQ3=     150  mem10=         0

          ----------------
          PROPERTIES INPUT
          ----------------

     MOMENTS            FIELD           POTENTIAL          DENSITY
 IEMOM =       1   IEFLD =       0   IEPOT =       0   IEDEN =       0
 WHERE =COMASS     WHERE =NUCLEI     WHERE =NUCLEI     WHERE =NUCLEI  
 OUTPUT=BOTH       OUTPUT=BOTH       OUTPUT=BOTH       OUTPUT=BOTH    
 IEMINT=       0   IEFINT=       0                     IEDINT=       0
                                                       MORB  =       0
          EXTRAPOLATION IN EFFECT
          SOSCF IN EFFECT
          DIIS or SOSCF will be reset if energy rises
 ORBITAL PRINTING OPTION: NPREO=     1   200     2     1

     -------------------------------
     INTEGRAL TRANSFORMATION OPTIONS
     -------------------------------
     NWORD  =            0
     CUTOFF = 1.0E-09     MPTRAN =       0
     DIRTRF =       T     AOINTS =DUP     

          ----------------------
          INTEGRAL INPUT OPTIONS
          ----------------------
 NOPK  =       1 NORDER=       0 SCHWRZ=       T

     ------------------------------------------
     THE POINT GROUP IS C1 , NAXIS= 0, ORDER= 1
     ------------------------------------------

     DIMENSIONS OF THE SYMMETRY SUBSPACES ARE
 A   =  200

 ..... DONE SETTING UP THE RUN .....
 CPU     0: STEP CPU TIME=     0.04 TOTAL CPU TIME=          0.0 (      0.0 MIN)
 TOTAL WALL CLOCK TIME=          0.1 SECONDS, CPU UTILIZATION IS    80.00%

          ********************
          1 ELECTRON INTEGRALS
          ********************
 ...... END OF ONE-ELECTRON INTEGRALS ......
 CPU     0: STEP CPU TIME=     0.01 TOTAL CPU TIME=          0.0 (      0.0 MIN)
 TOTAL WALL CLOCK TIME=          0.1 SECONDS, CPU UTILIZATION IS    71.43%

          -------------
          GUESS OPTIONS
          -------------
          GUESS =HUCKEL            NORB  =       0          NORDER=       0
          MIX   =       F          PRTMO =       F          PUNMO =       F
          TOLZ  = 1.0E-08          TOLE  = 1.0E-05
          SYMDEN=       F          PURIFY=       F

 INITIAL GUESS ORBITALS GENERATED BY HUCKEL   ROUTINE.
 HUCKEL GUESS REQUIRES    361410 WORDS.

 SYMMETRIES FOR INITIAL GUESS ORBITALS FOLLOW.  ALPHA SET(S).
    71 ORBITALS ARE OCCUPIED (   20 CORE ORBITALS).
    21=A       22=A       23=A       24=A       25=A       26=A       27=A   
    28=A       29=A       30=A       31=A       32=A       33=A       34=A   
    35=A       36=A       37=A       38=A       39=A       40=A       41=A   
    42=A       43=A       44=A       45=A       46=A       47=A       48=A   
    49=A       50=A       51=A       52=A       53=A       54=A       55=A   
    56=A       57=A       58=A       59=A       60=A       61=A       62=A   
    63=A       64=A       65=A       66=A       67=A       68=A       69=A   
    70=A       71=A       72=A       73=A       74=A       75=A       76=A   
    77=A       78=A       79=A       80=A       81=A   

 SYMMETRIES FOR INITIAL GUESS ORBITALS FOLLOW.   BETA SET(S).
    70 ORBITALS ARE OCCUPIED (   20 CORE ORBITALS).
    21=A       22=A       23=A       24=A       25=A       26=A       27=A   
    28=A       29=A       30=A       31=A       32=A       33=A       34=A   
    35=A       36=A       37=A       38=A       39=A       40=A       41=A   
    42=A       43=A       44=A       45=A       46=A       47=A       48=A   
    49=A       50=A       51=A       52=A       53=A       54=A       55=A   
    56=A       57=A       58=A       59=A       60=A       61=A       62=A   
    63=A       64=A       65=A       66=A       67=A       68=A       69=A   
    70=A       71=A       72=A       73=A       74=A       75=A       76=A   
    77=A       78=A       79=A       80=A   
 ...... END OF INITIAL ORBITAL SELECTION ......
 CPU     0: STEP CPU TIME=     0.07 TOTAL CPU TIME=          0.1 (      0.0 MIN)
 TOTAL WALL CLOCK TIME=          0.2 SECONDS, CPU UTILIZATION IS    57.14%

                    ----------------------
                    AO INTEGRAL TECHNOLOGY
                    ----------------------
     S,P,L SHELL ROTATED AXIS INTEGRALS, REPROGRAMMED BY
        KAZUYA ISHIMURA (IMS) AND JOSE SIERRA (SYNSTAR).
     S,P,D,L SHELL ROTATED AXIS INTEGRALS PROGRAMMED BY
        KAZUYA ISHIMURA (INSTITUTE FOR MOLECULAR SCIENCE).
     S,P,D,F,G SHELL TO TOTAL QUARTET ANGULAR MOMENTUM SUM 5,
        ERIC PROGRAM BY GRAHAM FLETCHER (ELORET AND NASA ADVANCED
        SUPERCOMPUTING DIVISION, AMES RESEARCH CENTER).
     S,P,D,F,G,L SHELL GENERAL RYS QUADRATURE PROGRAMMED BY
        MICHEL DUPUIS (PACIFIC NORTHWEST NATIONAL LABORATORY).

          --------------------
          2 ELECTRON INTEGRALS
          --------------------

 DIRECT SCF METHOD SKIPS INTEGRAL STORAGE ON DISK.
 DIRECT TRANSFORMATION SKIPS AO INTEGRAL STORAGE ON DISK.
  ...... END OF TWO-ELECTRON INTEGRALS .....
 CPU     0: STEP CPU TIME=     0.02 TOTAL CPU TIME=          0.1 (      0.0 MIN)
 TOTAL WALL CLOCK TIME=          0.2 SECONDS, CPU UTILIZATION IS    58.33%

          ---------------------------
                  UHF SCF CALCULATION
          ---------------------------

     NUCLEAR ENERGY =      1429.8952632900
     MAXIT = 60     NPUNCH=  2     MULT=  2
     EXTRAP=T  DAMP=F  SHIFT=F  RSTRCT=F  DIIS=F  SOSCF=T
     DENSITY MATRIX CONV=  2.00E-05
     SOSCF WILL OPTIMIZE    9159 ALPHA AND    9100 BETA ROTATION ANGLES.
     SOGTOL= 2.500E-01
     MEMORY REQUIRED FOR UHF/ROHF ITERS=    581849 WORDS.

 DIRECT SCF CALCULATION, SCHWRZ=T   FDIFF=T
 SCHWARZ INEQUALITY OVERHEAD:     15600 INTEGRALS, T=        0.00

                                                                                NONZERO     BLOCKS
 ITER EX      TOTAL ENERGY        E CHANGE  DENSITY CHANGE    ORB. GRAD       INTEGRALS    SKIPPED
   1  0     -940.5353889606  -940.5353889606   0.805463071   0.000000000       54009459    4048886
          ---------------START SECOND ORDER SCF---------------
   2  1     -942.6112018380    -2.0758128774   0.284749862   0.109260825       53947513    4071625
   3  2     -942.6994347609    -0.0882329229   0.218952776   0.102959140       53691395    4132141
   4  3     -942.8008236873    -0.1013889264   0.067350449   0.016338090       53214538    4190418
   5  4     -942.8065362053    -0.0057125180   0.019998477   0.015042120       53001122    4213060
   6  5     -942.8098678932    -0.0033316879   0.017984346   0.006299730       52001380    4281789
   7  6     -942.8115927948    -0.0017249015   0.072224602   0.005896596       51708594    4298961
   8  7     -942.8151758549    -0.0035830602   0.026582828   0.008252218       52733656    4232280
   9  8     -942.8165238509    -0.0013479960   0.026747496   0.005722442       51598121    4300057
  10  9     -942.8177404582    -0.0012166073   0.009637207   0.002317919       52343208    4260847
  11 10     -942.8179785493    -0.0002380911   0.016578128   0.001755556       51002073    4339793
  12 11     -942.8182512128    -0.0002726635   0.012275760   0.001471085       51668177    4305638
  13 12     -942.8184287592    -0.0001775464   0.031277360   0.001458350       51140831    4331405
  14 13     -942.8188089740    -0.0003802148   0.046876015   0.002685693       52012833    4283596
  15 14     -942.8192846085    -0.0004756346   0.022903140   0.004085235       52368669    4262470
  16 15     -942.8197971122    -0.0005125037   0.022768771   0.003607711       51658241    4302968
  17 16     -942.8204210244    -0.0006239122   0.006246520   0.001503885       51811403    4289991
  18 17     -942.8205511658    -0.0001301414   0.007949543   0.001183035       50649513    4354089
  19 18     -942.8206228596    -0.0000716938   0.003262331   0.000419734       50515400    4358199
  20 19     -942.8206363607    -0.0000135010   0.001844461   0.000181489       49541623    4400171
  21 20     -942.8206418151    -0.0000054545   0.000810958   0.000116212       48107213    4445477
  22 21     -942.8206429042    -0.0000010891   0.000439116   0.000049227       46916541    4485390
  23 22     -942.8206431258    -0.0000002216   0.000187371   0.000022580       45785520    4521816
  24 23     -942.8206431905    -0.0000000647   0.000128909   0.000014006       42992989    4580092
  25 24     -942.8206432124    -0.0000000218   0.000074626   0.000012405       41898359    4605092
  26 25     -942.8206432210    -0.0000000087   0.000143751   0.000005907       40219061    4643617
  27 26     -942.8206432271    -0.0000000061   0.000089181   0.000007213       40984109    4631282
  28 27     -942.8206432288    -0.0000000017   0.000059686   0.000005117       39118877    4670615
  29 28     -942.8206432292    -0.0000000004   0.000008267   0.000002604       37980208    4689570
  30 29     -942.8206432294    -0.0000000001   0.000004154   0.000001515       34542624    4744729

          -----------------
          DENSITY CONVERGED
          -----------------
     TIME TO FORM FOCK OPERATORS=      26.7 SECONDS (       0.9 SEC/ITER)
     FOCK TIME ON FIRST ITERATION=       0.9, LAST ITERATION=       0.6
     TIME TO SOLVE SCF EQUATIONS=       1.0 SECONDS (       0.0 SEC/ITER)

 FINAL UHF ENERGY IS     -942.8206432294 AFTER  30 ITERATIONS

          --------------------
          SPIN SZ   =    0.500
          S-SQUARED =    1.697
          --------------------

  ----- ALPHA SET ----- 

          ------------
          EIGENVECTORS
          ------------

                      1          2          3          4          5
                  -20.3699   -20.3620   -20.3615   -20.3286   -20.1848
                     A          A          A          A          A   
    1  C  1  S   -0.000227  -0.000013  -0.000304  -0.000191  -0.000052
    2  C  1  S   -0.001143  -0.000069  -0.001771  -0.000881  -0.000415
    3  C  1  X   -0.000784  -0.000024   0.000180  -0.000321  -0.000225
    4  C  1  Y   -0.000052   0.000000   0.000772   0.000019   0.000235
    5  C  1  Z    0.000005   0.000000   0.000021  -0.000012  -0.000001
    6  C  1  S    0.022926   0.001077   0.026114   0.016224  -0.001780
    7  C  1  X    0.010003   0.000074   0.003333   0.004988   0.006249
    8  C  1  Y   -0.015706  -0.000747  -0.026070  -0.011683   0.000560
    9  C  1  Z    0.000060   0.000003  -0.000163   0.000161  -0.000013
   10  C  2  S   -0.000126  -0.000003  -0.000294  -0.000313   0.000055
   11  C  2  S   -0.000593  -0.000011  -0.001707  -0.001697   0.000266
   12  C  2  X    0.000142  -0.000005   0.000674   0.000373  -0.000022
   13  C  2  Y   -0.000189   0.000009   0.000438  -0.000847   0.000436
   14  C  2  Z    0.000002   0.000000   0.000018  -0.000015  -0.000003
   15  C  2  S    0.009996   0.000426   0.025362   0.030330  -0.003450
   16  C  2  X   -0.008656  -0.000216  -0.025372  -0.026539   0.003983
   17  C  2  Y    0.001488  -0.000099  -0.004585   0.007944  -0.006322
   18  C  2  Z    0.000005   0.000001  -0.000223   0.000318   0.000044
   19  C  3  S   -0.000123   0.000215   0.000009   0.000017  -0.000053
   20  C  3  S   -0.000505   0.000791   0.000041   0.000046  -0.000256
   21  C  3  X    0.000436   0.000839  -0.000049  -0.000163   0.000315
   22  C  3  Y   -0.000249   0.000065  -0.000020   0.000054  -0.000077
   23  C  3  Z    0.000000   0.000001   0.000000   0.000000  -0.000001
   24  C  3  S    0.012613  -0.022825  -0.000848  -0.002534   0.005753
   25  C  3  X    0.000715   0.010255   0.000345   0.000348  -0.001873
   26  C  3  Y   -0.007280   0.007042   0.000764   0.001206  -0.002908
   27  C  3  Z    0.000056  -0.000183  -0.000008  -0.000014   0.000027
   28  C  4  S    0.000084   0.000211  -0.000002  -0.000024   0.000015
   29  C  4  S    0.000331   0.000780  -0.000001  -0.000112  -0.000025
   30  C  4  X   -0.000189   0.000732   0.000004  -0.000000  -0.000171
   31  C  4  Y   -0.000293  -0.000300   0.000009   0.000007   0.000070
   32  C  4  Z    0.000003   0.000003  -0.000000   0.000001   0.000000
   33  C  4  S   -0.008169  -0.022320   0.000256   0.001827  -0.002455
   34  C  4  X   -0.007871   0.008835   0.000621   0.001897  -0.002687
   35  C  4  Y   -0.002667  -0.009187  -0.000002   0.001347  -0.002195
   36  C  4  Z    0.000032  -0.000056  -0.000001  -0.000020   0.000019
   37  C  5  S    0.000061  -0.000278  -0.000004  -0.000022   0.000032
   38  C  5  S    0.000319  -0.001617  -0.000014  -0.000127   0.000150
   39  C  5  X   -0.000200  -0.000717   0.000029   0.000021  -0.000139
   40  C  5  Y   -0.000122   0.000390  -0.000001   0.000032   0.000007
   41  C  5  Z    0.000001  -0.000023   0.000000  -0.000000   0.000000
   42  C  5  S   -0.003974   0.024342   0.000441   0.001249  -0.002839
   43  C  5  X    0.000667   0.014950   0.000002   0.000222  -0.000754
   44  C  5  Y    0.003591  -0.020658  -0.000255  -0.000815   0.001227
   45  C  5  Z   -0.000030   0.000415   0.000001   0.000007  -0.000009
   46  C  6  S   -0.000013  -0.000282   0.000002  -0.000002  -0.000022
   47  C  6  S   -0.000128  -0.001640   0.000024  -0.000003  -0.000178
   48  C  6  X   -0.000003  -0.000801   0.000021  -0.000017  -0.000077
   49  C  6  Y   -0.000188  -0.000152   0.000020   0.000047  -0.000132
   50  C  6  Z    0.000001  -0.000019   0.000000  -0.000000   0.000001
   51  C  6  S   -0.001734   0.024667   0.000206   0.000513  -0.000394
   52  C  6  X   -0.002270   0.020867   0.000116   0.000575  -0.000245
   53  C  6  Y    0.002561   0.014880  -0.000237  -0.000752   0.001670
   54  C  6  Z   -0.000013   0.000150   0.000000   0.000007  -0.000011
   55  H  7  S   -0.000019   0.000003  -0.000040   0.002990   0.000094
   56  H  7  S   -0.000348  -0.000019  -0.000237   0.001289  -0.000113
   57  H  8  S   -0.000017   0.000010   0.002927  -0.000044  -0.000004
   58  H  8  S   -0.000171  -0.000006   0.001927  -0.000269   0.000058
   59  H  9  S   -0.000000   0.002934  -0.000012  -0.000004   0.000003
   60  H  9  S    0.000068   0.001964  -0.000019  -0.000023   0.000051
   61  C 10  S    0.000259  -0.000000   0.000232   0.000140  -0.000243
   62  C 10  S    0.001190   0.000000   0.000901   0.003080  -0.001056
   63  C 10  X    0.000677  -0.000000  -0.000178   0.000219  -0.000570
   64  C 10  Y   -0.000147  -0.000021  -0.000781  -0.000177  -0.000284
   65  C 10  Z    0.000018   0.000001   0.000011  -0.000030   0.000009
   66  C 10  S   -0.024075  -0.000027  -0.023468  -0.012774   0.024630
   67  C 10  X    0.010330  -0.000225  -0.000011   0.019132  -0.017229
   68  C 10  Y   -0.008662  -0.000330  -0.012386  -0.048336   0.001651
   69  C 10  Z    0.000015  -0.000001   0.000203  -0.000491  -0.000002
   70  C 11  S    0.000205   0.000005   0.000058   0.000287  -0.000034
   71  C 11  S    0.000887   0.000034   0.002447   0.001190  -0.000207
   72  C 11  X    0.000502   0.000017   0.000148  -0.000108   0.000084
   73  C 11  Y    0.000107  -0.000012   0.000163   0.000756  -0.000017
   74  C 11  Z   -0.000012  -0.000000   0.000064  -0.000013   0.000003
   75  C 11  S   -0.018077  -0.000365  -0.007216  -0.026062   0.001977
   76  C 11  X    0.007179   0.000310   0.025594   0.003640   0.004113
   77  C 11  Y    0.005443   0.000366   0.036373   0.012515  -0.004385
   78  C 11  Z   -0.000027   0.000001   0.000413  -0.000199   0.000015
   79  C 12  S   -0.000022  -0.000122   0.000020   0.000010  -0.000106
   80  C 12  S   -0.000033  -0.000608   0.000093   0.000023  -0.000580
   81  C 12  X    0.000195   0.000568   0.000003  -0.000093  -0.000109
   82  C 12  Y    0.001038  -0.000106  -0.000069  -0.000205   0.000445
   83  C 12  Z   -0.000007  -0.000018  -0.000000   0.000000  -0.000004
   84  C 12  S    0.007170   0.008419  -0.001203  -0.001260   0.004731
   85  C 12  X    0.004422  -0.013467  -0.001325   0.000224   0.003831
   86  C 12  Y   -0.020205   0.003044   0.001314   0.004214  -0.008151
   87  C 12  Z    0.000131   0.000106  -0.000005  -0.000017   0.000054
   88  C 13  S   -0.000023   0.000050   0.000003   0.000003  -0.000008
   89  C 13  S   -0.000146   0.002376   0.000011   0.000021  -0.000076
   90  C 13  X   -0.000033  -0.000259   0.000009   0.000010  -0.000059
   91  C 13  Y    0.000055   0.000047  -0.000009  -0.000027   0.000093
   92  C 13  Z   -0.000004  -0.000067   0.000001   0.000002  -0.000003
   93  C 13  S    0.001226  -0.006972  -0.000137  -0.000102  -0.000077
   94  C 13  X    0.001767  -0.043395  -0.000027  -0.000447   0.000680
   95  C 13  Y    0.002687   0.006293  -0.000190  -0.000531   0.000734
   96  C 13  Z   -0.000017  -0.000637   0.000003   0.000002  -0.000003
   97  O 14  S    0.000005  -0.000068  -0.000080  -0.000116   0.983946
   98  O 14  S   -0.000010  -0.000062  -0.000077  -0.000025   0.103339
   99  O 14  X    0.000053   0.000023   0.000100   0.000193  -0.001721
  100  O 14  Y    0.000107   0.000008   0.000042   0.000111   0.004255
  101  O 14  Z    0.000002  -0.000000   0.000003  -0.000011  -0.000053
  102  O 14  S    0.000183   0.000315   0.000478   0.000160  -0.070768
  103  O 14  X   -0.000041  -0.000242  -0.000544  -0.001817   0.006952
  104  O 14  Y   -0.000745   0.000008  -0.000218  -0.001178  -0.017480
  105  O 14  Z   -0.000004   0.000002  -0.000012   0.000064   0.000116
  106  O 15  S    0.001715   0.000119   0.001002   0.983874   0.000124
  107  O 15  S    0.000526   0.000032   0.000292   0.101590  -0.000010
  108  O 15  X    0.000132  -0.000009  -0.000082  -0.001336  -0.000244
  109  O 15  Y    0.000091  -0.000001  -0.000078   0.003172  -0.000128
  110  O 15  Z    0.000036   0.000001   0.000034  -0.002141   0.000003
  111  O 15  S   -0.002195  -0.000103  -0.001542  -0.062168   0.000490
  112  O 15  X   -0.000560   0.000059   0.000654   0.006614   0.001757
  113  O 15  Y   -0.000730  -0.000015   0.000238  -0.013831   0.000715
  114  O 15  Z   -0.000154  -0.000006  -0.000154   0.003107   0.000001
  115  O 16  S    0.002508   0.003999   0.983783  -0.000956   0.000065
  116  O 16  S    0.000374   0.000422   0.100927   0.000081  -0.000049
  117  O 16  X    0.000080  -0.000004  -0.001888  -0.000059   0.000082
  118  O 16  Y   -0.000028  -0.000014  -0.002641   0.000099  -0.000042
  119  O 16  Z   -0.000016   0.000007   0.002211  -0.000040   0.000006
  120  O 16  S   -0.001149  -0.000319  -0.059085  -0.001442   0.000261
  121  O 16  X   -0.000364   0.000032   0.008155   0.000474  -0.000580
  122  O 16  Y    0.000252   0.000075   0.011413  -0.000388   0.000316
  123  O 16  Z    0.000079  -0.000007  -0.003340   0.000167  -0.000024
  124  O 17  S   -0.001664   0.983780  -0.003992  -0.000106   0.000054
  125  O 17  S   -0.000237   0.100898  -0.000399   0.000010  -0.000047
  126  O 17  X   -0.000006   0.003206  -0.000012  -0.000001  -0.000008
  127  O 17  Y    0.000056  -0.000502  -0.000002  -0.000013   0.000028
  128  O 17  Z   -0.000005  -0.002200   0.000010   0.000003  -0.000006
  129  O 17  S    0.000490  -0.058868   0.000183  -0.000135   0.000274
  130  O 17  X    0.000101  -0.013804   0.000039  -0.000037   0.000099
  131  O 17  Y   -0.000378   0.002129   0.000019   0.000085  -0.000156
  132  O 17  Z    0.000031   0.003277  -0.000018  -0.000013   0.000025
  133  C 18  S   -0.000274   0.000003  -0.000064  -0.000247   0.000586
  134  C 18  S   -0.001028  -0.000011  -0.000298  -0.001033   0.004370
  135  C 18  X   -0.000023   0.000003   0.000187   0.000413   0.000229
  136  C 18  Y    0.000780  -0.000045   0.000076   0.000252  -0.000989
  137  C 18  Z   -0.000004   0.000001  -0.000003   0.000016   0.000008
  138  C 18  S    0.026885  -0.001052   0.006383   0.021426   0.002526
  139  C 18  X   -0.002830   0.001596   0.002158   0.011655   0.020730
  140  C 18  Y    0.009192   0.000831   0.004035   0.012916  -0.049907
  141  C 18  Z   -0.000046  -0.000016   0.000006  -0.000275   0.000281
  142  C 19  S   -0.000036  -0.000074   0.000000  -0.000071   0.000184
  143  C 19  S    0.001995  -0.000360   0.000099  -0.000465   0.000573
  144  C 19  X    0.001005  -0.000014   0.000251   0.000010  -0.001060
  145  C 19  Y    0.000757   0.000098   0.000104  -0.000040   0.000374
  146  C 19  Z   -0.000008   0.000002   0.000001   0.000004   0.000001
  147  C 19  S    0.003762   0.007567   0.002189   0.006148  -0.023214
  148  C 19  X    0.020356  -0.004629  -0.001830  -0.000381   0.000812
  149  C 19  Y    0.019218  -0.001050  -0.001151  -0.006632   0.012542
  150  C 19  Z   -0.000182  -0.000015   0.000015   0.000017  -0.000106
  151  C 20  S    0.000024   0.000004  -0.000084  -0.000084  -0.000045
  152  C 20  S    0.000152   0.000011  -0.000384  -0.000332  -0.000210
  153  C 20  X   -0.001457   0.000051  -0.000354  -0.000388   0.001736
  154  C 20  Y   -0.000533  -0.000056  -0.000529  -0.001958  -0.001030
  155  C 20  Z    0.000008  -0.000001   0.000024  -0.000030   0.000003
  156  C 20  S    0.008901  -0.000622   0.006111   0.016632   0.010223
  157  C 20  X    0.028543   0.000069   0.008491   0.018291  -0.040897
  158  C 20  Y    0.013919   0.001168   0.010458   0.040520   0.012888
  159  C 20  Z   -0.000160  -0.000004  -0.000208   0.000096   0.000008
  160  C 21  S    0.000049  -0.000000   0.000225   0.000356   0.000160
  161  C 21  S    0.002485  -0.000041   0.000828   0.001774   0.000419
  162  C 21  X   -0.001060   0.000123  -0.000533  -0.000485  -0.000022
  163  C 21  Y    0.000018   0.000053  -0.000344   0.000804   0.000650
  164  C 21  Z    0.000001  -0.000001  -0.000004   0.000004  -0.000004
  165  C 21  S   -0.002707  -0.000941  -0.023055  -0.029854  -0.018152
  166  C 21  X   -0.034878  -0.001141  -0.012226  -0.018593   0.001625
  167  C 21  Y   -0.005251  -0.000390  -0.005652   0.005445   0.016072
  168  C 21  Z    0.000121   0.000005   0.000200  -0.000162  -0.000127
  169  O 22  S    0.984106   0.001637  -0.002481  -0.001616  -0.000027
  170  O 22  S    0.104373   0.000111  -0.000128   0.000213  -0.000071
  171  O 22  X    0.001585  -0.000045  -0.000098   0.000244  -0.000132
  172  O 22  Y   -0.003468   0.000046  -0.000082   0.000266   0.000193
  173  O 22  Z    0.000021  -0.000002   0.000006  -0.000012  -0.000002
  174  O 22  S   -0.072058   0.000237  -0.001022  -0.002499   0.000660
  175  O 22  X   -0.005668   0.000106   0.000074  -0.002293   0.001811
  176  O 22  Y    0.011939  -0.000277   0.000559  -0.001306  -0.001493
  177  O 22  Z   -0.000074   0.000011  -0.000032   0.000059   0.000011
  178  C 23  S    0.000254  -0.000004   0.000025   0.000042  -0.000268
  179  C 23  S    0.001395  -0.000030   0.000142   0.000169  -0.001465
  180  C 23  X    0.000307  -0.000135  -0.000056  -0.000208   0.000311
  181  C 23  Y    0.000534   0.000006   0.000159   0.000331  -0.000976
  182  C 23  Z   -0.000004  -0.000002   0.000000  -0.000005   0.000006
  183  C 23  S   -0.003507   0.000100  -0.001114  -0.003211   0.027083
  184  C 23  X   -0.017332   0.002600   0.000325   0.002674   0.007221
  185  C 23  Y   -0.004654  -0.001058  -0.001914  -0.008152   0.025408
  186  C 23  Z    0.000073   0.000016  -0.000000   0.000107  -0.000205
  187  H 24  S    0.001271   0.000023   0.001826   0.000775   0.000306
  188  H 24  S    0.005172   0.000205   0.007772   0.002885   0.000907
  189  H 25  S   -0.001721   0.000186  -0.000097  -0.000375   0.001607
  190  H 25  S   -0.005046  -0.000060  -0.000379  -0.001565   0.007969
  191  H 26  S    0.000591   0.000005   0.001841   0.001930  -0.000428
  192  H 26  S    0.002063   0.000038   0.007699   0.007885  -0.001061
  193  H 27  S   -0.000016  -0.000345  -0.000011  -0.000025   0.000198
  194  H 27  S    0.000870  -0.002086  -0.000390  -0.000230   0.000777
  195  H 28  S    0.000517  -0.000433  -0.000049  -0.000116   0.000234
  196  H 28  S    0.000722  -0.001757  -0.000057   0.000553  -0.001572
  197  H 29  S   -0.000183   0.001861   0.000006   0.000030  -0.000030
  198  H 29  S   -0.000703   0.007778   0.000041   0.000218  -0.000219
  199  H 30  S    0.000163   0.001837  -0.000022  -0.000056   0.000129
  200  H 30  S    0.000312   0.007738  -0.000076  -0.000117   0.000588

                      6          7          8          9         10
                  -11.1292   -11.1245   -11.1202   -11.1139   -11.0867
                     A          A          A          A          A   
    1  C  1  S   -0.002960  -0.003855  -0.000078  -0.001263  -0.001138
    2  C  1  S   -0.005087  -0.005666  -0.000098  -0.001298  -0.001128
    3  C  1  X    0.000042  -0.001509  -0.000026  -0.000296  -0.000266
    4  C  1  Y    0.001496   0.000903   0.000001   0.000212  -0.000071
    5  C  1  Z   -0.000007   0.000005   0.000000   0.000002   0.000001
    6  C  1  S    0.048413   0.051539   0.001331   0.020331   0.014663
    7  C  1  X    0.009951   0.019112  -0.000048   0.004543  -0.007243
    8  C  1  Y   -0.030399  -0.026215  -0.000875  -0.013518  -0.007587
    9  C  1  Z    0.000168   0.000124   0.000005   0.000079   0.000060
   10  C  2  S   -0.000971  -0.003649  -0.000005  -0.003902  -0.000584
   11  C  2  S   -0.001168  -0.005490  -0.000012  -0.005644  -0.000340
   12  C  2  X    0.000237   0.001317  -0.000006   0.001465   0.000186
   13  C  2  Y   -0.000309  -0.001088   0.000013   0.000564   0.000175
   14  C  2  Z    0.000004   0.000011  -0.000000  -0.000011  -0.000003
   15  C  2  S    0.020117   0.050031   0.000415   0.053037   0.001353
   16  C  2  X   -0.013960  -0.030371  -0.000151  -0.033562  -0.002081
   17  C  2  Y   -0.001590   0.010194  -0.000092  -0.004301   0.003445
   18  C  2  Z    0.000049  -0.000006   0.000001   0.000097  -0.000028
   19  C  3  S   -0.000574  -0.000001  -0.000548  -0.000145  -0.002573
   20  C  3  S   -0.000421   0.000030   0.000599  -0.000046  -0.001068
   21  C  3  X   -0.000123  -0.000049   0.001169  -0.000109  -0.000052
   22  C  3  Y    0.000057  -0.000006   0.000013   0.000053  -0.000126
   23  C  3  Z   -0.000000   0.000000   0.000001  -0.000000   0.000001
   24  C  3  S   -0.000082  -0.001001  -0.023823  -0.001264   0.013030
   25  C  3  X   -0.003017   0.000243   0.010040  -0.000147   0.003025
   26  C  3  Y    0.000799   0.000760   0.011607   0.000424  -0.007710
   27  C  3  Z    0.000002  -0.000007  -0.000110  -0.000002   0.000051
   28  C  4  S   -0.000099  -0.000011  -0.000564  -0.000186  -0.002142
   29  C  4  S   -0.000239  -0.000024   0.000595  -0.000162  -0.000007
   30  C  4  X    0.000140   0.000000   0.001057  -0.000022  -0.000602
   31  C  4  Y   -0.000111   0.000007  -0.000355   0.000014  -0.000302
   32  C  4  Z    0.000001  -0.000000   0.000002  -0.000000   0.000005
   33  C  4  S    0.005142   0.000480  -0.023506   0.001762  -0.012719
   34  C  4  X   -0.000528   0.000836   0.007202   0.001244  -0.010387
   35  C  4  Y    0.005338   0.000245  -0.013537   0.001269  -0.006866
   36  C  4  Z   -0.000036  -0.000003   0.000087  -0.000010   0.000065
   37  C  5  S   -0.000210  -0.000020  -0.004158  -0.000152  -0.000525
   38  C  5  S   -0.000159  -0.000028  -0.005371  -0.000115  -0.000225
   39  C  5  X   -0.000065   0.000021   0.000353  -0.000015  -0.000313
   40  C  5  Y    0.000156   0.000005   0.001641   0.000039   0.000006
   41  C  5  Z   -0.000001  -0.000000  -0.000016  -0.000000   0.000000
   42  C  5  S   -0.001295   0.000500   0.047482   0.000581  -0.000966
   43  C  5  X   -0.001250   0.000019   0.003417   0.000075   0.002611
   44  C  5  Y   -0.001022  -0.000343  -0.030926  -0.000508   0.001438
   45  C  5  Z    0.000008   0.000003   0.000200   0.000003  -0.000018
   46  C  6  S   -0.000119   0.000028  -0.004264  -0.000059  -0.001660
   47  C  6  S   -0.000031   0.000015  -0.005409  -0.000038  -0.000788
   48  C  6  X   -0.000188   0.000010  -0.000146  -0.000045  -0.000143
   49  C  6  Y   -0.000016   0.000022  -0.001667   0.000021  -0.000349
   50  C  6  Z    0.000000  -0.000000   0.000009   0.000000   0.000002
   51  C  6  S   -0.002493   0.000286   0.047849   0.000201   0.000766
   52  C  6  X   -0.000469   0.000248   0.012869   0.000423  -0.001143
   53  C  6  Y   -0.001298  -0.000298   0.028137  -0.000509   0.006393
   54  C  6  Z    0.000009   0.000002  -0.000241   0.000002  -0.000042
   55  H  7  S   -0.000093  -0.000162   0.000000   0.000002  -0.000047
   56  H  7  S   -0.000887  -0.000331  -0.000014   0.000140   0.000372
   57  H  8  S   -0.000157  -0.000010  -0.000003  -0.000169  -0.000030
   58  H  8  S   -0.000144   0.000514  -0.000019  -0.000204  -0.000221
   59  H  9  S   -0.000003  -0.000001  -0.000005  -0.000004  -0.000013
   60  H  9  S    0.000070  -0.000009   0.000579  -0.000007   0.000078
   61  C 10  S    0.001078  -0.003143  -0.000183   0.987281   0.001139
   62  C 10  S    0.001340   0.000559  -0.000034   0.101172   0.000171
   63  C 10  X    0.001167  -0.000341   0.000007  -0.000239   0.000062
   64  C 10  Y   -0.000189  -0.000978  -0.000017   0.000950  -0.000143
   65  C 10  Z    0.000043   0.000021   0.000001  -0.000072  -0.000017
   66  C 10  S   -0.026453  -0.025977   0.000073  -0.103726  -0.007198
   67  C 10  X    0.005403   0.004100  -0.000291   0.021139   0.006017
   68  C 10  Y   -0.020100  -0.015520  -0.000289  -0.043072   0.003700
   69  C 10  Z    0.000071   0.000110   0.000001   0.000287   0.000002
   70  C 11  S   -0.008253   0.987120  -0.000266   0.003717  -0.000786
   71  C 11  S    0.000063   0.100477  -0.000001   0.001319   0.000293
   72  C 11  X    0.001009  -0.000462   0.000021  -0.000274   0.000066
   73  C 11  Y    0.000177  -0.000653  -0.000018   0.001012  -0.000193
   74  C 11  Z   -0.000012   0.000104  -0.000001  -0.000015  -0.000009
   75  C 11  S   -0.026053  -0.096508  -0.000363  -0.026783  -0.002226
   76  C 11  X    0.011822   0.024205   0.000223   0.006210  -0.000763
   77  C 11  Y    0.008312   0.034061   0.000315   0.013968   0.005222
   78  C 11  Z   -0.000084  -0.000333  -0.000001  -0.000118  -0.000020
   79  C 12  S   -0.000587   0.000029  -0.001188  -0.000214  -0.004646
   80  C 12  S   -0.000944   0.000076  -0.001124  -0.000148  -0.003192
   81  C 12  X   -0.000158  -0.000024   0.000836  -0.000160  -0.000926
   82  C 12  Y   -0.000174  -0.000087  -0.000139  -0.000117   0.001403
   83  C 12  Z    0.000002   0.000001   0.000000   0.000001  -0.000008
   84  C 12  S    0.010235  -0.001168   0.013871  -0.000088   0.027243
   85  C 12  X    0.012811  -0.000922  -0.017738   0.001789   0.012993
   86  C 12  Y    0.004879   0.001692   0.003526   0.002699  -0.028073
   87  C 12  Z   -0.000066  -0.000010   0.000011  -0.000025   0.000172
   88  C 13  S   -0.001333   0.000262   0.987077   0.000179   0.000690
   89  C 13  S   -0.000247   0.000039   0.100458   0.000010  -0.000044
   90  C 13  X   -0.000090   0.000008   0.000758  -0.000004  -0.000195
   91  C 13  Y   -0.000021  -0.000008  -0.000115  -0.000011   0.000079
   92  C 13  Z   -0.000003   0.000000  -0.000121   0.000000  -0.000004
   93  C 13  S    0.000455  -0.000095  -0.094694   0.000015  -0.002336
   94  C 13  X    0.000647  -0.000190  -0.039929  -0.000229   0.000340
   95  C 13  Y   -0.001219  -0.000238   0.005806  -0.000393   0.004004
   96  C 13  Z    0.000014   0.000001   0.000148   0.000004  -0.000020
   97  O 14  S   -0.000025  -0.000013  -0.000008  -0.000019  -0.000016
   98  O 14  S   -0.000265  -0.000111  -0.000070  -0.000159  -0.000184
   99  O 14  X    0.000126   0.000122   0.000024   0.000281   0.000067
  100  O 14  Y   -0.000016   0.000045   0.000006   0.000110  -0.000013
  101  O 14  Z    0.000004   0.000001  -0.000000  -0.000002  -0.000002
  102  O 14  S    0.000683   0.000615   0.000371   0.001110  -0.000064
  103  O 14  X   -0.001147  -0.000765  -0.000244  -0.001952   0.000502
  104  O 14  Y   -0.000587  -0.000307   0.000027  -0.000769   0.000227
  105  O 14  Z   -0.000006  -0.000002   0.000000   0.000009   0.000000
  106  O 15  S    0.000090   0.000034   0.000002   0.000370  -0.000035
  107  O 15  S    0.000673   0.000206   0.000014   0.003738  -0.000278
  108  O 15  X    0.000141  -0.000132  -0.000008  -0.000310   0.000090
  109  O 15  Y    0.000045  -0.000167  -0.000003   0.000787  -0.000002
  110  O 15  Z    0.000099   0.000054   0.000001  -0.000043  -0.000033
  111  O 15  S   -0.004891  -0.002564  -0.000078  -0.011646   0.001448
  112  O 15  X    0.000163   0.000915   0.000060   0.002257  -0.000865
  113  O 15  Y   -0.001281   0.000198  -0.000006  -0.005409   0.000385
  114  O 15  Z   -0.000424  -0.000248  -0.000006   0.000115   0.000127
  115  O 16  S    0.000006   0.000322   0.000002   0.000018   0.000025
  116  O 16  S   -0.000019   0.003321   0.000014   0.000083   0.000187
  117  O 16  X    0.000243  -0.000438   0.000004  -0.000105   0.000017
  118  O 16  Y   -0.000013  -0.000625  -0.000003   0.000217  -0.000027
  119  O 16  Z   -0.000031   0.000081  -0.000002  -0.000040  -0.000026
  120  O 16  S   -0.001391  -0.009558  -0.000108  -0.001925  -0.001285
  121  O 16  X   -0.001053   0.002929   0.000003   0.000755   0.000324
  122  O 16  Y    0.000360   0.004142   0.000036  -0.000649   0.000299
  123  O 16  Z    0.000155  -0.000266   0.000010   0.000195   0.000110
  124  O 17  S   -0.000008   0.000001   0.000317   0.000001  -0.000009
  125  O 17  S   -0.000070   0.000009   0.003282   0.000007  -0.000085
  126  O 17  X   -0.000021   0.000001   0.000755  -0.000003  -0.000025
  127  O 17  Y   -0.000016  -0.000005  -0.000115  -0.000008   0.000067
  128  O 17  Z   -0.000007   0.000001  -0.000083   0.000001  -0.000007
  129  O 17  S    0.000343  -0.000055  -0.009238  -0.000065   0.000320
  130  O 17  X    0.000172  -0.000016  -0.004944  -0.000013   0.000154
  131  O 17  Y    0.000108   0.000035   0.000764   0.000055  -0.000485
  132  O 17  Z    0.000027  -0.000005   0.000259  -0.000006   0.000028
  133  C 18  S   -0.001362  -0.000366  -0.000109  -0.001630  -0.001671
  134  C 18  S   -0.001645  -0.000525  -0.000060  -0.001380  -0.000802
  135  C 18  X   -0.000430   0.000145   0.000022  -0.000295   0.000757
  136  C 18  Y   -0.000130   0.000073  -0.000048   0.000116   0.000481
  137  C 18  Z    0.000007   0.000001   0.000001  -0.000001  -0.000008
  138  C 18  S    0.023740   0.008926  -0.000971   0.016968   0.007836
  139  C 18  X    0.010715   0.003694   0.001484   0.008665  -0.011367
  140  C 18  Y    0.012968   0.005696   0.000880   0.011831  -0.003627
  141  C 18  Z   -0.000121  -0.000046  -0.000011  -0.000094   0.000069
  142  C 19  S   -0.002746   0.000809  -0.000799  -0.001122   0.987056
  143  C 19  S   -0.001249   0.000203  -0.000571  -0.000408   0.100821
  144  C 19  X   -0.001507   0.000286   0.000056  -0.000215   0.000936
  145  C 19  Y    0.000065   0.000206   0.000069   0.000072   0.000034
  146  C 19  Z    0.000003  -0.000002  -0.000001  -0.000001  -0.000006
  147  C 19  S    0.003606   0.002877   0.009010   0.002743  -0.086500
  148  C 19  X    0.017693  -0.001382  -0.006033   0.000899   0.014368
  149  C 19  Y   -0.015500  -0.001924  -0.000546  -0.005079   0.035874
  150  C 19  Z    0.000077   0.000019   0.000018   0.000040  -0.000301
  151  C 20  S   -0.002252  -0.000796  -0.000026  -0.002772  -0.000041
  152  C 20  S   -0.003955  -0.000847  -0.000001  -0.004242   0.000292
  153  C 20  X   -0.000541  -0.000542   0.000071  -0.002273  -0.000336
  154  C 20  Y   -0.002444  -0.000834  -0.000057  -0.001179   0.000209
  155  C 20  Z    0.000019   0.000007   0.000000   0.000011   0.000001
  156  C 20  S    0.041122   0.011635  -0.000770   0.041622  -0.004388
  157  C 20  X    0.015886   0.011889   0.000055   0.036878   0.012231
  158  C 20  Y    0.047829   0.015532   0.001109   0.029159  -0.013570
  159  C 20  Z   -0.000359  -0.000146  -0.000007  -0.000293   0.000053
  160  C 21  S    0.987311   0.008815   0.001312  -0.000445   0.002504
  161  C 21  S    0.101732   0.001711   0.000063   0.001177  -0.000768
  162  C 21  X   -0.000303  -0.000677   0.000155  -0.000726   0.000988
  163  C 21  Y   -0.000409  -0.000568   0.000082   0.000944   0.001218
  164  C 21  Z   -0.000002   0.000001  -0.000001  -0.000005  -0.000011
  165  C 21  S   -0.100395  -0.026463  -0.001047  -0.025457   0.001877
  166  C 21  X   -0.047143  -0.016908  -0.001339  -0.019321  -0.003685
  167  C 21  Y    0.011981  -0.002775  -0.000707   0.000063  -0.022950
  168  C 21  Z    0.000011   0.000067   0.000008   0.000037   0.000174
  169  O 22  S    0.000365   0.000037  -0.000007   0.000050   0.000356
  170  O 22  S    0.003586   0.000238  -0.000065   0.000339   0.003435
  171  O 22  X    0.001869  -0.000150  -0.000040   0.000122  -0.001060
  172  O 22  Y   -0.000021  -0.000195   0.000054   0.000227  -0.001330
  173  O 22  Z   -0.000004   0.000003  -0.000000  -0.000002   0.000011
  174  O 22  S   -0.011558  -0.002406   0.000291  -0.003185  -0.010288
  175  O 22  X   -0.011391  -0.000147   0.000146  -0.001975   0.006042
  176  O 22  Y    0.000602   0.000928  -0.000316  -0.000892   0.008289
  177  O 22  Z    0.000021  -0.000011   0.000001   0.000011  -0.000071
  178  C 23  S    0.000484   0.000086  -0.000081  -0.000332  -0.000986
  179  C 23  S    0.001142   0.000141  -0.000125  -0.000409  -0.003440
  180  C 23  X    0.000264  -0.000091  -0.000100  -0.000384   0.000691
  181  C 23  Y    0.000138   0.000181   0.000010   0.000115  -0.001467
  182  C 23  Z   -0.000002  -0.000001   0.000000   0.000001   0.000010
  183  C 23  S   -0.014210  -0.001444   0.000582  -0.001450   0.033681
  184  C 23  X   -0.002375   0.000664   0.002488   0.003187  -0.021282
  185  C 23  Y   -0.016260  -0.002996  -0.000787  -0.005139   0.023194
  186  C 23  Z    0.000131   0.000020  -0.000000   0.000026  -0.000129
  187  H 24  S    0.000906   0.000616   0.000012   0.000669  -0.000299
  188  H 24  S    0.008121   0.008153   0.000221   0.003354   0.000502
  189  H 25  S   -0.000809  -0.000154   0.000205  -0.000211  -0.002132
  190  H 25  S   -0.005149  -0.000598  -0.000114  -0.000389   0.000524
  191  H 26  S    0.000637   0.000635  -0.000004   0.000751   0.000204
  192  H 26  S    0.003170   0.008013   0.000016   0.008319   0.000792
  193  H 27  S    0.000406  -0.000001  -0.000737   0.000022  -0.000087
  194  H 27  S   -0.000030  -0.000333  -0.002662   0.000045   0.000115
  195  H 28  S    0.000124  -0.000056  -0.000822  -0.000049   0.000713
  196  H 28  S    0.003002   0.000059  -0.002305   0.000387  -0.002097
  197  H 29  S    0.000098   0.000012   0.000600   0.000020  -0.000052
  198  H 29  S    0.000450   0.000076   0.007885   0.000171   0.000262
  199  H 30  S   -0.000036  -0.000023   0.000578  -0.000035   0.000426
  200  H 30  S   -0.000183  -0.000061   0.007848  -0.000023   0.001690

                     11         12         13         14         15
                  -11.0578   -11.0550   -11.0530   -11.0514   -11.0443
                     A          A          A          A          A   
    1  C  1  S   -0.000449  -0.000971  -0.000736  -0.000989  -0.032378
    2  C  1  S   -0.000138  -0.000237  -0.000185  -0.000192  -0.003471
    3  C  1  X   -0.000002   0.000003  -0.000003   0.000012  -0.000044
    4  C  1  Y    0.000011   0.000001   0.000000   0.000010   0.000004
    5  C  1  Z    0.000000  -0.000000   0.000000  -0.000000  -0.000001
    6  C  1  S    0.001141   0.001544   0.001832   0.000633   0.006517
    7  C  1  X   -0.000506  -0.000591  -0.000412  -0.000913  -0.001116
    8  C  1  Y   -0.000713  -0.000766  -0.001069  -0.000234  -0.002456
    9  C  1  Z    0.000005   0.000006   0.000007   0.000004   0.000018
   10  C  2  S   -0.000175  -0.000397  -0.000608  -0.000265  -0.000376
   11  C  2  S   -0.000047  -0.000097  -0.000153  -0.000033  -0.000082
   12  C  2  X    0.000008   0.000023   0.000016   0.000024  -0.000017
   13  C  2  Y    0.000028   0.000023  -0.000008   0.000042   0.000067
   14  C  2  Z   -0.000000  -0.000000   0.000000  -0.000001  -0.000001
   15  C  2  S    0.000288   0.000435   0.001210  -0.000464   0.001209
   16  C  2  X   -0.000038  -0.000234  -0.000780   0.000292  -0.000510
   17  C  2  Y   -0.000104  -0.000028   0.000104   0.000165  -0.000133
   18  C  2  Z   -0.000000  -0.000000  -0.000001  -0.000003  -0.000000
   19  C  3  S   -0.016814   0.984976   0.026157   0.055401   0.019344
   20  C  3  S   -0.001361   0.101113   0.002227   0.000871  -0.001735
   21  C  3  X   -0.000135  -0.001194   0.000030   0.001823  -0.000322
   22  C  3  Y    0.000832  -0.001116   0.000260   0.000214   0.001432
   23  C  3  Z   -0.000004  -0.000002  -0.000001  -0.000007  -0.000010
   24  C  3  S   -0.012763  -0.103874   0.003555   0.037616   0.027410
   25  C  3  X    0.010478   0.019418  -0.004496  -0.019219   0.002462
   26  C  3  Y    0.006518   0.025591  -0.001338  -0.011425  -0.017144
   27  C  3  Z   -0.000076  -0.000208   0.000026   0.000140   0.000121
   28  C  4  S    0.986016   0.015008   0.041856   0.012182   0.015480
   29  C  4  S    0.101197   0.002086  -0.000427   0.000324  -0.002094
   30  C  4  X   -0.000844  -0.000459   0.001680   0.000144  -0.000835
   31  C  4  Y    0.001277  -0.000669  -0.000759  -0.000369  -0.001376
   32  C  4  Z   -0.000016   0.000005   0.000003   0.000004   0.000012
   33  C  4  S   -0.103741  -0.018733   0.036665   0.007758   0.027340
   34  C  4  X    0.010268   0.008330  -0.016111  -0.006949   0.008583
   35  C  4  Y   -0.028208  -0.012328   0.015593   0.003234   0.016686
   36  C  4  Z    0.000186   0.000076  -0.000079  -0.000007  -0.000138
   37  C  5  S   -0.009227  -0.055084  -0.058625   0.984160   0.007318
   38  C  5  S   -0.001740  -0.010365  -0.006276   0.099147   0.000674
   39  C  5  X   -0.000092  -0.001494   0.000545   0.000437  -0.000656
   40  C  5  Y    0.000215   0.000833   0.001057  -0.001201   0.000148
[...]
            124  O 17  S      1.98635     1.97971
            125  O 17  S      0.40606     0.56010
            126  O 17  X      0.61091     0.60226
            127  O 17  Y      0.85992     0.87125
            128  O 17  Z      0.65734     0.64547
            129  O 17  S      1.54340     0.98803
            130  O 17  X      0.80985     0.81261
            131  O 17  Y      1.05157     1.05389
            132  O 17  Z      0.84881     0.85351
            133  C 18  S      1.98845     1.97567
            134  C 18  S      0.40268     0.41461
            135  C 18  X      0.59146     0.56390
            136  C 18  Y      0.59437     0.56857
            137  C 18  Z      0.42556     0.41408
            138  C 18  S      0.65878     0.48426
            139  C 18  X      0.23520     0.47518
            140  C 18  Y      0.00169     0.41892
            141  C 18  Z      0.58211     0.59775
            142  C 19  S      1.98767     1.97519
            143  C 19  S      0.39056     0.41035
            144  C 19  X      0.54075     0.52932
            145  C 19  Y      0.56422     0.54163
            146  C 19  Z      0.48804     0.47920
            147  C 19  S      0.73585     0.49232
            148  C 19  X      0.18181     0.43766
            149  C 19  Y      0.10054     0.41729
            150  C 19  Z      0.60136     0.61542
            151  C 20  S      1.98902     1.97628
            152  C 20  S      0.39178     0.42036
            153  C 20  X      0.60757     0.60029
            154  C 20  Y      0.60574     0.60080
            155  C 20  Z      0.43362     0.42675
            156  C 20  S      0.82646     0.51594
            157  C 20  X      0.36097     0.50184
            158  C 20  Y      0.38535     0.49539
            159  C 20  Z      0.63016     0.62135
            160  C 21  S      1.98834     1.97555
            161  C 21  S      0.39965     0.41571
            162  C 21  X      0.49483     0.48106
            163  C 21  Y      0.65637     0.62979
            164  C 21  Z      0.42936     0.41157
            165  C 21  S      0.77699     0.48666
            166  C 21  X      0.02276     0.37260
            167  C 21  Y      0.25592     0.48132
            168  C 21  Z      0.54137     0.56703
            169  O 22  S      1.98694     1.97916
            170  O 22  S      0.39677     0.54901
            171  O 22  X      0.59105     0.58681
            172  O 22  Y      0.72861     0.73105
            173  O 22  Z      0.82660     0.83896
            174  O 22  S      1.58143     0.91517
            175  O 22  X      0.82217     0.75166
            176  O 22  Y      0.93554     0.91574
            177  O 22  Z      0.99839     0.98282
            178  C 23  S      1.98846     1.97655
            179  C 23  S      0.38491     0.41684
            180  C 23  X      0.59797     0.58401
            181  C 23  Y      0.58583     0.56209
            182  C 23  Z      0.46850     0.46992
            183  C 23  S      0.88549     0.53646
            184  C 23  X      0.36431     0.51027
            185  C 23  Y      0.35645     0.50805
            186  C 23  Z      0.72011     0.70615
            187  H 24  S      0.46903     0.46693
            188  H 24  S      0.30062     0.43167
            189  H 25  S      0.47486     0.47125
            190  H 25  S      0.31628     0.43326
            191  H 26  S      0.47077     0.46933
            192  H 26  S      0.30671     0.43479
            193  H 27  S      0.47203     0.47192
            194  H 27  S      0.28854     0.42557
            195  H 28  S      0.47570     0.47554
            196  H 28  S      0.28212     0.42124
            197  H 29  S      0.47484     0.47496
            198  H 29  S      0.31285     0.43647
            199  H 30  S      0.47437     0.47437
            200  H 30  S      0.30871     0.43481

          ----- MULLIKEN ATOMIC OVERLAP POPULATIONS -----
          (OFF-DIAGONAL ELEMENTS NEED TO BE MULTIPLIED BY 2)

             1           2           3           4           5

    1    5.5138941
    2   -0.1201003   5.6751498
    3   -0.0000033   0.0000000   5.3459950
    4   -0.0000001   0.0000000  -0.0804721   5.3457414
    5   -0.0000002   0.0000000   0.3513696   0.0065878   5.4532022
    6   -0.0000000   0.0000000   0.0053546   0.3615218  -0.1290211
    7    0.0000266  -0.0007700  -0.0000000  -0.0000000  -0.0000000
    8   -0.0000590  -0.0003193  -0.0000000  -0.0000000   0.0000000
    9   -0.0000000  -0.0000000  -0.0000959  -0.0001010   0.0002281
   10   -0.0128820   0.2558424  -0.0000002  -0.0000000  -0.0000000
   11    0.3232083   0.2960935   0.0000001  -0.0000000   0.0000000
   12   -0.0000033   0.0000000   0.3759191   0.3969084  -0.1119608
   13    0.0000000  -0.0000000  -0.0821335  -0.0816551   0.3640958
   14    0.0000043   0.0002058   0.0000000   0.0000016   0.0000000
   15   -0.0002924  -0.0713370   0.0000000  -0.0000000   0.0000000
   16   -0.0625787  -0.0636408  -0.0000000  -0.0000000  -0.0000000
   17   -0.0000000   0.0000000   0.0036869   0.0038241  -0.0672066
   18    0.0041496   0.0063377  -0.0000654   0.0001507   0.0000003
   19    0.0009881   0.0000126  -0.0748465  -0.0526980   0.0026212
   20   -0.0824501  -0.1223354   0.0000349  -0.0000182   0.0000002
   21    0.3398547  -0.0085198  -0.0000941  -0.0001009  -0.0000007
   22   -0.0329527  -0.0002349   0.0043899   0.0020505   0.0002397
   23    0.0003321   0.0000711   0.0056781  -0.0161302  -0.0000477
   24    0.3960886   0.0037328   0.0000037   0.0000000   0.0000001
   25    0.0000004   0.0000001   0.0000163  -0.0042520  -0.0000111
   26    0.0037659   0.3972415   0.0000000   0.0000000   0.0000000
   27   -0.0000252   0.0000000   0.3985560   0.0019732  -0.0310931
   28    0.0000000   0.0000000   0.0019035   0.3959690  -0.0000089
   29   -0.0000000  -0.0000000  -0.0345470  -0.0003257   0.4006683
   30    0.0000000   0.0000000  -0.0002848  -0.0344007   0.0031904

             6           7           8           9          10

    6    5.4325059
    7   -0.0000000   0.3840909
    8   -0.0000000   0.0000001   0.3975676
    9    0.0001469   0.0000000   0.0000000   0.4046545
   10   -0.0000000  -0.0483754  -0.0000777   0.0000000   5.1570601
   11    0.0000000  -0.0000659  -0.0513277   0.0000000  -0.0357090
   12   -0.1038220   0.0000000   0.0000000   0.0000265   0.0000054
   13    0.3635242   0.0000000   0.0000000  -0.0538223   0.0000000
   14   -0.0000000   0.0026188  -0.0000000  -0.0000000  -0.0033379
   15    0.0000000   0.2782015   0.0000002   0.0000000   0.3041764
   16   -0.0000000   0.0000002   0.2776877   0.0000000   0.0036772
   17   -0.0663253   0.0000000   0.0000000   0.2771901  -0.0000000
   18   -0.0000050   0.0005378  -0.0000001   0.0000000  -0.1183442
   19    0.0028350  -0.0000018  -0.0000000  -0.0000001   0.0001891
   20   -0.0000001   0.0001973   0.0000338   0.0000000   0.1619278
   21    0.0000006  -0.0000782  -0.0001199  -0.0000000  -0.0073740
   22   -0.0000092   0.0000003   0.0000001   0.0000000   0.0030779
   23    0.0003519   0.0000332  -0.0000000  -0.0000000   0.0042335
   24   -0.0000000  -0.0000001   0.0001433  -0.0000000  -0.0008191
   25    0.0001886   0.0000003  -0.0000000  -0.0000000   0.0000437
   26    0.0000000   0.0001766   0.0000928   0.0000000  -0.0439204
   27   -0.0000757  -0.0000000   0.0000000   0.0000011  -0.0000001
   28   -0.0289855  -0.0000000  -0.0000000   0.0000011  -0.0000001
   29    0.0032931  -0.0000000  -0.0000000   0.0001154   0.0000000
   30    0.4002886  -0.0000000  -0.0000000   0.0001121   0.0000000

            11          12          13          14          15

   11    5.0409360
   12   -0.0000005   5.3874109
   13   -0.0000000  -0.0045688   4.9941696
   14   -0.0000087  -0.0000400  -0.0000000   8.4065848
   15    0.0033412  -0.0000000  -0.0000000  -0.0061043   8.3200626
   16    0.2516281   0.0000000   0.0000000  -0.0000000  -0.0000003
   17    0.0000000  -0.0003746   0.2578462   0.0000000   0.0000000
   18   -0.0009409   0.0016859   0.0000001   0.5845597  -0.0056612
   19   -0.0001513   0.4049409   0.0000802   0.0056693  -0.0000061
   20   -0.0200162  -0.0001553  -0.0000000  -0.1279600  -0.0779832
   21   -0.0568029   0.0027047   0.0000000   0.0041465   0.0027445
   22    0.0028632  -0.0417308  -0.0000019   0.0000019  -0.0000001
   23   -0.0000310  -0.1039386  -0.0000233  -0.1142347   0.0000652
   24   -0.0435081  -0.0000124   0.0000000   0.0000000  -0.0000001
   25    0.0000001  -0.0011583   0.0000023  -0.0013428   0.0000009
   26   -0.0436763  -0.0000000  -0.0000000   0.0000025  -0.0015461
   27    0.0000001  -0.0329782   0.0020166  -0.0000000   0.0000000
   28   -0.0000000  -0.0331890   0.0018766  -0.0000091  -0.0000000
   29   -0.0000000   0.0030514  -0.0431980   0.0000000  -0.0000000
   30   -0.0000000   0.0029252  -0.0424861   0.0000000   0.0000000

            16          17          18          19          20

   16    8.3711211
   17    0.0000000   8.3705029
   18   -0.0000004   0.0000000   4.8999633
   19    0.0000001  -0.0000003  -0.0811023   5.1217621
   20   -0.0004074   0.0000000  -0.0321827   0.0317060   6.6856276
   21    0.0042541  -0.0000000  -0.0200045  -0.0729183   0.0771654
   22   -0.0000002  -0.0000000  -0.0123248   0.2137640  -0.0601905
   23   -0.0000000   0.0000000   0.2799637   0.1342205  -0.2199990
   24   -0.0031848  -0.0000000   0.0000182   0.0000367   0.0054743
   25    0.0000000   0.0000000  -0.0263125  -0.0437927   0.0061266
   26   -0.0027419   0.0000000   0.0000469  -0.0000001   0.0060639
   27    0.0000000  -0.0000040  -0.0000084  -0.0020795   0.0000308
   28    0.0000000  -0.0000045  -0.0001519  -0.0003181  -0.0000190
   29    0.0000000  -0.0024751  -0.0000000  -0.0000488   0.0000000
   30    0.0000000  -0.0024483  -0.0000000  -0.0000491   0.0000000

            21          22          23          24          25

   21    5.0985697
   22    0.2328438   8.6190020
   23    0.0116402  -0.0712021   6.0505532
   24   -0.0411498  -0.0009356   0.0000169   0.4536903
   25   -0.0003393   0.0011912   0.3910304  -0.0000001   0.4644103
   26   -0.0007449  -0.0000000   0.0000009  -0.0000103  -0.0000000
   27   -0.0000850   0.0076033   0.0002950   0.0000600  -0.0000027
   28    0.0000007   0.0000492  -0.0008560   0.0000000   0.0053476
   29   -0.0000000   0.0000004   0.0000003  -0.0000000   0.0000000
   30   -0.0000000   0.0000000   0.0000084   0.0000000  -0.0000071

            26          27          28          29          30

   26    0.4627294
   27   -0.0000000   0.4181396
   28    0.0000000  -0.0000412   0.4177096
   29   -0.0000000  -0.0017170   0.0000015   0.4628982
   30   -0.0000000   0.0000017  -0.0014532  -0.0000257   0.4577038

          TOTAL MULLIKEN AND LOWDIN ATOMIC POPULATIONS
       ATOM         MULL.POP.    CHARGE          LOW.POP.     CHARGE
    1 C             6.270965   -0.270965         6.203505   -0.203505
    2 C             6.247430   -0.247430         6.196480   -0.196480
    3 C             6.220365   -0.220365         6.101666   -0.101666
    4 C             6.244575   -0.244575         6.100130   -0.100130
    5 C             6.242854   -0.242854         6.144799   -0.144799
    6 C             6.241767   -0.241767         6.140711   -0.140711
    7 H             0.616592    0.383408         0.736585    0.263415
    8 H             0.623622    0.376378         0.743756    0.256244
    9 H             0.628456    0.371544         0.747732    0.252268
   10 C             5.619394    0.380606         5.851079    0.148921
   11 C             5.665832    0.334168         5.885923    0.114077
   12 C             6.141646   -0.141646         6.081941   -0.081941
   13 C             5.675723    0.324277         5.910905    0.089095
   14 O             8.750758   -0.750758         8.451869   -0.451869
   15 O             8.745662   -0.745662         8.337606   -0.337606
   16 O             8.775814   -0.775814         8.364073   -0.364073
   17 O             8.774212   -0.774212         8.366819   -0.366819
   18 C             5.480309    0.519691         5.912945    0.087055
   19 C             5.590813    0.409187         5.898360    0.101640
   20 C             6.230671   -0.230671         6.159019   -0.159019
   21 C             5.565593    0.434407         5.821279    0.178721
   22 O             8.867494   -0.867494         8.250384   -0.250384
   23 C             6.352032   -0.352032         6.270347   -0.270347
   24 H             0.769645    0.230355         0.898596    0.101404
   25 H             0.791140    0.208860         0.904506    0.095494
   26 H             0.777480    0.222520         0.904114    0.095886
   27 H             0.760567    0.239433         0.897489    0.102511
   28 H             0.757822    0.242178         0.896775    0.103225
   29 H             0.787691    0.212309         0.911428    0.088572
   30 H             0.783075    0.216925         0.909179    0.090821

          -------------------------------
          BOND ORDER AND VALENCE ANALYSIS     BOND ORDER THRESHOLD=0.050
          -------------------------------

                   BOND                       BOND                       BOND
  ATOM PAIR DIST  ORDER      ATOM PAIR DIST  ORDER      ATOM PAIR DIST  ORDER
    1  11  1.387  1.251        1  21  1.386  1.356        1  24  1.080  0.933
    2  10  1.383  1.280        2  11  1.390  1.267        2  20  2.404 -0.052
    2  21  2.789  0.055        2  26  1.080  0.937        3   5  1.377  1.331
    3  12  1.398  1.212        3  27  1.080  0.933        4   6  1.377  1.338
    4  12  1.398  1.223        4  28  1.080  0.925        5  13  1.390  1.229
    5  29  1.080  0.945        6  13  1.390  1.228        6  30  1.080  0.944
    7  15  0.967  0.805        8  16  0.967  0.813        9  17  0.967  0.816
   10  15  1.357  0.845       10  20  1.400  1.199       11  16  1.358  0.767
   12  19  1.475  1.199       12  23  2.440 -0.053       13  17  1.358  0.775
   14  18  1.220  1.539       14  23  2.299  0.069       18  20  1.473  0.915
   18  23  1.415  1.232       19  22  1.343  0.716       19  23  1.360  1.266
   20  21  1.406  1.201       21  22  1.350  0.754       23  25  1.080  0.930

                       TOTAL       BONDED        FREE
      ATOM            VALENCE     VALENCE     VALENCE
    1 C                 3.746       3.621       0.125
    2 C                 3.683       3.520       0.164
    3 C                 3.716       3.471       0.245
    4 C                 3.745       3.486       0.259
    5 C                 3.716       3.499       0.217
    6 C                 3.725       3.506       0.219
    7 H                 0.834       0.833       0.000
    8 H                 0.834       0.834       0.000
    9 H                 0.837       0.837       0.001
   10 C                 3.505       3.334       0.171
   11 C                 3.455       3.280       0.175
   12 C                 3.755       3.606       0.150
   13 C                 3.464       3.213       0.251
   14 O                 1.806       1.714       0.092
   15 O                 1.704       1.703       0.001
   16 O                 1.654       1.653       0.001
   17 O                 1.655       1.653       0.001
   18 C                 3.652       3.627       0.024
   19 C                 3.358       3.135       0.223
   20 C                 3.483       3.337       0.146
   21 C                 3.398       3.281       0.117
   22 O                 1.653       1.646       0.007
   23 C                 3.606       3.532       0.074
   24 H                 0.918       0.916       0.001
   25 H                 0.938       0.937       0.001
   26 H                 0.921       0.919       0.002
   27 H                 0.929       0.926       0.003
   28 H                 0.925       0.922       0.003
   29 H                 0.926       0.923       0.002
   30 H                 0.924       0.922       0.002

          -----------------------------------------
          ATOMIC SPIN DENSITY AT THE NUCLEUS (A.U.)
          -----------------------------------------
                            SPIN DENS    ALPHA DENS     BETA DENS
    1  C            6.0    -0.1048602      46.95194      47.05680
    2  C            6.0    -0.1148678      46.96189      47.07675
    3  C            6.0     0.1340525      47.07600      46.94194
    4  C            6.0     0.1371289      47.07870      46.94157
    5  C            6.0    -0.1322079      46.94961      47.08182
    6  C            6.0    -0.1332541      46.94790      47.08116
    7  H            1.0     0.0102106       0.17599       0.16578
    8  H            1.0     0.0106801       0.17782       0.16714
    9  H            1.0     0.0127937       0.17957       0.16678
   10  C            6.0     0.1195649      47.04808      46.92852
   11  C            6.0     0.1190691      47.03886      46.91979
   12  C            6.0    -0.1376736      46.93679      47.07447
   13  C            6.0     0.1453597      47.05151      46.90615
   14  O            8.0     0.1128145     116.94050     116.82769
   15  O            8.0     0.0186763     116.72996     116.71128
   16  O            8.0     0.0184093     116.71103     116.69262
   17  O            8.0     0.0221615     116.71307     116.69091
   18  C            6.0     0.0432893      47.03329      46.99000
   19  C            6.0     0.1361224      47.02409      46.88797
   20  C            6.0    -0.1173551      46.99177      47.10913
   21  C            6.0     0.0994663      47.04081      46.94134
   22  O            8.0     0.0421679     116.72641     116.68425
   23  C            6.0    -0.0836710      46.97734      47.06101
   24  H            1.0     0.0097768       0.18821       0.17843
   25  H            1.0     0.0074330       0.18938       0.18195
   26  H            1.0     0.0111748       0.18969       0.17852
   27  H            1.0    -0.0143282       0.17757       0.19190
   28  H            1.0    -0.0148473       0.17896       0.19380
   29  H            1.0     0.0126698       0.19225       0.17958
   30  H            1.0     0.0127164       0.19207       0.17935

          ---------------------
          ELECTROSTATIC MOMENTS
          ---------------------

 POINT   1           X           Y           Z (BOHR)    CHARGE
                 0.000210   -0.000031    0.000015       -1.00 (A.U.)
         DX          DY          DZ         /D/  (DEBYE)
    -1.672647    5.498396   -1.835293    6.033109
 ...... END OF PROPERTY EVALUATION ......
 CPU     0: STEP CPU TIME=     0.11 TOTAL CPU TIME=         28.4 (      0.5 MIN)
 TOTAL WALL CLOCK TIME=         51.9 SECONDS, CPU UTILIZATION IS    54.59%
               582449  WORDS OF DYNAMIC MEMORY USED
 EXECUTION OF GAMESS TERMINATED NORMALLY Mon May 25 18:08:20 2020
 DDI: 263640 bytes (0.3 MB / 0 MWords) used by master data server.
Note: The following floating-point exceptions are signalling: IEEE_DENORMALNote: The following floating-point exceptions are signalling: IEEE_DENORMALNote: The following floating-point exceptions are signalling: IEEE_DENORMAL

Note: The following floating-point exceptions are signalling: IEEE_DENORMAL

Note: The following floating-point exceptions are signalling: IEEE_DENORMAL

 ----------------------------------------
 CPU timing information for all processes
 ========================================
 0: 27.869 + 0.502 = 28.371
 1: 27.502 + 0.244 = 27.746
 2: 27.558 + 0.232 = 27.790
 3: 27.719 + 0.268 = 27.987
 4: 27.424 + 0.270 = 27.694
 5: 26.983 + 0.295 = 27.279
 ----------------------------------------
Note: The following floating-point exceptions are signalling: IEEE_DENORMAL
 ddikick.x: exited gracefully.
unset echo
----- accounting info -----
Files used on the master node pietdev were:
-rwxr-xr-x 1 piet piet     1321 mei 25 18:07 /home/piet/scr/apigenin_fukui_acid.F05*
-rw-r--r-- 1 piet piet 68812800 mei 25 18:08 /home/piet/scr/apigenin_fukui_acid.F10
ls: No match.
ls: No match.
ls: No match.
ma 25 mei 2020 18:08:23 CEST
0.172u 0.025s 0:55.18 0.3%	0+0k 0+8io 0pf+0w
