----- GAMESS execution script 'rungms' -----
This job is running on host pietdev
under operating system Linux at ma 25 mei 2020 18:07:28 CEST
Available scratch disk space (Kbyte units) at beginning of the job is
Filesystem     1K-blocks     Used Available Use% Mounted on
/dev/sda2      244568380 31071256 201004068  14% /
GAMESS temporary binary files will be written to /home/piet/scr
GAMESS supplementary output files will be written to /home/piet/gamess/scr
Copying input file apigenin_fukui_base.inp to your run's scratch directory...
cp apigenin_fukui_base.inp /home/piet/scr/apigenin_fukui_base.F05
unset echo
 
Assuming a single but multicore node.
 
/home/piet/gamess/ddikick.x /home/piet/gamess/gamess.03.x apigenin_fukui_base -ddi 1 6 pietdev:cpus=6 -scr /home/piet/scr

 Distributed Data Interface kickoff program.
 Initiating 6 compute processes on 1 nodes to run the following command:
 /home/piet/gamess/gamess.03.x apigenin_fukui_base 

          ******************************************************
          *         GAMESS VERSION = 30 SEP 2019 (R2)          *
          *             FROM IOWA STATE UNIVERSITY             *
          * M.W.SCHMIDT, K.K.BALDRIDGE, J.A.BOATZ, S.T.ELBERT, *
          *   M.S.GORDON, J.H.JENSEN, S.KOSEKI, N.MATSUNAGA,   *
          *          K.A.NGUYEN, S.J.SU, T.L.WINDUS,           *
          *       TOGETHER WITH M.DUPUIS, J.A.MONTGOMERY       *
          *         J.COMPUT.CHEM.  14, 1347-1363(1993)        *
          **************** 64 BIT LINUX VERSION ****************

  SINCE 1993, STUDENTS AND POSTDOCS WORKING AT IOWA STATE UNIVERSITY
  AND ALSO IN THEIR VARIOUS JOBS AFTER LEAVING ISU HAVE MADE IMPORTANT
  CONTRIBUTIONS TO THE CODE:
     IVANA ADAMOVIC, CHRISTINE AIKENS, YURI ALEXEEV, POOJA ARORA,
     ANDREY ASADCHEV, ROB BELL, PRADIPTA BANDYOPADHYAY, JONATHAN BENTZ,
     COLLEEN BERTONI, BRETT BODE, KURT BRORSEN, CALEB CARLIN, GALINA CHABAN,
     WEI CHEN, CHEOL HO CHOI, PAUL DAY, ALBERT DEFUSCO, NUWAN DESILVA,
     TIM DUDLEY, DMITRI FEDOROV, ALEX FINDLATER, GRAHAM FLETCHER, 
     MARK FREITAG, KURT GLAESEMANN, EMILIE B GUIDEZ, ANASTASIA GUNINA, 
     DAN KEMP, SAROM SOK LEANG, GRANT MERRILL,
     NORIYUKI MINEZAWA, JONATHAN MULLIN,
     TAKESHI NAGATA, SEAN NEDD, HEATHER NETZLOFF, BOSILJKA NJEGIC, RYAN OLSON,
     MIKE PAK, BUU PHAM, DAVID POOLE,
     SPENCER PRUITT, LUKE ROSKOP, TOSAPORN SATTASATHUCHANA,
     JIM SHOEMAKER, LYUDMILA SLIPCHENKO,
     TONY SMITH, JIE SONG, TETSUYA TAKETSUGU, SIMON WEBB,
     JORGE LUIS GALVEZ VALLEJO, PENG XU, SOOHAENG YOO,
     FEDERICO ZAHARIEV

  ADDITIONAL CODE HAS BEEN PROVIDED BY COLLABORATORS IN OTHER GROUPS:
     IOWA STATE UNIVERSITY:
          JOE IVANIC, AARON WEST, LAIMUTIS BYTAUTAS, KLAUS RUEDENBERG
     UNIVERSITY OF TOKYO: KIMIHIKO HIRAO, TAKAHITO NAKAJIMA,
          TAKAO TSUNEDA, MUNEAKI KAMIYA, SUSUMU YANAGISAWA,
          KIYOSHI YAGI, MAHITO CHIBA, SEIKEN TOKURA, NAOAKI KAWAKAMI
     UNIVERSITY OF AARHUS: FRANK JENSEN
     UNIVERSITY OF IOWA: VISVALDAS KAIRYS, HUI LI
     NATIONAL INST. OF STANDARDS AND TECHNOLOGY: WALT STEVENS, DAVID GARMER
     UNIVERSITY OF PISA: BENEDETTA MENNUCCI, JACOPO TOMASI
     UNIVERSITY OF MEMPHIS: HENRY KURTZ, PRAKASHAN KORAMBATH
     UNIVERSITY OF ALBERTA: TOBY ZENG, MARIUSZ KLOBUKOWSKI
     UNIVERSITY OF NEW ENGLAND: MARK SPACKMAN
     MIE UNIVERSITY: HIROAKI UMEDA
     NAT. INST. OF ADVANCED INDUSTRIAL SCIENCE AND TECHNOLOGY: KAZUO KITAURA
     MICHIGAN STATE UNIVERSITY:
          KAROL KOWALSKI, MARTA WLOCH, JEFFREY GOUR, JESSE LUTZ,
          WEI LI, JUN SHEN, J. EMILIANO DEUSTUA, PIOTR PIECUCH
     UNIVERSITY OF MINNESOTA:
          ANDREW SAND, PRACHI SHARMA, YINAN SHU
     UNIVERSITY OF SILESIA: MONIKA MUSIAL, STANISLAW KUCHARSKI
     FACULTES UNIVERSITAIRES NOTRE-DAME DE LA PAIX:
          OLIVIER QUINET, BENOIT CHAMPAGNE
     UNIVERSITY OF CALIFORNIA - SANTA BARBARA: BERNARD KIRTMAN
     INSTITUTE FOR MOLECULAR SCIENCE:
          KAZUYA ISHIMURA, MICHIO KATOUDA, AND SHIGERU NAGASE
     UNIVERSITY OF NOTRE DAME: ANNA POMOGAEVA, DAN CHIPMAN
     KYUSHU UNIVERSITY:
          HARUYUKI NAKANO,
          FENG LONG GU, JACEK KORCHOWIEC, MARCIN MAKOWSKI, AND YURIKO AOKI,
          HIROTOSHI MORI AND EISAKU MIYOSHI
     PENNSYLVANIA STATE UNIVERSITY:
          TZVETELIN IORDANOV, CHET SWALINA, JONATHAN SKONE,
          SHARON HAMMES-SCHIFFER
     WASEDA UNIVERSITY:
          MASATO KOBAYASHI, TOMOKO AKAMA, TSUGUKI TOUMA,
          TAKESHI YOSHIKAWA, YASUHIRO IKABATA, JUNJI SEINO,
          YUYA NAKAJIMA, HIROMI NAKAI
     NANJING UNIVERSITY: SHUHUA LI
     UNIVERSITY OF NEBRASKA:
          PEIFENG SU, DEJUN SI, NANDUN THELLAMUREGE, YALI WANG, HUI LI
     UNIVERSITY OF ZURICH: ROBERTO PEVERATI, KIM BALDRIDGE
     N. COPERNICUS UNIVERSITY AND JACKSON STATE UNIVERSITY:
          MARIA BARYSZ
     UNIVERSITY OF COPENHAGEN: Jimmy Kromann, CASPER STEINMANN
     TOKYO INSTITUTE OF TECHNOLOGY: HIROYA NAKATA
     NAGOYA UNIVERSITY: YOSHIO NISHIMOTO, STEPHAN IRLE
     MOSCOW STATE UNIVERSITY: VLADIMIR MIRONOV
     A.N.NESMEYANOV INSTITUTE OF ORGANOELEMENT COMPOUNDS OF RUSSIAN ACADEMY OF SCIENCES:
          IGOR S. GERASIMOV
     JOHANNES KEPLER UNIVERSITY LINZ:
          CHRISTIAN FRIEDL


 PARALLEL VERSION RUNNING ON        6 PROCESSORS IN        1 NODES.

 EXECUTION OF GAMESS BEGUN Mon May 25 18:07:28 2020

            ECHO OF THE FIRST FEW INPUT CARDS -
 INPUT CARD> $BASIS GBASIS=N21 NGAUSS=3 $END                                                
 INPUT CARD> $CONTRL SCFTYP=UHF MAXIT=60 MULT=2 ICHARG=1 $END                               
 INPUT CARD> $SYSTEM MEMDDI=1000 MWORDS=30 $END                                             
 INPUT CARD> $SCF DIRSCF=.TRUE. $END                                                        
 INPUT CARD> $STATPT OPTTOL=0.0001 NSTEP=999 $END                                           
 INPUT CARD> $DATA                                                                          
 INPUT CARD>                                                                                
 INPUT CARD>C1                                                                              
 INPUT CARD>C 6.0000000 2.22960 1.81070 -0.01420                                            
 INPUT CARD>C 6.0000000 4.19310 0.40880 -0.00840                                            
 INPUT CARD>C 6.0000000 -2.71150 1.25970 0.00010                                            
 INPUT CARD>C 6.0000000 -3.07290 -1.13180 0.01780                                           
 INPUT CARD>C 6.0000000 -4.07400 1.46090 0.00130                                            
 INPUT CARD>C 6.0000000 -4.43400 -0.92150 0.01890                                           
 INPUT CARD>H 1.0000000 4.13060 -2.32020 -0.87200                                           
 INPUT CARD>H 1.0000000 4.62700 3.10240 0.85580                                             
 INPUT CARD>H 1.0000000 -6.67230 0.62840 -0.87030                                           
 INPUT CARD>C 6.0000000 3.39980 -0.72390 0.00100                                            
 INPUT CARD>C 6.0000000 3.60910 1.67050 -0.01570                                            
 INPUT CARD>C 6.0000000 -2.19920 -0.04080 0.00840                                           
 INPUT CARD>C 6.0000000 -4.93910 0.37320 0.01110                                            
 INPUT CARD>O 8.0000000 1.57930 -2.90130 0.01970                                            
 INPUT CARD>O 8.0000000 3.96790 -1.95640 0.00910                                            
 INPUT CARD>O 8.0000000 4.39710 2.77590 -0.02490                                            
 INPUT CARD>O 8.0000000 -6.28140 0.57600 0.01270                                            
 INPUT CARD>C 6.0000000 1.12400 -1.76900 0.01300                                            
 INPUT CARD>C 6.0000000 -0.74070 -0.26110 0.00670                                           
 INPUT CARD>C 6.0000000 2.00600 -0.58960 0.00310                                            
 INPUT CARD>C 6.0000000 1.41820 0.68730 -0.00490                                            
 INPUT CARD>O 8.0000000 0.07350 0.80630 -0.00280                                            
 INPUT CARD>C 6.0000000 -0.27210 -1.53810 0.01540                                           
 INPUT CARD>H 1.0000000 1.78730 2.79600 -0.01580                                            
 INPUT CARD>H 1.0000000 -0.96080 -2.36990 0.02290                                           
 INPUT CARD>H 1.0000000 5.26880 0.31310 -0.00970                                            
 INPUT CARD>H 1.0000000 -2.04000 2.10540 -0.01160                                           
 INPUT CARD>H 1.0000000 -2.68120 -2.13820 0.02460                                           
 INPUT CARD>H 1.0000000 -4.47080 2.46530 -0.00510                                           
 INPUT CARD>H 1.0000000 -5.10970 -1.76390 0.02610                                           
 INPUT CARD> $END                                                                           
   30000000 WORDS OF MEMORY AVAILABLE

     BASIS OPTIONS
     -------------
     GBASIS=N21          IGAUSS=       3      POLAR=NONE    
     NDFUNC=       0     NFFUNC=       0     DIFFSP=       F
     NPFUNC=       0      DIFFS=       F     BASNAM=        


     RUN TITLE
     ---------
                                                                                 

 THE POINT GROUP OF THE MOLECULE IS C1      
 THE ORDER OF THE PRINCIPAL AXIS IS     0

 ATOM      ATOMIC                      COORDINATES (BOHR)
           CHARGE         X                   Y                   Z
 C           6.0     4.2133330622        3.4217268460       -0.0268341090
 C           6.0     7.9238100391        0.7725199838       -0.0158736983
 C           6.0    -5.1239920157        2.3804878267        0.0001889726
 C           6.0    -5.8069389877       -2.1387918729        0.0336371226
 C           6.0    -7.6987436740        2.7607006955        0.0024566438
 C           6.0    -8.3790450296       -1.7413824977        0.0357158212
 H           1.0     7.8057021649       -4.3845422367       -1.6478410613
 H           1.0     8.7437621452        5.8626859043        1.6172275003
 H           1.0   -12.6088187079        1.1875038107       -1.6446285271
 C           6.0     6.4246904131       -1.3679726425        0.0018897260
 C           6.0     6.8202100623        3.1567872625       -0.0296686980
 C           6.0    -4.1558853922       -0.0771008203        0.0158736983
 C           6.0    -9.3335456260        0.7052457386        0.0209759585
 O           8.0     2.9844442524       -5.4826620082        0.0372276020
 O           8.0     7.4982437467       -3.6970599224        0.0171965065
 O           8.0     8.3093141406        5.2456903693       -0.0470541771
 O           8.0   -11.8701248193        1.0884821689        0.0239995200
 C           6.0     2.1240520102       -3.3429252723        0.0245664378
 C           6.0    -1.3997200391       -0.4934074554        0.0126611641
 C           6.0     3.7907903314       -1.1141824424        0.0058581506
 C           6.0     2.6800093958        1.2988086714       -0.0092596573
 O           8.0     0.1388948601        1.5236860639       -0.0052912328
 C           6.0    -0.5141944413       -2.9065875417        0.0291017802
 H           1.0     3.3775072579        5.2836738617       -0.0298576706
 H           1.0    -1.8156487290       -4.4784616183        0.0432747251
 H           1.0     9.9565882841        0.5916732068       -0.0183303421
 H           1.0    -3.8550410150        3.9786290945       -0.0219208215
 H           1.0    -5.0667333183       -4.0406121069        0.0464872593
 H           1.0    -8.4485869459        4.6587414775       -0.0096376025
 H           1.0    -9.6559328795       -3.3332876697        0.0493218483

          INTERNUCLEAR DISTANCES (ANGS.)
          ------------------------------

                1 C          2 C          3 C          4 C          5 C     

   1 C       0.0000000    2.4126105 *  4.9717477    6.0643084    6.3133171  
   2 C       2.4126105 *  0.0000000    6.9568387    7.4275764    8.3337837  
   3 C       4.9717477    6.9568387    0.0000000    2.4187177 *  1.3772760 *
   4 C       6.0643084    7.4275764    2.4187177 *  0.0000000    2.7793105 *
   5 C       6.3133171    8.3337837    1.3772760 *  2.7793105 *  0.0000000  
   6 C       7.2020537    8.7291064    2.7793872 *  1.3772511 *  2.4095102 *
   7 H       4.6275217    2.8630669 *  7.7711373    7.3548930    9.0760581  
   8 H       2.8588312 *  2.8619210 *  7.6145484    8.8271827    8.8956222  
   9 H       9.0207851   10.9017436    4.1041531    4.1039866    2.8642461 *
  10 C       2.7917371 *  1.3829037 *  6.4251582    6.4855617    7.7865935  
  11 C       1.3866068 *  1.3903223 *  6.3339554    7.2459045    7.6859773  
  12 C       4.8002950    6.4081137    1.3977913 *  1.3977557 *  2.4020883 *
  13 C       7.3114503    9.1322902    2.3975415 *  2.3974512 *  1.3898149 *
  14 O       4.7567829    4.2177603    5.9770620    4.9773586    7.1406532  
  15 O       4.1488881    2.3759613 *  7.4133504    7.0889284    8.7378576  
  16 O       2.3727161 *  2.3759315 *  7.2685405    8.4304711    8.5725986  
  17 O       8.6001354   10.4758556    3.6348027    3.6347048    2.3781911 *
  18 C       3.7466443    3.7633291    4.8871516    4.2449990    6.1197708  
  19 C       3.6215293    4.9790939    2.4893631 *  2.4894575 *  3.7518265  
  20 C       2.4107543 *  2.4042340 *  5.0670234    5.1077805    6.4164596  
  21 C       1.3858153 *  2.7888429 *  4.1691832    4.8455773    5.5464183  
  22 O       2.3785955 *  4.1387367    2.8216671 *  3.6954687    4.1988420  
  23 C       4.1801723    4.8712418    3.7119525    2.8301177 *  4.8423799  
  24 H       1.0800222 *  3.3891964    4.7539112    6.2490228    6.0114576  
  25 H       5.2590346    5.8553257    4.0298221    2.4482410 *  4.9363458  
  26 H       3.3881503    1.0799494 *  8.0362513    8.4659584    9.4130483  
  27 H       4.2797592    6.4598760    1.0799341 *  3.3981187    2.1337063 *
  28 H       6.3016881    7.3310503    3.3981234    1.0799612 *  3.8592688  
  29 H       6.7323060    8.9046261    2.1327529 *  3.8592457    1.0799586 *
  30 H       8.1636214    9.5532143    3.8593000    2.1326447 *  3.3871263  

                6 C          7 H          8 H          9 H         10 C     

   1 C       7.2020537    4.6275217    2.8588312 *  9.0207851    2.7917371 *
   2 C       8.7291064    2.8630669 *  2.8619210 * 10.9017436    1.3829037 *
   3 C       2.7793872 *  7.7711373    7.6145484    4.1041531    6.4251582  
   4 C       1.3772511 *  7.3548930    8.8271827    4.1039866    6.4855617  
   5 C       2.4095102 *  9.0760581    8.8956222    2.8642461 *  7.7865935  
   6 C       0.0000000    8.7236711    9.9495675    2.8640624 *  7.8363122  
   7 H       8.7236711    0.0000000    5.7128186   11.1980754    1.9607068 *
   8 H       9.9495675    5.7128186    0.0000000   11.6950536    4.1081960  
   9 H       2.8640624 * 11.1980754   11.6950536    0.0000000   10.1997587  
  10 C       7.8363122    1.9607068 *  4.1081960   10.1997587    0.0000000  
  11 C       8.4505100    4.1147173    1.9611145 * 10.3693539    2.4035883 *
  12 C       2.4020978 *  6.7850672    7.5627243    4.6074468    5.6405214  
  13 C       1.3897607 *  9.5023012    9.9836026    1.9611158 *  8.4107659  
  14 O       6.3308282    2.7644055 *  6.7846851    9.0188572    2.8382461 *
  15 O       8.4654024    0.9670362 *  5.1713413   10.9849165    1.3571512 *
  16 O       9.5739758    5.1728943    0.9669999 * 11.3074344    3.6392139  
  17 O       2.3781151 * 10.8434502   11.2288336    0.9670768 *  9.7680863  
  18 C       5.6222464    3.1822461    6.0590312    8.2042696    2.5043250 *
  19 C       3.7518984    5.3611165    6.3911115    6.0617009    4.1662881  
  20 C       6.4485663    2.8765781 *  4.6073422    8.8067725    1.4002569 *
  21 C       6.0693532    4.1417427    4.1072996    8.1368653    2.4327472 *
  22 O       4.8273512    5.1952451    5.1714245    6.8036771    3.6613929  
  23 C       4.2073293    4.5588295    6.8001245    6.8147448    3.7611140  
  24 H       7.2474536    5.6920678    2.9862123 *  8.7745936    3.8717095  
  25 H       3.7631100    5.1696876    7.8653225    6.5122071    4.6609686  
  26 H       9.7810727    2.9955516 *  2.9901826 * 11.9762229    2.1374388 *
  27 H       3.8593121    7.6421547    6.7967110    4.9373169    6.1316002  
  28 H       2.1337055 *  6.8729640    9.0313105    4.9379956    6.2433455  
  29 H       3.3870850    9.8811238    9.1606228    2.9948915 *  8.4921951  
  30 H       1.0799352 *  9.3004945   10.9166206    2.9947205 *  8.5728537  

               11 C         12 C         13 C         14 O         15 O     

   1 C       1.3866068 *  4.8002950    7.3114503    4.7567829    4.1488881  
   2 C       1.3903223 *  6.4081137    9.1322902    4.2177603    2.3759613 *
   3 C       6.3339554    1.3977913 *  2.3975415 *  5.9770620    7.4133504  
   4 C       7.2459045    1.3977557 *  2.3974512 *  4.9773586    7.0889284  
   5 C       7.6859773    2.4020883 *  1.3898149 *  7.1406532    8.7378576  
   6 C       8.4505100    2.4020978 *  1.3897607 *  6.3308282    8.4654024  
   7 H       4.1147173    6.7850672    9.5023012    2.7644055 *  0.9670362 *
   8 H       1.9611145 *  7.5627243    9.9836026    6.7846851    5.1713413  
   9 H      10.3693539    4.6074468    1.9611158 *  9.0188572   10.9849165  
  10 C       2.4035883 *  5.6405214    8.4107659    2.8382461 *  1.3571512 *
  11 C       0.0000000    6.0552025    8.6461222    5.0022691    3.6446888  
  12 C       6.0552025    0.0000000    2.7710026 *  4.7391613    6.4577586  
  13 C       8.6461222    2.7710026 *  0.0000000    7.2946530    9.2066112  
  14 O       5.0022691    4.7391613    7.2946530    0.0000000    2.5687270 *
  15 O       3.6446888    6.4577586    9.2066112    2.5687270 *  0.0000000  
  16 O       1.3575485 *  7.1725924    9.6404820    6.3381847    4.7518451  
  17 O       9.9509159    4.1285370    1.3575344 *  8.5954796   10.5575193  
  18 C       4.2434309    3.7457115    6.4304126    1.2204287 *  2.8500704 *
  19 C       4.7594475    1.4750448 *  4.2460474    3.5147155    5.0044942  
  20 C       2.7709809 *  4.2408627    7.0115235    2.3508095 *  2.3910729 *
  21 C       2.4014249 *  3.6899714    6.3650749    3.5922985    3.6729165  
  22 O       3.6397081    2.4254627 *  5.0312948    4.0017793    4.7748303  
  23 C       5.0358509    2.4404243 *  5.0432108    2.2991335 *  4.2605885  
  24 H       2.1414260 *  4.8928726    7.1494853    5.7012061    5.2288567  
  25 H       6.1000253    2.6379067 *  4.8323501    2.5950923 *  4.9460344  
  26 H       2.1441023 *  7.4764027   10.2080981    4.8934284    2.6159749 *
  27 H       5.6658173    2.1521894 *  3.3772493    6.1779735    7.2521383  
  28 H       7.3536177    2.1521322 *  3.3771918    4.3283029    6.6516030  
  29 H       8.1189041    3.3824379    2.1439332 *  8.0873185    9.5269770  
  30 H       9.3709297    3.3823656    2.1439510 *  6.7850159    9.0796568  

               16 O         17 O         18 C         19 C         20 C     

   1 C       2.3727161 *  8.6001354    3.7466443    3.6215293    2.4107543 *
   2 C       2.3759315 * 10.4758556    3.7633291    4.9790939    2.4042340 *
   3 C       7.2685405    3.6348027    4.8871516    2.4893631 *  5.0670234  
   4 C       8.4304711    3.6347048    4.2449990    2.4894575 *  5.1077805  
   5 C       8.5725986    2.3781911 *  6.1197708    3.7518265    6.4164596  
   6 C       9.5739758    2.3781151 *  5.6222464    3.7518984    6.4485663  
   7 H       5.1728943   10.8434502    3.1822461    5.3611165    2.8765781 *
   8 H       0.9669999 * 11.2288336    6.0590312    6.3911115    4.6073422  
   9 H      11.3074344    0.9670768 *  8.2042696    6.0617009    8.8067725  
  10 C       3.6392139    9.7680863    2.5043250 *  4.1662881    1.4002569 *
  11 C       1.3575485 *  9.9509159    4.2434309    4.7594475    2.7709809 *
  12 C       7.1725924    4.1285370    3.7457115    1.4750448 *  4.2408627  
  13 C       9.6404820    1.3575344 *  6.4304126    4.2460474    7.0115235  
  14 O       6.3381847    8.5954796    1.2204287 *  3.5147155    2.3508095 *
  15 O       4.7518451   10.5575193    2.8500704 *  5.0044942    2.3910729 *
  16 O       0.0000000   10.9028132    5.6009585    5.9683630    4.1285268  
  17 O      10.9028132    0.0000000    7.7678166    5.6035818    8.3689733  
  18 C       5.6009585    7.7678166    0.0000000    2.3981051 *  1.4727547 *
  19 C       5.9683630    5.6035818    2.3981051 *  0.0000000    2.7662766 *
  20 C       4.1285268    8.3689733    1.4727547 *  2.7662766 *  0.0000000  
  21 C       3.6381994    7.7004245    2.4739207 *  2.3580599 *  1.4057192 *
  22 O       4.7511398    6.3590905    2.7813612 *  1.3425180 *  2.3839312 *
  23 C       6.3571730    6.3703306    1.4150674 *  1.3602906 *  2.4677000 *
  24 H       2.6098933 *  8.3685800    4.6130273    3.9670078    3.3927090  
  25 H       7.4289054    6.0817115    2.1696935 *  2.1203169 *  3.4600235  
  26 H       2.6125612 * 11.5532133    4.6384289    6.0368920    3.3853944  
  27 H       6.4719397    4.5087835    5.0022471    2.6997847 *  4.8614151  
  28 H       8.6170273    4.5087097    3.8230865    2.6998824 *  4.9364429  
  29 H       8.8733598    2.6168767 *  7.0165099    4.6202859    7.1611046  
  30 H      10.5352566    2.6169051 *  6.2337159    4.6202754    7.2119828  

               21 C         22 O         23 C         24 H         25 H     

   1 C       1.3858153 *  2.3785955 *  4.1801723    1.0800222 *  5.2590346  
   2 C       2.7888429 *  4.1387367    4.8712418    3.3891964    5.8553257  
   3 C       4.1691832    2.8216671 *  3.7119525    4.7539112    4.0298221  
   4 C       4.8455773    3.6954687    2.8301177 *  6.2490228    2.4482410 *
   5 C       5.5464183    4.1988420    4.8423799    6.0114576    4.9363458  
   6 C       6.0693532    4.8273512    4.2073293    7.2474536    3.7631100  
   7 H       4.1417427    5.1952451    4.5588295    5.6920678    5.1696876  
   8 H       4.1072996    5.1714245    6.8001245    2.9862123 *  7.8653225  
   9 H       8.1368653    6.8036771    6.8147448    8.7745936    6.5122071  
  10 C       2.4327472 *  3.6613929    3.7611140    3.8717095    4.6609686  
  11 C       2.4014249 *  3.6397081    5.0358509    2.1414260 *  6.1000253  
  12 C       3.6899714    2.4254627 *  2.4404243 *  4.8928726    2.6379067 *
  13 C       6.3650749    5.0312948    5.0432108    7.1494853    4.8323501  
  14 O       3.5922985    4.0017793    2.2991335 *  5.7012061    2.5950923 *
  15 O       3.6729165    4.7748303    4.2605885    5.2288567    4.9460344  
  16 O       3.6381994    4.7511398    6.3571730    2.6098933 *  7.4289054  
  17 O       7.7004245    6.3590905    6.3703306    8.3685800    6.0817115  
  18 C       2.4739207 *  2.7813612 *  1.4150674 *  4.6130273    2.1696935 *
  19 C       2.3580599 *  1.3425180 *  1.3602906 *  3.9670078    2.1203169 *
  20 C       1.4057192 *  2.3839312 *  2.4677000 *  3.3927090    3.4600235  
  21 C       0.0000000    1.3499569 *  2.7946254 *  2.1407871 *  3.8738722  
  22 O       1.3499569 *  0.0000000    2.3698063 *  2.6260589 *  3.3404616  
  23 C       2.7946254 *  2.3698063 *  0.0000000    4.7985961    1.0799330 *
  24 H       2.1407871 *  2.6260589 *  4.7985961    0.0000000    5.8515019  
  25 H       3.8738722    3.3404616    1.0799330 *  5.8515019    0.0000000  
  26 H       3.8687426    5.2186623    5.8420154    4.2761749    6.7828805  
  27 H       3.7376730    2.4808508 *  4.0498508    3.8891093    4.6037130  
  28 H       4.9788955    4.0322702    2.4827339 *  6.6569854    1.7359332 *
  29 H       6.1515531    4.8376594    5.8014406    6.2668407    5.9749513  
  30 H       6.9730066    5.7855272    4.8428787    8.2681952    4.1929247  

               26 H         27 H         28 H         29 H         30 H     

   1 C       3.3881503    4.2797592    6.3016881    6.7323060    8.1636214  
   2 C       1.0799494 *  6.4598760    7.3310503    8.9046261    9.5532143  
   3 C       8.0362513    1.0799341 *  3.3981234    2.1327529 *  3.8593000  
   4 C       8.4659584    3.3981187    1.0799612 *  3.8592457    2.1326447 *
   5 C       9.4130483    2.1337063 *  3.8592688    1.0799586 *  3.3871263  
   6 C       9.7810727    3.8593121    2.1337055 *  3.3870850    1.0799352 *
   7 H       2.9955516 *  7.6421547    6.8729640    9.8811238    9.3004945  
   8 H       2.9901826 *  6.7967110    9.0313105    9.1606228   10.9166206  
   9 H      11.9762229    4.9373169    4.9379956    2.9948915 *  2.9947205 *
  10 C       2.1374388 *  6.1316002    6.2433455    8.4921951    8.5728537  
  11 C       2.1441023 *  5.6658173    7.3536177    8.1189041    9.3709297  
  12 C       7.4764027    2.1521894 *  2.1521322 *  3.3824379    3.3823656  
  13 C      10.2080981    3.3772493    3.3771918    2.1439332 *  2.1439510 *
  14 O       4.8934284    6.1779735    4.3283029    8.0873185    6.7850159  
  15 O       2.6159749 *  7.2521383    6.6516030    9.5269770    9.0796568  
  16 O       2.6125612 *  6.4719397    8.6170273    8.8733598   10.5352566  
  17 O      11.5532133    4.5087835    4.5087097    2.6168767 *  2.6169051 *
  18 C       4.6384289    5.0022471    3.8230865    7.0165099    6.2337159  
  19 C       6.0368920    2.6997847 *  2.6998824 *  4.6202859    4.6202754  
  20 C       3.3853944    4.8614151    4.9364429    7.1611046    7.2119828  
  21 C       3.8687426    3.7376730    4.9788955    6.1515531    6.9730066  
  22 O       5.2186623    2.4808508 *  4.0322702    4.8376594    5.7855272  
  23 C       5.8420154    4.0498508    2.4827339 *  5.8014406    4.8428787  
  24 H       4.2761749    3.8891093    6.6569854    6.2668407    8.2681952  
  25 H       6.7828805    4.6037130    1.7359332 *  5.9749513    4.1929247  
  26 H       0.0000000    7.5253505    8.3194079    9.9745573   10.5843504  
  27 H       7.5253505    0.0000000    4.2919213    2.4573072 *  4.9392268  
  28 H       8.3194079    4.2919213    0.0000000    4.9392067    2.4571762 *
  29 H       9.9745573    2.4573072 *  4.9392067    0.0000000    4.2773005  
  30 H      10.5843504    4.9392268    2.4571762 *  4.2773005    0.0000000  

  * ... LESS THAN  3.000


     ATOMIC BASIS SET
     ----------------
 THE CONTRACTED PRIMITIVE FUNCTIONS HAVE BEEN UNNORMALIZED
 THE CONTRACTED BASIS FUNCTIONS ARE NOW NORMALIZED TO UNITY

  SHELL TYPE  PRIMITIVE        EXPONENT          CONTRACTION COEFFICIENT(S)

 C         

      1   S       1           172.2560000    0.061766907377
      1   S       2            25.9109000    0.358794042852
      1   S       3             5.5333500    0.700713083689

      2   L       4             3.6649800   -0.395895162119    0.236459946619
      2   L       5             0.7705450    1.215834355681    0.860618805716

      3   L       6             0.1958570    1.000000000000    1.000000000000

 C         

      4   S       7           172.2560000    0.061766907377
      4   S       8            25.9109000    0.358794042852
      4   S       9             5.5333500    0.700713083689

      5   L      10             3.6649800   -0.395895162119    0.236459946619
      5   L      11             0.7705450    1.215834355681    0.860618805716

      6   L      12             0.1958570    1.000000000000    1.000000000000

 C         

      7   S      13           172.2560000    0.061766907377
      7   S      14            25.9109000    0.358794042852
      7   S      15             5.5333500    0.700713083689

      8   L      16             3.6649800   -0.395895162119    0.236459946619
      8   L      17             0.7705450    1.215834355681    0.860618805716

      9   L      18             0.1958570    1.000000000000    1.000000000000

 C         

     10   S      19           172.2560000    0.061766907377
     10   S      20            25.9109000    0.358794042852
     10   S      21             5.5333500    0.700713083689

     11   L      22             3.6649800   -0.395895162119    0.236459946619
     11   L      23             0.7705450    1.215834355681    0.860618805716

     12   L      24             0.1958570    1.000000000000    1.000000000000

 C         

     13   S      25           172.2560000    0.061766907377
     13   S      26            25.9109000    0.358794042852
     13   S      27             5.5333500    0.700713083689

     14   L      28             3.6649800   -0.395895162119    0.236459946619
     14   L      29             0.7705450    1.215834355681    0.860618805716

     15   L      30             0.1958570    1.000000000000    1.000000000000

 C         

     16   S      31           172.2560000    0.061766907377
     16   S      32            25.9109000    0.358794042852
     16   S      33             5.5333500    0.700713083689

     17   L      34             3.6649800   -0.395895162119    0.236459946619
     17   L      35             0.7705450    1.215834355681    0.860618805716

     18   L      36             0.1958570    1.000000000000    1.000000000000

 H         

     19   S      37             5.4471780    0.156284978695
     19   S      38             0.8245472    0.904690876670

     20   S      39             0.1831916    1.000000000000

 H         

     21   S      40             5.4471780    0.156284978695
     21   S      41             0.8245472    0.904690876670

     22   S      42             0.1831916    1.000000000000

 H         

     23   S      43             5.4471780    0.156284978695
     23   S      44             0.8245472    0.904690876670

     24   S      45             0.1831916    1.000000000000

 C         

     25   S      46           172.2560000    0.061766907377
     25   S      47            25.9109000    0.358794042852
     25   S      48             5.5333500    0.700713083689

     26   L      49             3.6649800   -0.395895162119    0.236459946619
     26   L      50             0.7705450    1.215834355681    0.860618805716

     27   L      51             0.1958570    1.000000000000    1.000000000000

 C         

     28   S      52           172.2560000    0.061766907377
     28   S      53            25.9109000    0.358794042852
     28   S      54             5.5333500    0.700713083689

     29   L      55             3.6649800   -0.395895162119    0.236459946619
     29   L      56             0.7705450    1.215834355681    0.860618805716

     30   L      57             0.1958570    1.000000000000    1.000000000000

 C         

     31   S      58           172.2560000    0.061766907377
     31   S      59            25.9109000    0.358794042852
     31   S      60             5.5333500    0.700713083689

     32   L      61             3.6649800   -0.395895162119    0.236459946619
     32   L      62             0.7705450    1.215834355681    0.860618805716

     33   L      63             0.1958570    1.000000000000    1.000000000000

 C         

     34   S      64           172.2560000    0.061766907377
     34   S      65            25.9109000    0.358794042852
     34   S      66             5.5333500    0.700713083689

     35   L      67             3.6649800   -0.395895162119    0.236459946619
     35   L      68             0.7705450    1.215834355681    0.860618805716

     36   L      69             0.1958570    1.000000000000    1.000000000000

 O         

     37   S      70           322.0370000    0.059239393389
     37   S      71            48.4308000    0.351499960776
     37   S      72            10.4206000    0.707657921031

     38   L      73             7.4029400   -0.404453583190    0.244586106967
     38   L      74             1.5762000    1.221561761397    0.853955373466

     39   L      75             0.3736840    1.000000000000    1.000000000000

 O         

     40   S      76           322.0370000    0.059239393389
     40   S      77            48.4308000    0.351499960776
     40   S      78            10.4206000    0.707657921031

     41   L      79             7.4029400   -0.404453583190    0.244586106967
     41   L      80             1.5762000    1.221561761397    0.853955373466

     42   L      81             0.3736840    1.000000000000    1.000000000000

 O         

     43   S      82           322.0370000    0.059239393389
     43   S      83            48.4308000    0.351499960776
     43   S      84            10.4206000    0.707657921031

     44   L      85             7.4029400   -0.404453583190    0.244586106967
     44   L      86             1.5762000    1.221561761397    0.853955373466

     45   L      87             0.3736840    1.000000000000    1.000000000000

 O         

     46   S      88           322.0370000    0.059239393389
     46   S      89            48.4308000    0.351499960776
     46   S      90            10.4206000    0.707657921031

     47   L      91             7.4029400   -0.404453583190    0.244586106967
     47   L      92             1.5762000    1.221561761397    0.853955373466

     48   L      93             0.3736840    1.000000000000    1.000000000000

 C         

     49   S      94           172.2560000    0.061766907377
     49   S      95            25.9109000    0.358794042852
     49   S      96             5.5333500    0.700713083689

     50   L      97             3.6649800   -0.395895162119    0.236459946619
     50   L      98             0.7705450    1.215834355681    0.860618805716

     51   L      99             0.1958570    1.000000000000    1.000000000000

 C         

     52   S     100           172.2560000    0.061766907377
     52   S     101            25.9109000    0.358794042852
     52   S     102             5.5333500    0.700713083689

     53   L     103             3.6649800   -0.395895162119    0.236459946619
     53   L     104             0.7705450    1.215834355681    0.860618805716

     54   L     105             0.1958570    1.000000000000    1.000000000000

 C         

     55   S     106           172.2560000    0.061766907377
     55   S     107            25.9109000    0.358794042852
     55   S     108             5.5333500    0.700713083689

     56   L     109             3.6649800   -0.395895162119    0.236459946619
     56   L     110             0.7705450    1.215834355681    0.860618805716

     57   L     111             0.1958570    1.000000000000    1.000000000000

 C         

     58   S     112           172.2560000    0.061766907377
     58   S     113            25.9109000    0.358794042852
     58   S     114             5.5333500    0.700713083689

     59   L     115             3.6649800   -0.395895162119    0.236459946619
     59   L     116             0.7705450    1.215834355681    0.860618805716

     60   L     117             0.1958570    1.000000000000    1.000000000000

 O         

     61   S     118           322.0370000    0.059239393389
     61   S     119            48.4308000    0.351499960776
     61   S     120            10.4206000    0.707657921031

     62   L     121             7.4029400   -0.404453583190    0.244586106967
     62   L     122             1.5762000    1.221561761397    0.853955373466

     63   L     123             0.3736840    1.000000000000    1.000000000000

 C         

     64   S     124           172.2560000    0.061766907377
     64   S     125            25.9109000    0.358794042852
     64   S     126             5.5333500    0.700713083689

     65   L     127             3.6649800   -0.395895162119    0.236459946619
     65   L     128             0.7705450    1.215834355681    0.860618805716

     66   L     129             0.1958570    1.000000000000    1.000000000000

 H         

     67   S     130             5.4471780    0.156284978695
     67   S     131             0.8245472    0.904690876670

     68   S     132             0.1831916    1.000000000000

 H         

     69   S     133             5.4471780    0.156284978695
     69   S     134             0.8245472    0.904690876670

     70   S     135             0.1831916    1.000000000000

 H         

     71   S     136             5.4471780    0.156284978695
     71   S     137             0.8245472    0.904690876670

     72   S     138             0.1831916    1.000000000000

 H         

     73   S     139             5.4471780    0.156284978695
     73   S     140             0.8245472    0.904690876670

     74   S     141             0.1831916    1.000000000000

 H         

     75   S     142             5.4471780    0.156284978695
     75   S     143             0.8245472    0.904690876670

     76   S     144             0.1831916    1.000000000000

 H         

     77   S     145             5.4471780    0.156284978695
     77   S     146             0.8245472    0.904690876670

     78   S     147             0.1831916    1.000000000000

 H         

     79   S     148             5.4471780    0.156284978695
     79   S     149             0.8245472    0.904690876670

     80   S     150             0.1831916    1.000000000000

 TOTAL NUMBER OF BASIS SET SHELLS             =   80
 NUMBER OF CARTESIAN GAUSSIAN BASIS FUNCTIONS =  200
 NUMBER OF ELECTRONS                          =  139
 CHARGE OF MOLECULE                           =    1
 SPIN MULTIPLICITY                            =    2
 NUMBER OF OCCUPIED ORBITALS (ALPHA)          =   70
 NUMBER OF OCCUPIED ORBITALS (BETA )          =   69
 TOTAL NUMBER OF ATOMS                        =   30
 THE NUCLEAR REPULSION ENERGY IS     1429.8952632900

     $CONTRL OPTIONS
     ---------------
 SCFTYP=UHF          RUNTYP=ENERGY       EXETYP=RUN     
 MPLEVL=       0     CITYP =NONE         CCTYP =NONE         VBTYP =NONE    
 DFTTYP=NONE         TDDFT =NONE    
 MULT  =       2     ICHARG=       1     NZVAR =       0     COORD =UNIQUE  
 PP    =NONE         RELWFN=NONE         LOCAL =NONE         NUMGRD=       F
 ISPHER=      -1     NOSYM =       0     MAXIT =      60     UNITS =ANGS    
 PLTORB=       F     MOLPLT=       F     AIMPAC=       F     FRIEND=        
 NPRINT=       7     IREST =       0     GEOM  =INPUT   
 NORMF =       0     NORMP =       0     ITOL  =      20     ICUT  =       9
 INTTYP=BEST         GRDTYP=BEST         QMTTOL= 1.0E-06

     $SYSTEM OPTIONS
     ---------------
  REPLICATED MEMORY=    30000000 WORDS (ON EVERY NODE).
 DISTRIBUTED MEMDDI=        1000 MILLION WORDS IN AGGREGATE,
 MEMDDI DISTRIBUTED OVER   6 PROCESSORS IS   166666666 WORDS/PROCESSOR.
 TOTAL MEMORY REQUESTED ON EACH PROCESSOR=   196666666 WORDS.
 TIMLIM=      525600.00 MINUTES, OR     365.0 DAYS.
 PARALL= T  BALTYP=  DLB     KDIAG=    0  COREFL= F
 MXSEQ2=     300 MXSEQ3=     150  mem10=         0

          ----------------
          PROPERTIES INPUT
          ----------------

     MOMENTS            FIELD           POTENTIAL          DENSITY
 IEMOM =       1   IEFLD =       0   IEPOT =       0   IEDEN =       0
 WHERE =COMASS     WHERE =NUCLEI     WHERE =NUCLEI     WHERE =NUCLEI  
 OUTPUT=BOTH       OUTPUT=BOTH       OUTPUT=BOTH       OUTPUT=BOTH    
 IEMINT=       0   IEFINT=       0                     IEDINT=       0
                                                       MORB  =       0
          EXTRAPOLATION IN EFFECT
          SOSCF IN EFFECT
          DIIS or SOSCF will be reset if energy rises
 ORBITAL PRINTING OPTION: NPREO=     1   200     2     1

     -------------------------------
     INTEGRAL TRANSFORMATION OPTIONS
     -------------------------------
     NWORD  =            0
     CUTOFF = 1.0E-09     MPTRAN =       0
     DIRTRF =       T     AOINTS =DUP     

          ----------------------
          INTEGRAL INPUT OPTIONS
          ----------------------
 NOPK  =       1 NORDER=       0 SCHWRZ=       T

     ------------------------------------------
     THE POINT GROUP IS C1 , NAXIS= 0, ORDER= 1
     ------------------------------------------

     DIMENSIONS OF THE SYMMETRY SUBSPACES ARE
 A   =  200

 ..... DONE SETTING UP THE RUN .....
 CPU     0: STEP CPU TIME=     0.02 TOTAL CPU TIME=          0.0 (      0.0 MIN)
 TOTAL WALL CLOCK TIME=          0.0 SECONDS, CPU UTILIZATION IS    66.67%

          ********************
          1 ELECTRON INTEGRALS
          ********************
 ...... END OF ONE-ELECTRON INTEGRALS ......
 CPU     0: STEP CPU TIME=     0.01 TOTAL CPU TIME=          0.0 (      0.0 MIN)
 TOTAL WALL CLOCK TIME=          0.0 SECONDS, CPU UTILIZATION IS    75.00%

          -------------
          GUESS OPTIONS
          -------------
          GUESS =HUCKEL            NORB  =       0          NORDER=       0
          MIX   =       F          PRTMO =       F          PUNMO =       F
          TOLZ  = 1.0E-08          TOLE  = 1.0E-05
          SYMDEN=       F          PURIFY=       F

 INITIAL GUESS ORBITALS GENERATED BY HUCKEL   ROUTINE.
 HUCKEL GUESS REQUIRES    361410 WORDS.

 SYMMETRIES FOR INITIAL GUESS ORBITALS FOLLOW.  ALPHA SET(S).
    70 ORBITALS ARE OCCUPIED (   20 CORE ORBITALS).
    21=A       22=A       23=A       24=A       25=A       26=A       27=A   
    28=A       29=A       30=A       31=A       32=A       33=A       34=A   
    35=A       36=A       37=A       38=A       39=A       40=A       41=A   
    42=A       43=A       44=A       45=A       46=A       47=A       48=A   
    49=A       50=A       51=A       52=A       53=A       54=A       55=A   
    56=A       57=A       58=A       59=A       60=A       61=A       62=A   
    63=A       64=A       65=A       66=A       67=A       68=A       69=A   
    70=A       71=A       72=A       73=A       74=A       75=A       76=A   
    77=A       78=A       79=A       80=A   

 SYMMETRIES FOR INITIAL GUESS ORBITALS FOLLOW.   BETA SET(S).
    69 ORBITALS ARE OCCUPIED (   20 CORE ORBITALS).
    21=A       22=A       23=A       24=A       25=A       26=A       27=A   
    28=A       29=A       30=A       31=A       32=A       33=A       34=A   
    35=A       36=A       37=A       38=A       39=A       40=A       41=A   
    42=A       43=A       44=A       45=A       46=A       47=A       48=A   
    49=A       50=A       51=A       52=A       53=A       54=A       55=A   
    56=A       57=A       58=A       59=A       60=A       61=A       62=A   
    63=A       64=A       65=A       66=A       67=A       68=A       69=A   
    70=A       71=A       72=A       73=A       74=A       75=A       76=A   
    77=A       78=A       79=A   
 ...... END OF INITIAL ORBITAL SELECTION ......
 CPU     0: STEP CPU TIME=     0.07 TOTAL CPU TIME=          0.1 (      0.0 MIN)
 TOTAL WALL CLOCK TIME=          0.1 SECONDS, CPU UTILIZATION IS    71.43%

                    ----------------------
                    AO INTEGRAL TECHNOLOGY
                    ----------------------
     S,P,L SHELL ROTATED AXIS INTEGRALS, REPROGRAMMED BY
        KAZUYA ISHIMURA (IMS) AND JOSE SIERRA (SYNSTAR).
     S,P,D,L SHELL ROTATED AXIS INTEGRALS PROGRAMMED BY
        KAZUYA ISHIMURA (INSTITUTE FOR MOLECULAR SCIENCE).
     S,P,D,F,G SHELL TO TOTAL QUARTET ANGULAR MOMENTUM SUM 5,
        ERIC PROGRAM BY GRAHAM FLETCHER (ELORET AND NASA ADVANCED
        SUPERCOMPUTING DIVISION, AMES RESEARCH CENTER).
     S,P,D,F,G,L SHELL GENERAL RYS QUADRATURE PROGRAMMED BY
        MICHEL DUPUIS (PACIFIC NORTHWEST NATIONAL LABORATORY).

          --------------------
          2 ELECTRON INTEGRALS
          --------------------

 DIRECT SCF METHOD SKIPS INTEGRAL STORAGE ON DISK.
 DIRECT TRANSFORMATION SKIPS AO INTEGRAL STORAGE ON DISK.
  ...... END OF TWO-ELECTRON INTEGRALS .....
 CPU     0: STEP CPU TIME=     0.02 TOTAL CPU TIME=          0.1 (      0.0 MIN)
 TOTAL WALL CLOCK TIME=          0.2 SECONDS, CPU UTILIZATION IS    75.00%

          ---------------------------
                  UHF SCF CALCULATION
          ---------------------------

     NUCLEAR ENERGY =      1429.8952632900
     MAXIT = 60     NPUNCH=  2     MULT=  2
     EXTRAP=T  DAMP=F  SHIFT=F  RSTRCT=F  DIIS=F  SOSCF=T
     DENSITY MATRIX CONV=  2.00E-05
     SOSCF WILL OPTIMIZE    9100 ALPHA AND    9039 BETA ROTATION ANGLES.
     SOGTOL= 2.500E-01
     MEMORY REQUIRED FOR UHF/ROHF ITERS=    581009 WORDS.

 DIRECT SCF CALCULATION, SCHWRZ=T   FDIFF=T
 SCHWARZ INEQUALITY OVERHEAD:     15600 INTEGRALS, T=        0.00

                                                                                NONZERO     BLOCKS
 ITER EX      TOTAL ENERGY        E CHANGE  DENSITY CHANGE    ORB. GRAD       INTEGRALS    SKIPPED
   1  0     -940.1406223927  -940.1406223927   0.763543884   0.000000000       53990272    4053212
          ---------------START SECOND ORDER SCF---------------
   2  1     -942.2727317073    -2.1321093146   0.339146543   0.101510929       53949590    4069807
   3  2     -942.3830252740    -0.1102935667   0.128857009   0.095481196       53673224    4135197
   4  3     -942.5770677036    -0.1940424296   0.053211025   0.022658077       53261680    4186650
   5  4     -942.5902924462    -0.0132247426   0.013201218   0.010305243       52670145    4235895
   6  5     -942.5921562770    -0.0018638308   0.010068883   0.001804854       51598831    4303949
   7  6     -942.5923445163    -0.0001882393   0.003346087   0.001141533       50264905    4365612
   8  7     -942.5923897939    -0.0000452776   0.001462172   0.000434833       49234487    4407088
   9  8     -942.5924040291    -0.0000142352   0.002200128   0.000368447       48334579    4442973
  10  9     -942.5924185244    -0.0000144953   0.003248219   0.000354518       48815327    4426336
  11 10     -942.5924361231    -0.0000175987   0.008241657   0.000448470       49236852    4411697
  12 11     -942.5924745507    -0.0000384276   0.018309388   0.000769852       50418476    4364931
  13 12     -942.5925531490    -0.0000785983   0.040740038   0.001131280       51366939    4319697
  14 13     -942.5926845823    -0.0001314333   0.012792181   0.001969280       52275303    4268341
  15 14     -942.5928527824    -0.0001682001   0.048739161   0.001904514       51071133    4332799
  16 15     -942.5933667473    -0.0005139649   0.032274177   0.002006955       52635972    4241122
  17 16     -942.5934561027    -0.0000893554   0.012605550   0.002149904       52131750    4277373
  18 17     -942.5936596868    -0.0002035841   0.017843173   0.001306769       51363450    4320682
  19 18     -942.5938158273    -0.0001561406   0.013960240   0.000951089       51434881    4315219
  20 19     -942.5939558885    -0.0001400611   0.009762099   0.001103852       50909326    4342546
  21 20     -942.5940443765    -0.0000884880   0.008588283   0.001313633       50583927    4358284
  22 21     -942.5941330290    -0.0000886525   0.007898639   0.000970150       50776506    4349008
  23 22     -942.5942083807    -0.0000753517   0.004282450   0.000646808       50821921    4348045
  24 23     -942.5942496801    -0.0000412994   0.003762970   0.000617599       50167574    4377325
  25 24     -942.5942745831    -0.0000249030   0.003478916   0.000442658       49646574    4398443
  26 25     -942.5942911000    -0.0000165169   0.003645915   0.000512704       49236483    4413838
  27 26     -942.5943062143    -0.0000151143   0.003436055   0.000313251       49282630    4412277
  28 27     -942.5943163259    -0.0000101116   0.002921486   0.000207419       49150023    4416880
  29 28     -942.5943206624    -0.0000043365   0.001120674   0.000109922       48203908    4447821
  30 29     -942.5943217250    -0.0000010627   0.000303970   0.000052625       46822211    4487838
  31 30     -942.5943219198    -0.0000001948   0.000172373   0.000024472       44304761    4552071
  32 31     -942.5943219728    -0.0000000530   0.000115235   0.000017376       42217938    4601980
  33 32     -942.5943219916    -0.0000000189   0.000070837   0.000008938       41164090    4624452
  34 33     -942.5943219988    -0.0000000071   0.000041116   0.000005030       38992198    4669549
  35 34     -942.5943220012    -0.0000000024   0.000035227   0.000003779       37402141    4696877
  36 35     -942.5943220019    -0.0000000007   0.000016421   0.000001983       36717860    4713037
  37 36     -942.5943220017     0.0000000002   0.000007589   0.000000944       34215584    4758449

          -----------------
          DENSITY CONVERGED
          -----------------
     TIME TO FORM FOCK OPERATORS=      32.1 SECONDS (       0.9 SEC/ITER)
     FOCK TIME ON FIRST ITERATION=       0.9, LAST ITERATION=       0.5
     TIME TO SOLVE SCF EQUATIONS=       1.1 SECONDS (       0.0 SEC/ITER)

 FINAL UHF ENERGY IS     -942.5943220017 AFTER  37 ITERATIONS

          --------------------
          SPIN SZ   =    0.500
          S-SQUARED =    1.220
          --------------------

  ----- ALPHA SET ----- 

          ------------
          EIGENVECTORS
          ------------

                      1          2          3          4          5
                  -20.7949   -20.7401   -20.6372   -20.6115   -20.5768
                     A          A          A          A          A   
    1  C  1  S   -0.000052  -0.000226  -0.000192  -0.000305  -0.000012
    2  C  1  S   -0.000414  -0.001136  -0.000887  -0.001776  -0.000060
    3  C  1  X   -0.000223  -0.000781  -0.000321   0.000179  -0.000024
    4  C  1  Y    0.000232  -0.000058   0.000021   0.000772  -0.000003
    5  C  1  Z   -0.000001   0.000005  -0.000012   0.000020   0.000000
    6  C  1  S   -0.001759   0.022829   0.016301   0.026187   0.000934
    7  C  1  X    0.006193   0.009877   0.005025   0.003341   0.000045
    8  C  1  Y    0.000553  -0.015581  -0.011754  -0.026135  -0.000615
    9  C  1  Z   -0.000012   0.000061   0.000159  -0.000160   0.000003
   10  C  2  S    0.000055  -0.000124  -0.000315  -0.000295  -0.000002
   11  C  2  S    0.000264  -0.000584  -0.001705  -0.001709  -0.000003
   12  C  2  X   -0.000021   0.000140   0.000371   0.000673  -0.000008
   13  C  2  Y    0.000433  -0.000188  -0.000850   0.000440   0.000008
   14  C  2  Z   -0.000003   0.000002  -0.000014   0.000018  -0.000000
   15  C  2  S   -0.003439   0.009842   0.030503   0.025375   0.000301
   16  C  2  X    0.003964  -0.008519  -0.026611  -0.025377  -0.000093
   17  C  2  Y   -0.006274   0.001506   0.007878  -0.004620  -0.000085
   18  C  2  Z    0.000043   0.000005   0.000315  -0.000221   0.000002
   19  C  3  S   -0.000052  -0.000122   0.000017   0.000009   0.000216
   20  C  3  S   -0.000254  -0.000501   0.000045   0.000043   0.000792
   21  C  3  X    0.000312   0.000439  -0.000163  -0.000044   0.000841
   22  C  3  Y   -0.000076  -0.000251   0.000054  -0.000020   0.000066
   23  C  3  Z   -0.000001   0.000000   0.000000   0.000000   0.000002
   24  C  3  S    0.005709   0.012560  -0.002520  -0.000905  -0.022883
   25  C  3  X   -0.001865   0.000719   0.000355   0.000388   0.010272
   26  C  3  Y   -0.002884  -0.007237   0.001198   0.000772   0.007055
   27  C  3  Z    0.000027   0.000055  -0.000014  -0.000008  -0.000181
   28  C  4  S    0.000015   0.000084  -0.000023  -0.000001   0.000211
   29  C  4  S   -0.000026   0.000332  -0.000111   0.000004   0.000781
   30  C  4  X   -0.000170  -0.000188  -0.000001   0.000006   0.000734
   31  C  4  Y    0.000069  -0.000294   0.000006   0.000007  -0.000301
   32  C  4  Z    0.000000   0.000003   0.000001  -0.000000   0.000003
   33  C  4  S   -0.002435  -0.008200   0.001803   0.000140  -0.022348
   34  C  4  X   -0.002661  -0.007836   0.001896   0.000634   0.008867
   35  C  4  Y   -0.002171  -0.002681   0.001336  -0.000049  -0.009190
   36  C  4  Z    0.000019   0.000032  -0.000020  -0.000001  -0.000055
   37  C  5  S    0.000032   0.000061  -0.000022  -0.000005  -0.000279
   38  C  5  S    0.000148   0.000317  -0.000127  -0.000020  -0.001621
   39  C  5  X   -0.000138  -0.000200   0.000020   0.000025  -0.000717
   40  C  5  Y    0.000007  -0.000121   0.000032   0.000000   0.000390
   41  C  5  Z    0.000000   0.000001  -0.000000  -0.000000  -0.000022
   42  C  5  S   -0.002820  -0.003936   0.001252   0.000529   0.024389
   43  C  5  X   -0.000751   0.000679   0.000226   0.000064   0.014982
   44  C  5  Y    0.001216   0.003544  -0.000814  -0.000329  -0.020689
   45  C  5  Z   -0.000009  -0.000029   0.000007   0.000003   0.000412
   46  C  6  S   -0.000022  -0.000013  -0.000002   0.000001  -0.000282
   47  C  6  S   -0.000178  -0.000130  -0.000004   0.000017  -0.001643
   48  C  6  X   -0.000077  -0.000003  -0.000017   0.000017  -0.000801
   49  C  6  Y   -0.000131  -0.000187   0.000046   0.000018  -0.000152
   50  C  6  Z    0.000001   0.000001  -0.000000  -0.000000  -0.000018
   51  C  6  S   -0.000389  -0.001689   0.000524   0.000303   0.024712
   52  C  6  X   -0.000241  -0.002228   0.000581   0.000195   0.020913
   53  C  6  Y    0.001653   0.002576  -0.000744  -0.000168   0.014891
   54  C  6  Z   -0.000011  -0.000013   0.000007   0.000001   0.000147
   55  H  7  S    0.000094  -0.000022   0.002985  -0.000047   0.000002
   56  H  7  S   -0.000114  -0.000344   0.001260  -0.000241  -0.000018
   57  H  8  S   -0.000004  -0.000024  -0.000038   0.002922  -0.000002
   58  H  8  S    0.000057  -0.000175  -0.000266   0.001884  -0.000014
   59  H  9  S    0.000002   0.000004  -0.000004  -0.000000   0.002925
   60  H  9  S    0.000050   0.000071  -0.000022  -0.000010   0.001928
   61  C 10  S   -0.000241   0.000257   0.000138   0.000233  -0.000002
   62  C 10  S   -0.001047   0.001178   0.003080   0.000897  -0.000006
   63  C 10  X   -0.000570   0.000676   0.000230  -0.000177  -0.000001
   64  C 10  Y   -0.000283  -0.000146  -0.000179  -0.000783  -0.000018
   65  C 10  Z    0.000009   0.000017  -0.000037   0.000011   0.000001
   66  C 10  S    0.024486  -0.023941  -0.012748  -0.023539   0.000113
   67  C 10  X   -0.017117   0.010307   0.018971  -0.000046  -0.000247
   68  C 10  Y    0.001660  -0.008504  -0.048479  -0.012322  -0.000258
   69  C 10  Z   -0.000002   0.000015  -0.000486   0.000202  -0.000001
   70  C 11  S   -0.000034   0.000204   0.000288   0.000057   0.000004
   71  C 11  S   -0.000206   0.000877   0.001198   0.002454   0.000022
   72  C 11  X    0.000083   0.000500  -0.000108   0.000151   0.000015
   73  C 11  Y   -0.000018   0.000104   0.000756   0.000164  -0.000013
   74  C 11  Z    0.000003  -0.000012  -0.000012   0.000072  -0.000001
   75  C 11  S    0.001971  -0.017935  -0.026098  -0.007165  -0.000303
   76  C 11  X    0.004077   0.007062   0.003724   0.025667   0.000193
   77  C 11  Y   -0.004357   0.005337   0.012601   0.036453   0.000206
   78  C 11  Z    0.000015  -0.000028  -0.000196   0.000409  -0.000001
   79  C 12  S   -0.000106  -0.000022   0.000010   0.000019  -0.000122
   80  C 12  S   -0.000577  -0.000033   0.000023   0.000091  -0.000608
   81  C 12  X   -0.000108   0.000195  -0.000093   0.000006   0.000570
   82  C 12  Y    0.000441   0.001035  -0.000203  -0.000067  -0.000108
   83  C 12  Z   -0.000004  -0.000007   0.000000  -0.000000  -0.000018
   84  C 12  S    0.004714   0.007201  -0.001265  -0.001152   0.008407
   85  C 12  X    0.003821   0.004387   0.000212  -0.001372  -0.013499
   86  C 12  Y   -0.008087  -0.020169   0.004186   0.001267   0.003080
   87  C 12  Z    0.000054   0.000131  -0.000017  -0.000004   0.000104
   88  C 13  S   -0.000008  -0.000023   0.000003   0.000003   0.000048
   89  C 13  S   -0.000076  -0.000143   0.000021   0.000021   0.002380
   90  C 13  X   -0.000058  -0.000034   0.000010   0.000007  -0.000263
   91  C 13  Y    0.000093   0.000056  -0.000026  -0.000009   0.000048
   92  C 13  Z   -0.000003  -0.000004   0.000002   0.000001  -0.000078
   93  C 13  S   -0.000077   0.001211  -0.000104  -0.000162  -0.006935
   94  C 13  X    0.000678   0.001694  -0.000455  -0.000200  -0.043493
   95  C 13  Y    0.000725   0.002684  -0.000526  -0.000156   0.006301
   96  C 13  Z   -0.000003  -0.000018   0.000002   0.000001  -0.000633
   97  O 14  S    0.983775  -0.000028   0.000110   0.000059   0.000042
   98  O 14  S    0.103950  -0.000015   0.000002  -0.000063  -0.000050
   99  O 14  X   -0.001752   0.000052   0.000191   0.000100   0.000023
  100  O 14  Y    0.004438   0.000107   0.000113   0.000043   0.000008
  101  O 14  Z   -0.000058   0.000002  -0.000011   0.000003  -0.000000
  102  O 14  S   -0.070700   0.000197   0.000118   0.000471   0.000307
  103  O 14  X    0.006951  -0.000033  -0.001815  -0.000543  -0.000240
  104  O 14  Y   -0.017515  -0.000740  -0.001194  -0.000221   0.000009
  105  O 14  Z    0.000118  -0.000004   0.000063  -0.000013   0.000002
  106  O 15  S   -0.000102   0.000703   0.983874  -0.001232  -0.000058
  107  O 15  S   -0.000032   0.000418   0.101602   0.000062   0.000013
  108  O 15  X   -0.000243   0.000133  -0.001604  -0.000079  -0.000009
  109  O 15  Y   -0.000128   0.000088   0.003153  -0.000085  -0.000002
  110  O 15  Z    0.000004   0.000038  -0.002133   0.000039   0.000002
  111  O 15  S    0.000501  -0.002104  -0.062196  -0.001406  -0.000082
  112  O 15  X    0.001745  -0.000572   0.006745   0.000639   0.000057
  113  O 15  Y    0.000715  -0.000710  -0.013824   0.000270  -0.000012
  114  O 15  Z    0.000000  -0.000155   0.003084  -0.000161  -0.000006
  115  O 16  S   -0.000075   0.000179   0.001282   0.983800  -0.000058
  116  O 16  S   -0.000063   0.000135   0.000311   0.100928   0.000005
  117  O 16  X    0.000082   0.000084  -0.000064  -0.001990   0.000003
  118  O 16  Y   -0.000042  -0.000022   0.000093  -0.002774  -0.000003
  119  O 16  Z    0.000006  -0.000021  -0.000035   0.002193  -0.000002
  120  O 16  S    0.000267  -0.001005  -0.001580  -0.059152  -0.000073
  121  O 16  X   -0.000577  -0.000380   0.000493   0.008211  -0.000001
  122  O 16  Y    0.000312   0.000225  -0.000361   0.011491   0.000028
  123  O 16  Z   -0.000023   0.000087   0.000160  -0.003309   0.000007
  124  O 17  S   -0.000056  -0.000089   0.000064   0.000061   0.983795
  125  O 17  S   -0.000058  -0.000076   0.000028   0.000016   0.100898
  126  O 17  X   -0.000008  -0.000001  -0.000000   0.000002   0.003348
  127  O 17  Y    0.000028   0.000055  -0.000013  -0.000004  -0.000527
  128  O 17  Z   -0.000006  -0.000009   0.000003   0.000001  -0.002189
  129  O 17  S    0.000278   0.000396  -0.000145  -0.000059  -0.058925
  130  O 17  X    0.000100   0.000080  -0.000040  -0.000017  -0.013881
  131  O 17  Y   -0.000155  -0.000373   0.000084   0.000027   0.002142
  132  O 17  Z    0.000024   0.000036  -0.000012  -0.000005   0.003246
  133  C 18  S    0.000589  -0.000275  -0.000248  -0.000064   0.000004
  134  C 18  S    0.004361  -0.001027  -0.001032  -0.000299  -0.000007
  135  C 18  X    0.000226  -0.000024   0.000411   0.000186   0.000003
  136  C 18  Y   -0.000987   0.000781   0.000253   0.000077  -0.000047
  137  C 18  Z    0.000008  -0.000004   0.000017  -0.000003   0.000001
  138  C 18  S    0.002606   0.026848   0.021478   0.006418  -0.001130
  139  C 18  X    0.020663  -0.002911   0.011749   0.002145   0.001600
  140  C 18  Y   -0.049725   0.009177   0.012910   0.004041   0.000797
  141  C 18  Z    0.000279  -0.000045  -0.000274   0.000006  -0.000016
  142  C 19  S    0.000182  -0.000038  -0.000071  -0.000000  -0.000074
  143  C 19  S    0.000567   0.002002  -0.000464   0.000104  -0.000366
  144  C 19  X   -0.001057   0.001023   0.000012   0.000254  -0.000016
  145  C 19  Y    0.000375   0.000780  -0.000040   0.000106   0.000097
  146  C 19  Z    0.000001  -0.000008   0.000004   0.000001   0.000002
  147  C 19  S   -0.023089   0.003896   0.006159   0.002219   0.007576
  148  C 19  X    0.000826   0.020400  -0.000383  -0.001802  -0.004672
  149  C 19  Y    0.012459   0.019226  -0.006606  -0.001094  -0.001080
  150  C 19  Z   -0.000106  -0.000182   0.000017   0.000014  -0.000015
  151  C 20  S   -0.000045   0.000027  -0.000081  -0.000083   0.000005
  152  C 20  S   -0.000207   0.000168  -0.000322  -0.000382   0.000013
  153  C 20  X    0.001727  -0.001453  -0.000391  -0.000358   0.000056
  154  C 20  Y   -0.001020  -0.000528  -0.001964  -0.000528  -0.000053
  155  C 20  Z    0.000003   0.000008  -0.000029   0.000024  -0.000001
  156  C 20  S    0.010156   0.008668   0.016523   0.006079  -0.000668
  157  C 20  X   -0.040665   0.028526   0.018212   0.008533  -0.000019
  158  C 20  Y    0.012805   0.013680   0.040677   0.010434   0.001102
  159  C 20  Z    0.000008  -0.000159   0.000092  -0.000208  -0.000003
  160  C 21  S    0.000158   0.000045   0.000357   0.000225  -0.000001
  161  C 21  S    0.000413   0.002474   0.001778   0.000830  -0.000049
  162  C 21  X   -0.000022  -0.001079  -0.000489  -0.000536   0.000127
  163  C 21  Y    0.000650   0.000027   0.000805  -0.000346   0.000054
  164  C 21  Z   -0.000004   0.000001   0.000004  -0.000004  -0.000001
  165  C 21  S   -0.018041  -0.002478  -0.029970  -0.023047  -0.000841
  166  C 21  X    0.001609  -0.034688  -0.018650  -0.012289  -0.001036
  167  C 21  Y    0.015947  -0.005433   0.005479  -0.005697  -0.000359
  168  C 21  Z   -0.000126   0.000122  -0.000161   0.000199   0.000004
  169  O 22  S    0.000006   0.984168  -0.000607  -0.000142   0.000072
  170  O 22  S   -0.000066   0.104182   0.000319   0.000118  -0.000056
  171  O 22  X   -0.000131   0.001561   0.000245  -0.000096  -0.000048
  172  O 22  Y    0.000191  -0.003661   0.000264  -0.000091   0.000052
  173  O 22  Z   -0.000002   0.000024  -0.000011   0.000006  -0.000002
  174  O 22  S    0.000649  -0.072059  -0.002564  -0.001186   0.000359
  175  O 22  X    0.001797  -0.005613  -0.002295   0.000069   0.000116
  176  O 22  Y   -0.001478   0.012064  -0.001299   0.000592  -0.000300
  177  O 22  Z    0.000010  -0.000076   0.000059  -0.000032   0.000011
  178  C 23  S   -0.000267   0.000255   0.000042   0.000025  -0.000005
  179  C 23  S   -0.001462   0.001404   0.000167   0.000145  -0.000033
  180  C 23  X    0.000307   0.000307  -0.000207  -0.000056  -0.000136
  181  C 23  Y   -0.000967   0.000528   0.000332   0.000160   0.000005
  182  C 23  Z    0.000006  -0.000004  -0.000005   0.000000  -0.000002
  183  C 23  S    0.026949  -0.003605  -0.003151  -0.001112   0.000115
  184  C 23  X    0.007187  -0.017370   0.002693   0.000290   0.002639
  185  C 23  Y    0.025273  -0.004670  -0.008160  -0.001916  -0.001046
  186  C 23  Z   -0.000203   0.000073   0.000106   0.000000   0.000016
  187  H 24  S    0.000303   0.001257   0.000781   0.001831   0.000013
  188  H 24  S    0.000898   0.005113   0.002909   0.007788   0.000165
  189  H 25  S    0.001601  -0.001720  -0.000376  -0.000100   0.000191
  190  H 25  S    0.007915  -0.005050  -0.001568  -0.000388  -0.000051
  191  H 26  S   -0.000425   0.000583   0.001933   0.001841  -0.000004
  192  H 26  S   -0.001055   0.002024   0.007890   0.007694   0.000001
  193  H 27  S    0.000197  -0.000014  -0.000026  -0.000012  -0.000345
  194  H 27  S    0.000772   0.000852  -0.000231  -0.000395  -0.002086
  195  H 28  S    0.000231   0.000515  -0.000116  -0.000049  -0.000434
  196  H 28  S   -0.001555   0.000715   0.000553  -0.000063  -0.001757
  197  H 29  S   -0.000030  -0.000179   0.000030   0.000013   0.001864
  198  H 29  S   -0.000216  -0.000687   0.000218   0.000071   0.007786
  199  H 30  S    0.000127   0.000166  -0.000055  -0.000014   0.001840
  200  H 30  S    0.000582   0.000323  -0.000115  -0.000044   0.007745

                      6          7          8          9         10
                  -11.5098   -11.4894   -11.4598   -11.4295   -11.4180
                     A          A          A          A          A   
    1  C  1  S   -0.000630  -0.000477  -0.002344  -0.001079  -0.004042
    2  C  1  S   -0.000980  -0.001042  -0.005063  -0.001280  -0.005683
    3  C  1  X   -0.000185  -0.000267  -0.000026  -0.000283  -0.001437
    4  C  1  Y    0.000469  -0.000070   0.001440   0.000210   0.000890
    5  C  1  Z   -0.000003   0.000001  -0.000006   0.000001   0.000006
    6  C  1  S    0.000948   0.014246   0.048813   0.020486   0.052025
    7  C  1  X    0.006419  -0.007049   0.010223   0.004413   0.019437
    8  C  1  Y   -0.002094  -0.007420  -0.030740  -0.013654  -0.026323
    9  C  1  Z    0.000004   0.000059   0.000171   0.000083   0.000110
   10  C  2  S   -0.000313  -0.000197  -0.000764  -0.002966  -0.003641
   11  C  2  S   -0.000528  -0.000298  -0.001205  -0.005533  -0.005532
   12  C  2  X    0.000226   0.000185   0.000245   0.001411   0.001294
   13  C  2  Y    0.000399   0.000176  -0.000309   0.000475  -0.001007
   14  C  2  Z   -0.000004  -0.000003   0.000004  -0.000010   0.000010
   15  C  2  S    0.001146   0.001209   0.020764   0.053019   0.050846
   16  C  2  X   -0.000197  -0.001974  -0.014318  -0.033771  -0.030814
   17  C  2  Y   -0.005924   0.003366  -0.001599  -0.004210   0.010396
   18  C  2  Z    0.000049  -0.000027   0.000050   0.000105  -0.000020
   19  C  3  S   -0.000192  -0.000560  -0.000335  -0.000080   0.000006
   20  C  3  S   -0.000437  -0.000900  -0.000407  -0.000043   0.000035
   21  C  3  X    0.000378  -0.000023  -0.000119  -0.000107  -0.000050
   22  C  3  Y   -0.000076  -0.000127   0.000055   0.000052  -0.000005
   23  C  3  Z   -0.000001   0.000001  -0.000000  -0.000000   0.000000
   24  C  3  S    0.007416   0.013436   0.000088  -0.001210  -0.001043
   25  C  3  X   -0.001926   0.002633  -0.002967  -0.000154   0.000258
   26  C  3  Y   -0.004080  -0.007992   0.000661   0.000398   0.000777
   27  C  3  Z    0.000036   0.000055   0.000003  -0.000002  -0.000007
   28  C  4  S   -0.000149  -0.000248  -0.000088  -0.000118  -0.000010
   29  C  4  S   -0.000091   0.000141  -0.000237  -0.000155  -0.000025
   30  C  4  X   -0.000549  -0.000593   0.000131  -0.000026  -0.000000
   31  C  4  Y    0.000063  -0.000307  -0.000116   0.000014   0.000008
   32  C  4  Z    0.000001   0.000005   0.000001  -0.000000  -0.000000
   33  C  4  S   -0.004381  -0.012422   0.004941   0.001717   0.000490
   34  C  4  X   -0.000184  -0.010627  -0.000650   0.001231   0.000878
   35  C  4  Y   -0.001995  -0.006589   0.005240   0.001243   0.000233
   36  C  4  Z    0.000013   0.000063  -0.000035  -0.000010  -0.000003
   37  C  5  S    0.000045  -0.000112  -0.000119  -0.000083  -0.000014
   38  C  5  S    0.000134  -0.000171  -0.000158  -0.000107  -0.000026
   39  C  5  X   -0.000206  -0.000331  -0.000071  -0.000016   0.000022
   40  C  5  Y   -0.000007   0.000012   0.000157   0.000038   0.000003
   41  C  5  Z    0.000001   0.000000  -0.000001  -0.000000  -0.000000
   42  C  5  S   -0.002766  -0.001421  -0.001269   0.000553   0.000512
   43  C  5  X   -0.000787   0.002451  -0.001203   0.000073   0.000024
   44  C  5  Y    0.001340   0.001620  -0.001014  -0.000494  -0.000339
   45  C  5  Z   -0.000010  -0.000020   0.000008   0.000003   0.000003
   46  C  6  S   -0.000245  -0.000386  -0.000067  -0.000034   0.000021
   47  C  6  S   -0.000446  -0.000655  -0.000041  -0.000038   0.000017
   48  C  6  X   -0.000093  -0.000161  -0.000190  -0.000046   0.000012
   49  C  6  Y   -0.000172  -0.000350  -0.000023   0.000020   0.000023
   50  C  6  Z    0.000001   0.000002   0.000000   0.000000  -0.000000
   51  C  6  S    0.002059   0.000318  -0.002426   0.000207   0.000300
   52  C  6  X    0.001474  -0.001290  -0.000467   0.000429   0.000259
   53  C  6  Y    0.001647   0.006277  -0.001186  -0.000495  -0.000312
   54  C  6  Z   -0.000015  -0.000041   0.000008   0.000002   0.000002
   55  H  7  S    0.000091  -0.000045  -0.000096  -0.000007  -0.000163
   56  H  7  S   -0.000025   0.000371  -0.000897   0.000185  -0.000341
   57  H  8  S   -0.000028  -0.000029  -0.000156  -0.000169  -0.000023
   58  H  8  S    0.000027  -0.000214  -0.000160  -0.000230   0.000539
   59  H  9  S   -0.000005  -0.000013  -0.000003  -0.000004  -0.000001
   60  H  9  S    0.000020   0.000088   0.000071  -0.000007  -0.000010
   61  C 10  S   -0.001477  -0.000461   0.000671   0.987559   0.002483
   62  C 10  S   -0.001380  -0.000013   0.001306   0.100433   0.001152
   63  C 10  X    0.000156   0.000060   0.001158  -0.000661  -0.000363
   64  C 10  Y    0.000251  -0.000143  -0.000193   0.000833  -0.000979
   65  C 10  Z   -0.000001  -0.000017   0.000043  -0.000060   0.000022
   66  C 10  S    0.018096  -0.006683  -0.026453  -0.105029  -0.026765
   67  C 10  X   -0.015579   0.005734   0.005169   0.021847   0.004385
   68  C 10  Y    0.000366   0.003804  -0.020380  -0.042793  -0.015899
   69  C 10  Z    0.000011   0.000002   0.000072   0.000267   0.000118
   70  C 11  S   -0.000258   0.000494  -0.000420  -0.001922   0.987464
   71  C 11  S   -0.000162   0.000405   0.000884   0.000780   0.099714
   72  C 11  X    0.000120   0.000067   0.001006  -0.000278  -0.000661
   73  C 11  Y    0.000121  -0.000192   0.000165   0.001021  -0.000876
   74  C 11  Z    0.000000  -0.000009  -0.000012  -0.000018   0.000064
   75  C 11  S   -0.001371  -0.002182  -0.026958  -0.026606  -0.098016
   76  C 11  X    0.004664  -0.000739   0.012158   0.006221   0.024371
   77  C 11  Y   -0.002305   0.005102   0.008761   0.014096   0.034313
   78  C 11  Z   -0.000002  -0.000020  -0.000087  -0.000121  -0.000302
   79  C 12  S   -0.000449  -0.001754  -0.000514  -0.000209   0.000037
   80  C 12  S   -0.000770  -0.002913  -0.000964  -0.000156   0.000086
   81  C 12  X   -0.000253  -0.000872  -0.000166  -0.000163  -0.000023
   82  C 12  Y    0.000676   0.001402  -0.000153  -0.000111  -0.000090
   83  C 12  Z   -0.000006  -0.000008   0.000002   0.000001   0.000001
   84  C 12  S    0.003150   0.026960   0.010502  -0.000045  -0.001306
   85  C 12  X    0.004788   0.013579   0.012946   0.001814  -0.001029
   86  C 12  Y   -0.009642  -0.028283   0.004463   0.002615   0.001749
   87  C 12  Z    0.000065   0.000172  -0.000063  -0.000024  -0.000010
   88  C 13  S   -0.000059  -0.000215  -0.000148  -0.000021   0.000027
   89  C 13  S   -0.000061  -0.000159  -0.000129  -0.000011   0.000016
   90  C 13  X   -0.000036  -0.000203  -0.000091  -0.000005   0.000008
   91  C 13  Y    0.000150   0.000085  -0.000020  -0.000010  -0.000009
   92  C 13  Z   -0.000002  -0.000005  -0.000003   0.000000   0.000001
   93  C 13  S   -0.000151  -0.002037   0.000336   0.000029  -0.000073
   94  C 13  X    0.000109   0.000557   0.000610  -0.000220  -0.000190
   95  C 13  Y    0.000575   0.003951  -0.001151  -0.000386  -0.000242
   96  C 13  Z   -0.000002  -0.000019   0.000014   0.000004   0.000001
   97  O 14  S    0.000435  -0.000012  -0.000023  -0.000019  -0.000013
   98  O 14  S    0.003783  -0.000156  -0.000248  -0.000157  -0.000110
   99  O 14  X    0.000143   0.000072   0.000128   0.000283   0.000125
  100  O 14  Y   -0.000409  -0.000016  -0.000020   0.000110   0.000046
  101  O 14  Z    0.000002  -0.000002   0.000005  -0.000002   0.000001
  102  O 14  S   -0.015816  -0.000226   0.000583   0.001106   0.000623
  103  O 14  X    0.002630   0.000505  -0.001135  -0.001951  -0.000780
  104  O 14  Y   -0.006631   0.000188  -0.000608  -0.000776  -0.000312
  105  O 14  Z    0.000045   0.000001  -0.000006   0.000012  -0.000002
  106  O 15  S   -0.000005  -0.000035   0.000091   0.000350   0.000038
  107  O 15  S   -0.000080  -0.000286   0.000679   0.003619   0.000238
  108  O 15  X   -0.000250   0.000086   0.000137  -0.000281  -0.000135
  109  O 15  Y   -0.000191  -0.000006   0.000042   0.000773  -0.000162
  110  O 15  Z   -0.000006  -0.000033   0.000101  -0.000036   0.000055
  111  O 15  S    0.000600   0.001481  -0.004946  -0.011231  -0.002693
  112  O 15  X    0.001718  -0.000842   0.000206   0.002051   0.000936
  113  O 15  Y    0.000959   0.000407  -0.001279  -0.005184   0.000147
  114  O 15  Z    0.000036   0.000128  -0.000430   0.000121  -0.000253
  115  O 16  S   -0.000002   0.000025   0.000011   0.000019   0.000299
  116  O 16  S   -0.000043   0.000187   0.000027   0.000086   0.003183
  117  O 16  X    0.000076   0.000016   0.000237  -0.000105  -0.000423
  118  O 16  Y   -0.000009  -0.000027  -0.000021   0.000219  -0.000600
  119  O 16  Z   -0.000000  -0.000025  -0.000032  -0.000043   0.000071
  120  O 16  S   -0.000030  -0.001265  -0.001567  -0.001987  -0.009151
  121  O 16  X   -0.000486   0.000320  -0.001004   0.000767   0.002743
  122  O 16  Y    0.000237   0.000299   0.000427  -0.000640   0.003864
  123  O 16  Z    0.000005   0.000107   0.000161   0.000207  -0.000260
  124  O 17  S   -0.000002  -0.000010  -0.000008   0.000001   0.000001
  125  O 17  S   -0.000022  -0.000097  -0.000068   0.000006   0.000009
  126  O 17  X   -0.000006  -0.000027  -0.000020  -0.000003   0.000001
  127  O 17  Y    0.000039   0.000068  -0.000015  -0.000007  -0.000005
  128  O 17  Z   -0.000002  -0.000008  -0.000007   0.000001   0.000001
  129  O 17  S    0.000063   0.000383   0.000335  -0.000062  -0.000057
  130  O 17  X    0.000022   0.000178   0.000167  -0.000011  -0.000017
  131  O 17  Y   -0.000172  -0.000487   0.000101   0.000053   0.000035
  132  O 17  Z    0.000006   0.000033   0.000027  -0.000006  -0.000005
  133  C 18  S    0.987408   0.003014   0.001590   0.001100   0.000156
  134  C 18  S    0.100897  -0.000319  -0.001352  -0.001108  -0.000468
  135  C 18  X    0.000146   0.000788  -0.000431  -0.000317   0.000149
  136  C 18  Y   -0.000584   0.000472  -0.000144   0.000117   0.000077
  137  C 18  Z   -0.000011  -0.000008   0.000007  -0.000001   0.000000
  138  C 18  S   -0.086883   0.006995   0.023465   0.016567   0.008893
  139  C 18  X    0.018189  -0.011174   0.010765   0.008655   0.003749
  140  C 18  Y   -0.042852  -0.004135   0.012695   0.011696   0.005727
  141  C 18  Z    0.000236   0.000072  -0.000120  -0.000098  -0.000045
  142  C 19  S   -0.002906   0.987419   0.003923   0.000472  -0.000448
  143  C 19  S    0.000068   0.099862  -0.000588  -0.000237   0.000080
  144  C 19  X   -0.001334   0.001249  -0.001534  -0.000215   0.000298
  145  C 19  Y    0.000589  -0.000282   0.000048   0.000078   0.000209
  146  C 19  Z    0.000001  -0.000001   0.000003  -0.000001  -0.000002
  147  C 19  S   -0.021586  -0.088348   0.002878   0.002472   0.002998
  148  C 19  X   -0.000015   0.013830   0.017939   0.000872  -0.001567
  149  C 19  Y    0.011700   0.036307  -0.014979  -0.004967  -0.001936
  150  C 19  Z   -0.000099  -0.000305   0.000073   0.000038   0.000020
  151  C 20  S   -0.002107  -0.000031  -0.003288  -0.006527  -0.002930
  152  C 20  S   -0.003257   0.000275  -0.004085  -0.004653  -0.001083
  153  C 20  X    0.001998  -0.000305  -0.000532  -0.002240  -0.000558
  154  C 20  Y   -0.000038   0.000216  -0.002427  -0.001157  -0.000836
  155  C 20  Z   -0.000005   0.000000   0.000018   0.000011   0.000007
  156  C 20  S    0.031098  -0.004199   0.041792   0.042641   0.012112
  157  C 20  X   -0.043116   0.011553   0.015286   0.037426   0.012180
  158  C 20  Y   -0.002294  -0.013617   0.048184   0.028778   0.015676
  159  C 20  Z    0.000116   0.000054  -0.000358  -0.000280  -0.000153
  160  C 21  S   -0.001693  -0.004154   0.987573  -0.000079   0.000980
  161  C 21  S   -0.000048  -0.001457   0.101103   0.001224   0.000943
  162  C 21  X    0.000081   0.001019  -0.000508  -0.000715  -0.000683
  163  C 21  Y    0.000959   0.001220  -0.000745   0.000951  -0.000572
  164  C 21  Z   -0.000005  -0.000011   0.000012  -0.000004   0.000003
  165  C 21  S   -0.016364   0.002324  -0.101582  -0.025483  -0.026255
  166  C 21  X    0.002158  -0.003584  -0.046967  -0.019474  -0.017004
  167  C 21  Y    0.013598  -0.022508   0.012524  -0.000200  -0.002728
  168  C 21  Z   -0.000111   0.000171   0.000000   0.000035   0.000074
  169  O 22  S   -0.000018   0.000320   0.000351   0.000052   0.000035
  170  O 22  S   -0.000077   0.003273   0.003541   0.000351   0.000220
  171  O 22  X   -0.000148  -0.001055   0.001836   0.000120  -0.000160
  172  O 22  Y    0.000100  -0.001289  -0.000019   0.000223  -0.000190
  173  O 22  Z   -0.000001   0.000011  -0.000004  -0.000002   0.000003
  174  O 22  S    0.000903  -0.009699  -0.011346  -0.003239  -0.002398
  175  O 22  X    0.001818   0.005844  -0.011070  -0.001979  -0.000116
  176  O 22  Y   -0.000973   0.007844   0.000609  -0.000868   0.000892
  177  O 22  Z    0.000007  -0.000067   0.000021   0.000012  -0.000012
  178  C 23  S   -0.002297  -0.000666   0.000660  -0.000808   0.000205
  179  C 23  S   -0.004835  -0.003487   0.001112  -0.000494   0.000145
  180  C 23  X   -0.001160   0.000646   0.000268  -0.000394  -0.000097
  181  C 23  Y   -0.000706  -0.001404   0.000123   0.000107   0.000184
  182  C 23  Z    0.000008   0.000010  -0.000002   0.000001  -0.000001
  183  C 23  S    0.049224   0.034997  -0.013639  -0.001144  -0.001388
  184  C 23  X    0.021763  -0.020966  -0.002504   0.003282   0.000773
  185  C 23  Y    0.019380   0.023977  -0.015954  -0.004975  -0.002966
  186  C 23  Z   -0.000201  -0.000136   0.000129   0.000026   0.000019
  187  H 24  S    0.000415  -0.000289   0.000935   0.000672   0.000624
  188  H 24  S    0.001846   0.000518   0.008240   0.003363   0.008175
  189  H 25  S    0.000520  -0.002119  -0.000830  -0.000207  -0.000147
  190  H 25  S    0.007195   0.000747  -0.005115  -0.000338  -0.000560
  191  H 26  S   -0.000202   0.000195   0.000642   0.000784   0.000648
  192  H 26  S    0.000311   0.000771   0.003256   0.008378   0.008101
  193  H 27  S    0.000211  -0.000061   0.000402   0.000023  -0.000004
  194  H 27  S    0.001060   0.000293  -0.000002   0.000047  -0.000335
  195  H 28  S    0.000044   0.000734   0.000133  -0.000049  -0.000060
  196  H 28  S   -0.000697  -0.001998   0.002978   0.000377   0.000043
  197  H 29  S   -0.000055  -0.000059   0.000097   0.000020   0.000012
  198  H 29  S   -0.000229   0.000228   0.000457   0.000169   0.000073
  199  H 30  S    0.000111   0.000419  -0.000031  -0.000034  -0.000024
  200  H 30  S    0.000826   0.001678  -0.000152  -0.000017  -0.000065

                     11         12         13         14         15
                  -11.3970   -11.3757   -11.3669   -11.3532   -11.3452
                     A          A          A          A          A   
    1  C  1  S   -0.001555  -0.000458  -0.000225  -0.001378   0.987223
    2  C  1  S   -0.000647  -0.000208  -0.000110  -0.000350   0.100701
    3  C  1  X    0.000247   0.000091  -0.000027  -0.000030   0.000572
    4  C  1  Y    0.000547   0.000030   0.000000  -0.000020  -0.001779
    5  C  1  Z   -0.000004  -0.000000   0.000000   0.000000   0.000033
    6  C  1  S    0.000990   0.001982   0.001326   0.003160  -0.100990
    7  C  1  X   -0.004411  -0.001066  -0.000056  -0.001127  -0.010762
    8  C  1  Y    0.000275  -0.000499  -0.000866  -0.001633   0.025518
    9  C  1  Z    0.000013   0.000003   0.000005   0.000013  -0.000159
   10  C  2  S   -0.001284  -0.000497  -0.000008  -0.000291  -0.009745
   11  C  2  S   -0.000610  -0.000368  -0.000015  -0.000097  -0.001134
   12  C  2  X    0.000424  -0.000051  -0.000005   0.000008   0.000571
   13  C  2  Y    0.000460  -0.000002   0.000013   0.000049  -0.001004
   14  C  2  Z   -0.000004   0.000000  -0.000000  -0.000001   0.000007
   15  C  2  S    0.000912   0.005137   0.000426   0.000902  -0.009776
   16  C  2  X    0.001945  -0.001903  -0.000157  -0.000245   0.007958
   17  C  2  Y   -0.004896  -0.002802  -0.000088  -0.000301   0.003302
   18  C  2  Z    0.000031   0.000014   0.000001   0.000001  -0.000026
   19  C  3  S   -0.000131  -0.000735  -0.000609  -0.006358  -0.000490
   20  C  3  S   -0.000097  -0.000419   0.000636  -0.004283  -0.000195
   21  C  3  X   -0.000053  -0.000407   0.001179  -0.000344  -0.000019
   22  C  3  Y    0.000058   0.000198  -0.000001   0.001479   0.000006
   23  C  3  Z   -0.000000  -0.000001  -0.000001  -0.000010  -0.000000
   24  C  3  S   -0.000277  -0.001312  -0.024325   0.029009   0.001481
   25  C  3  X   -0.000381   0.003016   0.010215   0.002460  -0.000357
   26  C  3  Y   -0.000180  -0.001190   0.012008  -0.017245  -0.001074
   27  C  3  Z    0.000003   0.000003  -0.000119   0.000120   0.000010
   28  C  4  S   -0.000139  -0.000947  -0.000702  -0.007804  -0.000391
   29  C  4  S   -0.000140  -0.000379   0.000623  -0.004389  -0.000109
   30  C  4  X   -0.000011  -0.000067   0.001070  -0.000896  -0.000006
   31  C  4  Y    0.000011   0.000256  -0.000342  -0.001402  -0.000055
[...]
            126  O 17  X      0.59604     0.58471
            127  O 17  Y      0.86345     0.87251
            128  O 17  Z      0.66569     0.65384
            129  O 17  S      1.54605     0.98581
            130  O 17  X      0.78109     0.79514
            131  O 17  Y      1.03746     1.04711
            132  O 17  Z      0.85758     0.85626
            133  C 18  S      1.98899     1.97650
            134  C 18  S      0.43110     0.43716
            135  C 18  X      0.66998     0.63963
            136  C 18  Y      0.61365     0.58831
            137  C 18  Z      0.31628     0.29189
            138  C 18  S      0.69392     0.48962
            139  C 18  X      0.30718     0.48028
            140  C 18  Y     -0.03290     0.39789
            141  C 18  Z      0.39576     0.44384
            142  C 19  S      1.98833     1.97620
            143  C 19  S      0.41877     0.43091
            144  C 19  X      0.60333     0.58951
            145  C 19  Y      0.58154     0.55223
            146  C 19  Z      0.33383     0.31289
            147  C 19  S      0.75777     0.49433
            148  C 19  X      0.24019     0.44354
            149  C 19  Y      0.08653     0.40949
            150  C 19  Z      0.43392     0.47111
            151  C 20  S      1.98858     1.97554
            152  C 20  S      0.39169     0.41043
            153  C 20  X      0.59995     0.58975
            154  C 20  Y      0.55917     0.54811
            155  C 20  Z      0.50356     0.49686
            156  C 20  S      0.77225     0.50284
            157  C 20  X      0.33773     0.49075
            158  C 20  Y      0.34254     0.48549
            159  C 20  Z      0.71290     0.68495
            160  C 21  S      1.98837     1.97557
            161  C 21  S      0.40678     0.41889
            162  C 21  X      0.48803     0.47472
            163  C 21  Y      0.66119     0.63296
            164  C 21  Z      0.42095     0.40080
            165  C 21  S      0.76984     0.48454
            166  C 21  X      0.01483     0.36457
            167  C 21  Y      0.26216     0.48009
            168  C 21  Z      0.52035     0.55008
            169  O 22  S      1.98722     1.97958
            170  O 22  S      0.40496     0.55880
            171  O 22  X      0.60781     0.60348
            172  O 22  Y      0.73581     0.73542
            173  O 22  Z      0.77844     0.78198
            174  O 22  S      1.59495     0.91689
            175  O 22  X      0.82373     0.74682
            176  O 22  Y      0.90743     0.89647
            177  O 22  Z      0.95966     0.94238
            178  C 23  S      1.98810     1.97597
            179  C 23  S      0.38862     0.40909
            180  C 23  X      0.56014     0.54148
            181  C 23  Y      0.60734     0.58679
            182  C 23  Z      0.50729     0.50279
            183  C 23  S      0.84374     0.52609
            184  C 23  X      0.27023     0.48349
            185  C 23  Y      0.42675     0.51888
            186  C 23  Z      0.72206     0.71279
            187  H 24  S      0.45760     0.45212
            188  H 24  S      0.21778     0.39505
            189  H 25  S      0.45821     0.45158
            190  H 25  S      0.20771     0.39173
            191  H 26  S      0.45827     0.45339
            192  H 26  S      0.21532     0.39457
            193  H 27  S      0.46821     0.46663
            194  H 27  S      0.24024     0.40529
            195  H 28  S      0.47788     0.47591
            196  H 28  S      0.25261     0.41102
            197  H 29  S      0.46500     0.46243
            198  H 29  S      0.23922     0.40420
            199  H 30  S      0.46483     0.46226
            200  H 30  S      0.23831     0.40398

          ----- MULLIKEN ATOMIC OVERLAP POPULATIONS -----
          (OFF-DIAGONAL ELEMENTS NEED TO BE MULTIPLIED BY 2)

             1           2           3           4           5

    1    5.5091618
    2   -0.1329327   5.6668370
    3    0.0000063   0.0000000   5.2716059
    4   -0.0000002   0.0000000  -0.0718683   5.2928852
    5   -0.0000001   0.0000000   0.3608375   0.0070614   5.4423994
    6   -0.0000000  -0.0000000   0.0059703   0.3672662  -0.1409912
    7    0.0000321  -0.0013654  -0.0000000  -0.0000000  -0.0000000
    8   -0.0004891  -0.0001556   0.0000000   0.0000000   0.0000000
    9    0.0000000   0.0000000  -0.0001727  -0.0001745  -0.0000563
   10   -0.0069756   0.2960475  -0.0000001   0.0000000  -0.0000000
   11    0.3393508   0.2805481   0.0000001  -0.0000000   0.0000000
   12    0.0000041   0.0000001   0.3863393   0.3968766  -0.1086963
   13    0.0000000   0.0000000  -0.0802652  -0.0790528   0.3645322
   14   -0.0000059   0.0000567   0.0000000   0.0000024   0.0000000
   15   -0.0002753  -0.0666360   0.0000000   0.0000000   0.0000000
   16   -0.0652240  -0.0650662  -0.0000000  -0.0000000  -0.0000000
   17   -0.0000000   0.0000000   0.0037802   0.0039309  -0.0684053
   18    0.0030355   0.0044205  -0.0000893   0.0002190   0.0000003
   19    0.0003234   0.0000486  -0.0701893  -0.0537625   0.0028036
   20   -0.0872457  -0.1420431   0.0000244  -0.0000035   0.0000002
   21    0.3104093  -0.0069558  -0.0001191  -0.0001133  -0.0000006
   22   -0.0219632  -0.0002362   0.0021104   0.0019034   0.0002077
   23    0.0000288   0.0000113   0.0054003  -0.0154265  -0.0000452
   24    0.3843322   0.0029193   0.0000041   0.0000000   0.0000001
   25    0.0000005   0.0000001   0.0000680   0.0034396  -0.0000094
   26    0.0029804   0.3866848   0.0000000   0.0000000  -0.0000000
   27   -0.0000021   0.0000000   0.3925186   0.0014367  -0.0201956
   28    0.0000000   0.0000000   0.0013272   0.3917949  -0.0000025
   29   -0.0000000  -0.0000000  -0.0305690  -0.0002492   0.3911566
   30    0.0000000   0.0000000  -0.0002299  -0.0314544   0.0027054

             6           7           8           9          10

    6    5.4216913
    7   -0.0000000   0.3288162
    8    0.0000000  -0.0000000   0.3300372
    9   -0.0001138  -0.0000000  -0.0000000   0.3459704
   10    0.0000000  -0.0393401  -0.0001794   0.0000000   5.0135848
   11    0.0000000  -0.0001454  -0.0377073  -0.0000000  -0.0460764
   12   -0.1000774   0.0000000  -0.0000000   0.0000353   0.0000024
   13    0.3638353   0.0000000  -0.0000000  -0.0411422   0.0000000
   14   -0.0000000   0.0008539  -0.0000000   0.0000000  -0.0084652
   15    0.0000000   0.2773037   0.0000002   0.0000000   0.3266840
   16   -0.0000000   0.0000002   0.2775247   0.0000000   0.0037000
   17   -0.0677337   0.0000000   0.0000000   0.2779576  -0.0000000
   18   -0.0000047  -0.0002433   0.0000001  -0.0000000  -0.1005076
   19    0.0032734  -0.0000000  -0.0000000   0.0000000  -0.0002670
   20    0.0000000   0.0011805   0.0000459  -0.0000000   0.1417186
   21    0.0000005  -0.0000336  -0.0001974   0.0000000   0.0042496
   22   -0.0000084   0.0000002   0.0000001  -0.0000000   0.0028706
   23    0.0002546   0.0000006  -0.0000000  -0.0000000   0.0050027
   24   -0.0000000  -0.0000000   0.0002164   0.0000000  -0.0005306
   25    0.0000873   0.0000001  -0.0000000   0.0000000   0.0000322
   26   -0.0000000   0.0001564   0.0001929   0.0000000  -0.0366358
   27   -0.0000614  -0.0000000   0.0000000   0.0000006  -0.0000000
   28   -0.0178931  -0.0000000  -0.0000000   0.0000007  -0.0000000
   29    0.0027584  -0.0000000   0.0000000   0.0001739  -0.0000000
   30    0.3906672  -0.0000000  -0.0000000   0.0001758   0.0000000

            11          12          13          14          15

   11    4.8939295
   12   -0.0000006   5.4461200
   13   -0.0000000  -0.0055497   4.8607771
   14   -0.0000024  -0.0000336  -0.0000000   8.1600560
   15    0.0032813  -0.0000000  -0.0000000  -0.0003875   8.2936892
   16    0.2903839   0.0000000   0.0000000   0.0000000  -0.0000003
   17    0.0000000  -0.0003689   0.2896478   0.0000000   0.0000000
   18   -0.0004453   0.0027756   0.0000001   0.2803577   0.0041952
   19   -0.0001626   0.3406354  -0.0001696   0.0039194  -0.0000092
   20   -0.0080681  -0.0002892  -0.0000000  -0.0674279  -0.0971489
   21   -0.0596789   0.0025512   0.0000000   0.0032268   0.0024822
   22    0.0026335  -0.0329542  -0.0000015   0.0000001  -0.0000001
   23    0.0000067  -0.0999862  -0.0000108  -0.0648232   0.0002223
   24   -0.0315046  -0.0000058   0.0000000   0.0000000  -0.0000001
   25    0.0000000  -0.0035406   0.0000054  -0.0037273   0.0000011
   26   -0.0345210  -0.0000000   0.0000000   0.0000004  -0.0028397
   27    0.0000001  -0.0377519   0.0016803  -0.0000000   0.0000000
   28   -0.0000000  -0.0424406   0.0016286   0.0000003  -0.0000000
   29   -0.0000000   0.0025610  -0.0339547   0.0000000  -0.0000000
   30   -0.0000000   0.0025143  -0.0330111  -0.0000000   0.0000000

            16          17          18          19          20

   16    8.2965169
   17    0.0000000   8.3090296
   18   -0.0000003   0.0000000   4.8635911
   19    0.0000001  -0.0000002  -0.0814927   4.8290388
   20   -0.0003737   0.0000000   0.2219299  -0.0037380   6.1811434
   21    0.0043171  -0.0000000  -0.0455150  -0.0754779   0.1640750
   22   -0.0000002  -0.0000000  -0.0143625   0.2912326  -0.0652579
   23    0.0000000   0.0000000   0.2796994   0.2808255  -0.0416079
   24   -0.0034560  -0.0000000  -0.0000105   0.0000213   0.0042445
   25    0.0000000  -0.0000000  -0.0336926  -0.0220769   0.0030575
   26   -0.0029711   0.0000000  -0.0000087  -0.0000000   0.0041469
   27    0.0000000  -0.0000025  -0.0000079  -0.0008477   0.0000201
   28    0.0000000  -0.0000035   0.0001112   0.0003664  -0.0000095
   29    0.0000000  -0.0028010  -0.0000000  -0.0000437   0.0000000
   30    0.0000000  -0.0027892  -0.0000000  -0.0000474   0.0000000

            21          22          23          24          25

   21    5.0543346
   22    0.2195452   8.4909114
   23   -0.0055758  -0.0804487   5.6760243
   24   -0.0383219  -0.0015784   0.0000026   0.3590121
   25   -0.0001044   0.0007938   0.3774235  -0.0000001   0.3366665
   26   -0.0005200  -0.0000001   0.0000002  -0.0000004  -0.0000000
   27   -0.0000756   0.0045732   0.0002333   0.0000329  -0.0000016
   28   -0.0000009   0.0000433  -0.0029355   0.0000000   0.0075073
   29   -0.0000000   0.0000003   0.0000002  -0.0000000   0.0000000
   30   -0.0000000   0.0000000   0.0000062   0.0000000  -0.0000093

            26          27          28          29          30

   26    0.3569293
   27   -0.0000000   0.3683029
   28    0.0000000  -0.0000341   0.3921474
   29    0.0000000  -0.0013671   0.0000012   0.3765605
   30   -0.0000000   0.0000011  -0.0011191  -0.0000119   0.3757430

          TOTAL MULLIKEN AND LOWDIN ATOMIC POPULATIONS
       ATOM         MULL.POP.    CHARGE          LOW.POP.     CHARGE
    1 C             6.234551   -0.234551         6.168069   -0.168069
    2 C             6.222183   -0.222183         6.163010   -0.163010
    3 C             6.176489   -0.176489         6.042939   -0.042939
    4 C             6.214711   -0.214711         6.055165   -0.055165
    5 C             6.233302   -0.233302         6.123194   -0.123194
    6 C             6.228921   -0.228921         6.120630   -0.120630
    7 H             0.567216    0.432784         0.699623    0.300377
    8 H             0.569289    0.430711         0.700739    0.299261
    9 H             0.582655    0.417345         0.711406    0.288594
   10 C             5.554915    0.445085         5.799083    0.200917
   11 C             5.591821    0.408179         5.782576    0.217424
   12 C             6.148720   -0.148720         6.095364   -0.095364
   13 C             5.608949    0.391051         5.818189    0.181811
   14 O             8.303601   -0.303601         7.887795    0.112205
   15 O             8.740562   -0.740562         8.326572   -0.326572
   16 O             8.735351   -0.735351         8.327043   -0.327043
   17 O             8.742242   -0.742242         8.336933   -0.336933
   18 C             5.383955    0.616045         5.745110    0.254890
   19 C             5.444204    0.555796         5.680214    0.319786
   20 C             6.208374   -0.208374         6.184739   -0.184739
   21 C             5.532501    0.467499         5.782217    0.217783
   22 O             8.800014   -0.800014         8.161830   -0.161830
   23 C             6.314283   -0.314283         6.257372   -0.257372
   24 H             0.675377    0.324623         0.847178    0.152822
   25 H             0.665921    0.334079         0.843314    0.156686
   26 H             0.673595    0.326405         0.847958    0.152042
   27 H             0.708452    0.291548         0.871921    0.128079
   28 H             0.730490    0.269510         0.886939    0.113061
   29 H             0.704215    0.295785         0.866630    0.133370
   30 H             0.703141    0.296859         0.866248    0.133752

          -------------------------------
          BOND ORDER AND VALENCE ANALYSIS     BOND ORDER THRESHOLD=0.050
          -------------------------------

                   BOND                       BOND                       BOND
  ATOM PAIR DIST  ORDER      ATOM PAIR DIST  ORDER      ATOM PAIR DIST  ORDER
    1  10  2.792  0.071        1  11  1.387  1.328        1  21  1.386  1.348
    1  24  1.080  0.887        2  10  1.383  1.367        2  11  1.390  1.264
    2  20  2.404 -0.057        2  21  2.789  0.063        2  26  1.080  0.888
    3   5  1.377  1.363        3   6  2.779  0.061        3  12  1.398  1.268
    3  27  1.080  0.913        4   5  2.779  0.063        4   6  1.377  1.380
    4  12  1.398  1.281        4  28  1.080  0.914        5  13  1.390  1.274
    5  29  1.080  0.909        6  13  1.390  1.270        6  30  1.080  0.908
    7  15  0.967  0.769        8  16  0.967  0.770        9  17  0.967  0.782
   10  15  1.357  0.893       10  20  1.400  1.176       11  16  1.358  0.869
   11  20  2.771  0.059       12  13  2.771  0.062       12  19  1.475  1.098
   13  17  1.358  0.858       14  18  1.220  0.982       14  23  2.299  0.055
   18  20  1.473  1.067       18  23  1.415  1.209       19  22  1.343  0.878
   19  23  1.360  1.391       20  21  1.406  1.240       21  22  1.350  0.718
   23  25  1.080  0.866

                       TOTAL       BONDED        FREE
      ATOM            VALENCE     VALENCE     VALENCE
    1 C                 3.691       3.644       0.047
    2 C                 3.624       3.572       0.052
    3 C                 3.689       3.561       0.128
    4 C                 3.736       3.601       0.136
    5 C                 3.686       3.555       0.131
    6 C                 3.697       3.569       0.129
    7 H                 0.795       0.795       0.000
    8 H                 0.795       0.795       0.000
    9 H                 0.805       0.805       0.000
   10 C                 3.515       3.467       0.048
   11 C                 3.526       3.488       0.039
   12 C                 3.693       3.591       0.102
   13 C                 3.531       3.409       0.122
   14 O                 2.004       1.164       0.840
   15 O                 1.736       1.735       0.001
   16 O                 1.720       1.719       0.000
   17 O                 1.709       1.709       0.001
   18 C                 3.259       3.239       0.020
   19 C                 3.370       3.361       0.009
   20 C                 3.546       3.498       0.047
   21 C                 3.358       3.326       0.033
   22 O                 1.777       1.776       0.000
   23 C                 3.566       3.544       0.022
   24 H                 0.871       0.871       0.000
   25 H                 0.878       0.878       0.000
   26 H                 0.870       0.870       0.001
   27 H                 0.900       0.899       0.001
   28 H                 0.910       0.908       0.001
   29 H                 0.890       0.889       0.001
   30 H                 0.889       0.888       0.001

          -----------------------------------------
          ATOMIC SPIN DENSITY AT THE NUCLEUS (A.U.)
          -----------------------------------------
                            SPIN DENS    ALPHA DENS     BETA DENS
    1  C            6.0     0.0608740      47.03584      46.97497
    2  C            6.0     0.0634848      47.05313      46.98964
    3  C            6.0    -0.0968817      46.96955      47.06643
    4  C            6.0    -0.1004555      46.96531      47.06577
    5  C            6.0     0.0987099      47.06612      46.96741
    6  C            6.0     0.0984580      47.06389      46.96544
    7  H            1.0    -0.0052938       0.16196       0.16725
    8  H            1.0    -0.0043828       0.16246       0.16684
    9  H            1.0    -0.0081161       0.16262       0.17073
   10  C            6.0    -0.0675335      46.96125      47.02878
   11  C            6.0    -0.0574054      46.97037      47.02777
   12  C            6.0     0.0989626      47.04955      46.95059
   13  C            6.0    -0.1004535      46.94626      47.04671
   14  O            8.0     0.2423182     117.27512     117.03280
   15  O            8.0     0.0018896     116.73448     116.73259
   16  O            8.0    -0.0098368     116.71017     116.72001
   17  O            8.0    -0.0174978     116.70217     116.71967
   18  C            6.0    -0.0827189      47.02370      47.10642
   19  C            6.0    -0.0383968      46.99356      47.03195
   20  C            6.0     0.0996374      47.05403      46.95439
   21  C            6.0    -0.0557012      46.96514      47.02084
   22  O            8.0     0.0047699     116.77739     116.77262
   23  C            6.0     0.0894027      47.02513      46.93573
   24  H            1.0    -0.0059500       0.17517       0.18112
   25  H            1.0    -0.0054638       0.17569       0.18115
   26  H            1.0    -0.0065411       0.17518       0.18173
   27  H            1.0     0.0101220       0.18797       0.17784
   28  H            1.0     0.0104179       0.19214       0.18173
   29  H            1.0    -0.0102082       0.17637       0.18658
   30  H            1.0    -0.0101242       0.17635       0.18647

          ---------------------
          ELECTROSTATIC MOMENTS
          ---------------------

 POINT   1           X           Y           Z (BOHR)    CHARGE
                 0.000210   -0.000031    0.000015        1.00 (A.U.)
         DX          DY          DZ         /D/  (DEBYE)
     1.947228   -1.102690   -1.897080    2.933689
 ...... END OF PROPERTY EVALUATION ......
 CPU     0: STEP CPU TIME=     0.05 TOTAL CPU TIME=         33.6 (      0.6 MIN)
 TOTAL WALL CLOCK TIME=         56.2 SECONDS, CPU UTILIZATION IS    59.83%
               581609  WORDS OF DYNAMIC MEMORY USED
 EXECUTION OF GAMESS TERMINATED NORMALLY Mon May 25 18:08:24 2020
 DDI: 263640 bytes (0.3 MB / 0 MWords) used by master data server.
Note: The following floating-point exceptions are signalling:
 ----------------------------------------
 CPU timing information for all processes
 ========================================
 0: 33.144 + 0.517 = 33.662
 1: 32.984 + 0.364 = 33.349
 2: 32.693 + 0.247 = 32.940
 3: 32.762 + 0.277 = 33.39
 4: 32.698 + 0.339 = 33.37
 5: 33.213 + 0.271 = 33.485
 ----------------------------------------
Note: The following floating-point exceptions are signalling:Note: The following floating-point exceptions are signalling:Note: The following floating-point exceptions are signalling: IEEE_DENORMAL IEEE_DENORMALNote: The following floating-point exceptions are signalling: IEEE_DENORMALNote: The following floating-point exceptions are signalling: IEEE_DENORMAL IEEE_DENORMAL
 IEEE_DENORMAL




 ddikick.x: exited gracefully.
unset echo
----- accounting info -----
Files used on the master node pietdev were:
-rwxr-xr-x 1 piet piet     1320 mei 25 18:07 /home/piet/scr/apigenin_fukui_base.F05*
-rw-r--r-- 1 piet piet 68812800 mei 25 18:08 /home/piet/scr/apigenin_fukui_base.F10
ls: No match.
ls: No match.
ls: No match.
ma 25 mei 2020 18:08:27 CEST
0.099u 0.025s 0:59.38 0.1%	0+0k 0+8io 0pf+0w
