----- GAMESS execution script 'rungms' -----
This job is running on host pietdev
under operating system Linux at ma 25 mei 2020 19:28:32 CEST
Available scratch disk space (Kbyte units) at beginning of the job is
Filesystem     1K-blocks     Used Available Use% Mounted on
/dev/sda2      244568380 31071544 201003780  14% /
GAMESS temporary binary files will be written to /home/piet/scr
GAMESS supplementary output files will be written to /home/piet/gamess/scr
Copying input file patchoulol_fukui_neu.inp to your run's scratch directory...
cp patchoulol_fukui_neu.inp /home/piet/scr/patchoulol_fukui_neu.F05
unset echo
 
Assuming a single but multicore node.
 
/home/piet/gamess/ddikick.x /home/piet/gamess/gamess.03.x patchoulol_fukui_neu -ddi 1 6 pietdev:cpus=6 -scr /home/piet/scr

 Distributed Data Interface kickoff program.
 Initiating 6 compute processes on 1 nodes to run the following command:
 /home/piet/gamess/gamess.03.x patchoulol_fukui_neu 

          ******************************************************
          *         GAMESS VERSION = 30 SEP 2019 (R2)          *
          *             FROM IOWA STATE UNIVERSITY             *
          * M.W.SCHMIDT, K.K.BALDRIDGE, J.A.BOATZ, S.T.ELBERT, *
          *   M.S.GORDON, J.H.JENSEN, S.KOSEKI, N.MATSUNAGA,   *
          *          K.A.NGUYEN, S.J.SU, T.L.WINDUS,           *
          *       TOGETHER WITH M.DUPUIS, J.A.MONTGOMERY       *
          *         J.COMPUT.CHEM.  14, 1347-1363(1993)        *
          **************** 64 BIT LINUX VERSION ****************

  SINCE 1993, STUDENTS AND POSTDOCS WORKING AT IOWA STATE UNIVERSITY
  AND ALSO IN THEIR VARIOUS JOBS AFTER LEAVING ISU HAVE MADE IMPORTANT
  CONTRIBUTIONS TO THE CODE:
     IVANA ADAMOVIC, CHRISTINE AIKENS, YURI ALEXEEV, POOJA ARORA,
     ANDREY ASADCHEV, ROB BELL, PRADIPTA BANDYOPADHYAY, JONATHAN BENTZ,
     COLLEEN BERTONI, BRETT BODE, KURT BRORSEN, CALEB CARLIN, GALINA CHABAN,
     WEI CHEN, CHEOL HO CHOI, PAUL DAY, ALBERT DEFUSCO, NUWAN DESILVA,
     TIM DUDLEY, DMITRI FEDOROV, ALEX FINDLATER, GRAHAM FLETCHER, 
     MARK FREITAG, KURT GLAESEMANN, EMILIE B GUIDEZ, ANASTASIA GUNINA, 
     DAN KEMP, SAROM SOK LEANG, GRANT MERRILL,
     NORIYUKI MINEZAWA, JONATHAN MULLIN,
     TAKESHI NAGATA, SEAN NEDD, HEATHER NETZLOFF, BOSILJKA NJEGIC, RYAN OLSON,
     MIKE PAK, BUU PHAM, DAVID POOLE,
     SPENCER PRUITT, LUKE ROSKOP, TOSAPORN SATTASATHUCHANA,
     JIM SHOEMAKER, LYUDMILA SLIPCHENKO,
     TONY SMITH, JIE SONG, TETSUYA TAKETSUGU, SIMON WEBB,
     JORGE LUIS GALVEZ VALLEJO, PENG XU, SOOHAENG YOO,
     FEDERICO ZAHARIEV

  ADDITIONAL CODE HAS BEEN PROVIDED BY COLLABORATORS IN OTHER GROUPS:
     IOWA STATE UNIVERSITY:
          JOE IVANIC, AARON WEST, LAIMUTIS BYTAUTAS, KLAUS RUEDENBERG
     UNIVERSITY OF TOKYO: KIMIHIKO HIRAO, TAKAHITO NAKAJIMA,
          TAKAO TSUNEDA, MUNEAKI KAMIYA, SUSUMU YANAGISAWA,
          KIYOSHI YAGI, MAHITO CHIBA, SEIKEN TOKURA, NAOAKI KAWAKAMI
     UNIVERSITY OF AARHUS: FRANK JENSEN
     UNIVERSITY OF IOWA: VISVALDAS KAIRYS, HUI LI
     NATIONAL INST. OF STANDARDS AND TECHNOLOGY: WALT STEVENS, DAVID GARMER
     UNIVERSITY OF PISA: BENEDETTA MENNUCCI, JACOPO TOMASI
     UNIVERSITY OF MEMPHIS: HENRY KURTZ, PRAKASHAN KORAMBATH
     UNIVERSITY OF ALBERTA: TOBY ZENG, MARIUSZ KLOBUKOWSKI
     UNIVERSITY OF NEW ENGLAND: MARK SPACKMAN
     MIE UNIVERSITY: HIROAKI UMEDA
     NAT. INST. OF ADVANCED INDUSTRIAL SCIENCE AND TECHNOLOGY: KAZUO KITAURA
     MICHIGAN STATE UNIVERSITY:
          KAROL KOWALSKI, MARTA WLOCH, JEFFREY GOUR, JESSE LUTZ,
          WEI LI, JUN SHEN, J. EMILIANO DEUSTUA, PIOTR PIECUCH
     UNIVERSITY OF MINNESOTA:
          ANDREW SAND, PRACHI SHARMA, YINAN SHU
     UNIVERSITY OF SILESIA: MONIKA MUSIAL, STANISLAW KUCHARSKI
     FACULTES UNIVERSITAIRES NOTRE-DAME DE LA PAIX:
          OLIVIER QUINET, BENOIT CHAMPAGNE
     UNIVERSITY OF CALIFORNIA - SANTA BARBARA: BERNARD KIRTMAN
     INSTITUTE FOR MOLECULAR SCIENCE:
          KAZUYA ISHIMURA, MICHIO KATOUDA, AND SHIGERU NAGASE
     UNIVERSITY OF NOTRE DAME: ANNA POMOGAEVA, DAN CHIPMAN
     KYUSHU UNIVERSITY:
          HARUYUKI NAKANO,
          FENG LONG GU, JACEK KORCHOWIEC, MARCIN MAKOWSKI, AND YURIKO AOKI,
          HIROTOSHI MORI AND EISAKU MIYOSHI
     PENNSYLVANIA STATE UNIVERSITY:
          TZVETELIN IORDANOV, CHET SWALINA, JONATHAN SKONE,
          SHARON HAMMES-SCHIFFER
     WASEDA UNIVERSITY:
          MASATO KOBAYASHI, TOMOKO AKAMA, TSUGUKI TOUMA,
          TAKESHI YOSHIKAWA, YASUHIRO IKABATA, JUNJI SEINO,
          YUYA NAKAJIMA, HIROMI NAKAI
     NANJING UNIVERSITY: SHUHUA LI
     UNIVERSITY OF NEBRASKA:
          PEIFENG SU, DEJUN SI, NANDUN THELLAMUREGE, YALI WANG, HUI LI
     UNIVERSITY OF ZURICH: ROBERTO PEVERATI, KIM BALDRIDGE
     N. COPERNICUS UNIVERSITY AND JACKSON STATE UNIVERSITY:
          MARIA BARYSZ
     UNIVERSITY OF COPENHAGEN: Jimmy Kromann, CASPER STEINMANN
     TOKYO INSTITUTE OF TECHNOLOGY: HIROYA NAKATA
     NAGOYA UNIVERSITY: YOSHIO NISHIMOTO, STEPHAN IRLE
     MOSCOW STATE UNIVERSITY: VLADIMIR MIRONOV
     A.N.NESMEYANOV INSTITUTE OF ORGANOELEMENT COMPOUNDS OF RUSSIAN ACADEMY OF SCIENCES:
          IGOR S. GERASIMOV
     JOHANNES KEPLER UNIVERSITY LINZ:
          CHRISTIAN FRIEDL


 PARALLEL VERSION RUNNING ON        6 PROCESSORS IN        1 NODES.

 EXECUTION OF GAMESS BEGUN Mon May 25 19:28:32 2020

            ECHO OF THE FIRST FEW INPUT CARDS -
 INPUT CARD> $BASIS GBASIS=N21 NGAUSS=3 $END                                                
 INPUT CARD> $CONTRL SCFTYP=RHF MAXIT=60 MULT=1 ICHARG=0 $END                               
 INPUT CARD> $SYSTEM MEMDDI=1000 MWORDS=30 $END                                             
 INPUT CARD> $SCF DIRSCF=.TRUE. $END                                                        
 INPUT CARD> $DATA                                                                          
 INPUT CARD>                                                                                
 INPUT CARD>C1                                                                              
 INPUT CARD>O 8.0000000 1.49055 -0.06187 1.95116                                            
 INPUT CARD>C 6.0000000 -0.08613 -1.11380 0.46859                                           
 INPUT CARD>C 6.0000000 0.56205 0.24859 0.88985                                             
 INPUT CARD>C 6.0000000 -1.24059 -0.76227 -0.52363                                          
 INPUT CARD>C 6.0000000 1.34295 0.86772 -0.37773                                            
 INPUT CARD>C 6.0000000 0.88663 0.08027 -1.65126                                            
 INPUT CARD>C 6.0000000 -0.64786 0.01253 -1.74701                                           
 INPUT CARD>C 6.0000000 0.95069 -2.00078 -0.26938                                           
 INPUT CARD>C 6.0000000 1.39711 -1.37040 -1.60954                                           
 INPUT CARD>C 6.0000000 -2.38220 0.01577 0.17213                                            
 INPUT CARD>C 6.0000000 -0.52399 1.16758 1.52170                                            
 INPUT CARD>C 6.0000000 -1.84594 1.33955 0.74910                                            
 INPUT CARD>C 6.0000000 -0.58537 -1.92375 1.68244                                           
 INPUT CARD>C 6.0000000 1.10487 2.38132 -0.59009                                            
 INPUT CARD>C 6.0000000 2.87661 0.72091 -0.21025                                            
 INPUT CARD>C 6.0000000 -3.59531 0.24840 -0.74061                                           
 INPUT CARD>H 1.0000000 -1.65478 -1.71795 -0.87566                                          
 INPUT CARD>H 1.0000000 1.28791 0.59372 -2.53592                                            
 INPUT CARD>H 1.0000000 -0.92345 -0.48591 -2.68384                                          
 INPUT CARD>H 1.0000000 -1.06688 1.02112 -1.81476                                           
 INPUT CARD>H 1.0000000 1.80589 -2.15606 0.39728                                            
 INPUT CARD>H 1.0000000 0.50396 -2.98945 -0.43327                                           
 INPUT CARD>H 1.0000000 0.97422 -1.91777 -2.46135                                           
 INPUT CARD>H 1.0000000 2.48390 -1.41815 -1.72602                                           
 INPUT CARD>H 1.0000000 -2.73189 -0.60023 1.01074                                           
 INPUT CARD>H 1.0000000 -0.74510 0.72543 2.49879                                            
 INPUT CARD>H 1.0000000 -0.09066 2.15348 1.73198                                            
 INPUT CARD>H 1.0000000 -1.72581 2.06444 -0.06400                                           
 INPUT CARD>H 1.0000000 -2.59450 1.77825 1.42190                                            
 INPUT CARD>H 1.0000000 -1.22287 -1.35539 2.36285                                           
 INPUT CARD>H 1.0000000 -1.16107 -2.79119 1.33587                                           
 INPUT CARD>H 1.0000000 0.26364 -2.29068 2.26542                                            
 INPUT CARD>H 1.0000000 1.41407 2.96525 0.28449                                             
 INPUT CARD>H 1.0000000 1.71592 2.72485 -1.43310                                            
 INPUT CARD>H 1.0000000 0.06939 2.64360 -0.81456                                            
 INPUT CARD>H 1.0000000 3.18916 -0.28078 0.08432                                            
 INPUT CARD>H 1.0000000 3.36951 0.97636 -1.15641                                            
 INPUT CARD>H 1.0000000 3.25945 1.41494 0.54644                                             
 INPUT CARD>H 1.0000000 1.82935 0.76353 2.32201                                             
 INPUT CARD>H 1.0000000 -3.99939 -0.70058 -1.11296                                          
 INPUT CARD>H 1.0000000 -4.39725 0.76195 -0.19649                                           
 INPUT CARD>H 1.0000000 -3.34077 0.86725 -1.60882                                           
 INPUT CARD> $END                                                                           
   30000000 WORDS OF MEMORY AVAILABLE

     BASIS OPTIONS
     -------------
     GBASIS=N21          IGAUSS=       3      POLAR=NONE    
     NDFUNC=       0     NFFUNC=       0     DIFFSP=       F
     NPFUNC=       0      DIFFS=       F     BASNAM=        


     RUN TITLE
     ---------
                                                                                 

 THE POINT GROUP OF THE MOLECULE IS C1      
 THE ORDER OF THE PRINCIPAL AXIS IS     0

 ATOM      ATOMIC                      COORDINATES (BOHR)
           CHARGE         X                   Y                   Z
 O           8.0     2.8167310710       -0.1169173469        3.6871577582
 C           6.0    -0.1627620993       -2.1047768051        0.8855067006
 C           6.0     1.0621204914        0.4697669833        1.6815726702
 C           6.0    -2.3443751631       -1.4404814287       -0.9895172190
 C           6.0     2.5378075152        1.6397530341       -0.7138061973
 C           6.0     1.6754877525        0.1516883050       -3.1204289345
 C           6.0    -1.2242778784        0.0236782666       -3.3013701978
 C           6.0     1.7965435993       -3.7809259617       -0.5090543866
 C           6.0     2.6401550747       -2.5896804936       -3.0415895663
 C           6.0    -4.5017052480        0.0298009788        0.3252785343
 C           6.0    -0.9901975203        2.2064062687        2.8755960355
 C           6.0    -3.4883207898        2.5313824469        1.4155937374
 C           6.0    -1.1061889014       -3.6353603689        3.1793505908
 C           6.0     2.0879015521        4.5000422891       -1.1151084081
 C           6.0     5.4360046735        1.3623223618       -0.3973148889
 C           6.0    -6.7941507409        0.4694079354       -1.3995499638
 H           1.0    -3.1270807700       -3.2464547606       -1.6547574584
 H           1.0     2.4337969968        1.1219681134       -4.7921939268
 H           1.0    -1.7450674634       -0.9182367547       -5.0717221949
 H           1.0    -2.0161108618        1.9296370006       -3.4293991335
 H           1.0     3.4126372640       -4.0743626131        0.7507503404
 H           1.0     0.9523463088       -5.6492413540       -0.8187615787
 H           1.0     1.8410088518       -3.6240598075       -4.6512770599
 H           1.0     4.6938903809       -2.6799149095       -3.2617048493
 H           1.0    -5.1625235286       -1.1342702296        1.9100216448
 H           1.0    -1.4080348335        1.3708639233        4.7220284009
 H           1.0    -0.1713225580        4.0694871200        3.2729676162
 H           1.0    -3.2613080069        3.9012259181       -0.1209424632
 H           1.0    -4.9028940751        3.3604052377        2.6870013819
 H           1.0    -2.3108892186       -2.5613157065        4.4651390501
 H           1.0    -2.1941041526       -5.2745842797        2.5244282552
 H           1.0     0.4982073594       -4.3287575256        4.2810230471
 H           1.0     2.6722048275        5.6035099851        0.5376081462
 H           1.0     3.2426186169        5.1492198576       -2.7081663130
 H           1.0     0.1311280863        4.9956796211       -1.5392952006
 H           1.0     6.0266385310       -0.5305972628        0.1593416953
 H           1.0     6.3674506129        1.8450528654       -2.1852980295
 H           1.0     6.1594673707        2.6738488891        1.0326218687
 H           1.0     3.4569702356        1.4428624834        4.3879626408
 H           1.0    -7.5577512180       -1.3239042325       -2.1031894353
 H           1.0    -8.3095975995        1.4398767163       -0.3713122593
 H           1.0    -6.3131398880        1.6388648629       -3.0402289636

          INTERNUCLEAR DISTANCES (ANGS.)
          ------------------------------

                1 O          2 C          3 C          4 C          5 C     

   1 O       0.0000000    2.4063438 *  1.4439102 *  3.7515692    2.5119021 *
   2 C       2.4063438 *  0.0000000    1.5664303 *  1.5623226 *  2.5855268 *
   3 C       1.4439102 *  1.5664303 *  0.0000000    2.5038520 *  1.6124161 *
   4 C       3.7515692    1.5623226 *  2.5038520 *  0.0000000    3.0582402  
   5 C       2.5119021 *  2.5855268 *  1.6124161 *  3.0582402    0.0000000  
   6 C       3.6554552    2.6202727 *  2.5672795 *  2.5507818 *  1.5653064 *
   7 C       4.2725629    2.5481451 *  2.9107795 *  1.5647052 *  2.5631235 *
   8 C       2.9969349 *  1.5512347 *  2.5601798 *  2.5298731 *  2.8972228 *
   9 C       3.7946760    2.5660220 *  3.0927988    2.9165877 *  2.5552828 *
  10 C       4.2625307    2.5759958 *  3.0393972    1.5468360 *  3.8606874  
  11 C       2.3988236 *  2.5505797 *  1.5566823 *  2.9019324 *  2.6801521 *
  12 C       3.8132784    3.0322505    2.6473421 *  2.5306002 *  3.4148776  
  13 C       2.8014731 *  1.5423007 *  2.5814400 *  2.5778080 *  3.9692598  
  14 C       3.5462484    3.8412430    2.6520583 *  3.9227232    1.5468561 *
  15 C       2.6843249 *  3.5503257    2.6058577 *  4.3874099    1.5497470 *
  16 C       5.7626266    3.9537448    4.4656514    2.5716221 *  4.9901554  
  17 H       4.5416531    2.1523634 *  3.4494406    1.0994557 *  3.9899886  
  18 H       4.5392453    3.7189637    3.5187906    3.5044732    2.1762099 *
  19 H       5.2431318    3.3216209    3.9392208    2.2007862 *  3.5052855  
  20 H       4.6792594    3.2761931    3.2504047    2.2085452 *  2.8099586 *
  21 H       2.6267117 *  2.1612799 *  2.7517458 *  3.4744447    3.1556615  
  22 H       3.9025108    2.1632431 *  3.4984174    2.8305389 *  3.9477524  
  23 H       4.8146865    3.2179587    4.0116756    3.1615380    3.4980550  
  24 H       4.0432527    3.3932280    3.6488773    3.9683430    2.8887462 *
  25 H       4.3592684    2.7491320 *  3.4036966    2.1458155 *  4.5483016  
  26 H       2.4326674 *  2.8175735 *  2.1271355 *  3.4049647    3.5573258  
  27 H       2.7305751 *  3.5030406    2.1826175 *  3.8615688    2.8564476 *
  28 H       4.3505213    3.6157174    3.0726934    2.9046493 *  3.3087540  
  29 H       4.5115176    3.9452089    3.5477803    3.4745361    4.4239400  
  30 H       3.0340288    2.2223331 *  2.8157451 *  2.9468410 *  4.3630756  
  31 H       3.8547189    2.1728571 *  3.5225472    2.7532853 *  4.7533318  
  32 H       2.5635252 *  2.1762315 *  2.9032970 *  3.5181735    4.2575395  
  33 H       3.4564568    4.3500738    2.9107800 *  4.6470080    2.2007329 *
  34 H       4.3897398    4.6474770    3.5859972    4.6613403    2.1683737 *
  35 H       4.1217073    3.9735016    2.9805705 *  3.6606882    2.2285702 *
  36 H       2.5334343 *  3.4013395    2.7983599 *  4.4971236    2.2228436 *
  37 H       3.7769569    4.3532564    3.5494592    4.9675212    2.1737274 *
  38 H       2.6987429 *  4.1944597    2.9587615 *  5.1123041    2.1969324 *
  39 H       0.9662300 *  3.2601529    1.9804784 *  4.4553635    2.7451843 *
  40 H       6.3195113    4.2409498    5.0713811    2.8217181 *  5.6161130  
  41 H       6.3211762    4.7483181    5.1027767    3.5206206    5.7440344  
  42 H       6.0727567    4.3396858    4.6752643    2.8711894 *  4.8428107  

                6 C          7 C          8 C          9 C         10 C     

   1 O       3.6554552    4.2725629    2.9969349 *  3.7946760    4.2625307  
   2 C       2.6202727 *  2.5481451 *  1.5512347 *  2.5660220 *  2.5759958 *
   3 C       2.5672795 *  2.9107795 *  2.5601798 *  3.0927988    3.0393972  
   4 C       2.5507818 *  1.5647052 *  2.5298731 *  2.9165877 *  1.5468360 *
   5 C       1.5653064 *  2.5631235 *  2.8972228 *  2.5552828 *  3.8606874  
   6 C       0.0000000    1.5389660 *  2.4988928 *  1.5384323 *  3.7435492  
   7 C       1.5389660 *  0.0000000    2.9651593 *  2.4725080 *  2.5867053 *
   8 C       2.4988928 *  2.9651593 *  0.0000000    1.5468350 *  3.9204031  
   9 C       1.5384323 *  2.4725080 *  1.5468350 *  0.0000000    4.4021585  
  10 C       3.7435492    2.5867053 *  3.9204031    4.4021585    0.0000000  
  11 C       3.6386491    3.4689983    3.9269777    4.4650455    2.5692314 *
  12 C       3.8489548    3.0703327    4.4739519    4.8398745    1.5404099 *
  13 C       4.1588984    3.9388085    2.4849578 *  3.8824677    3.0448928  
  14 C       2.5433328 *  3.1657057    4.3965244    3.8987287    4.2821097  
  15 C       2.5390844 *  3.9096448    3.3347055    2.9189913 *  5.3196353  
  16 C       4.5766076    3.1234496    5.0938183    5.3197566    1.5358538 *
  17 H       3.2084132    2.1835063 *  2.6899893 *  3.1580696    2.1523914 *
  18 H       1.0987629 *  2.1696466 *  3.4615533    2.1743670 *  4.5975285  
  19 H       2.1594376 *  1.0963771 *  3.4112826    2.7058163 *  3.2459512  
  20 H       2.1744269 *  1.0942676 *  3.9485020    3.4398735    2.5862187 *
  21 H       3.1690262    3.9142881    1.0954061 *  2.1935563 *  4.7230960  
  22 H       3.3246228    3.4733969    1.0972219 *  2.1914951 *  4.2104366  
  23 H       2.1577956 *  2.6205883 *  2.1936674 *  1.0972831 *  4.6839459  
  24 H       2.1913747 *  3.4431391    2.1936250 *  1.0940567 *  5.4164591  
  25 H       4.5434581    3.5105329    4.1426613    4.9505222    1.0977276 *
  26 H       4.5057396    4.3063325    4.2391850    5.0852672    2.9320744 *
  27 H       4.0865154    4.1228037    4.7273383    5.0790694    3.5005845  
  28 H       3.6443336    2.8644081 *  4.8715343    4.8927956    2.1641751 *
  29 H       4.9442608    4.1169364    5.4506759    5.9191702    2.1710210 *
  30 H       4.7564891    4.3695298    3.4741223    4.7586135    2.8325571 *
  31 H       4.6218290    4.1986164    2.7678703 *  4.1519115    3.2748242  
  32 H       4.6205955    4.7154218    2.6422132 *  4.1408918    4.0868134  
  33 H       3.5140334    4.1348643    5.0182613    4.7313315    4.8087132  
  34 H       2.7801293 *  3.6114644    4.9266013    4.1114284    5.1682168  
  35 H       2.8175537 *  2.8820895 *  4.7585898    4.3019797    3.7268406  
  36 H       2.9058974 *  4.2617511    2.8450398 *  2.6959000 *  5.5799377  
  37 H       2.6856185 *  4.1733725    3.9371151    3.0988661    5.9807959  
  38 H       3.4987861    4.7427564    4.2027465    3.9843041    5.8246029  
  39 H       4.1403429    4.8226024    3.8895701    4.4941711    4.7873043  
  40 H       4.9772166    3.4847236    5.1870453    5.4605369    2.1863022 *
  41 H       5.5227196    4.1259748    6.0198382    6.3338957    2.1801587 *
  42 H       4.3002383    2.8286758 *  5.3325720    5.2397123    2.1944606 *

               11 C         12 C         13 C         14 C         15 C     

   1 O       2.3988236 *  3.8132784    2.8014731 *  3.5462484    2.6843249 *
   2 C       2.5505797 *  3.0322505    1.5423007 *  3.8412430    3.5503257  
   3 C       1.5566823 *  2.6473421 *  2.5814400 *  2.6520583 *  2.6058577 *
   4 C       2.9019324 *  2.5306002 *  2.5778080 *  3.9227232    4.3874099  
   5 C       2.6801521 *  3.4148776    3.9692598    1.5468561 *  1.5497470 *
   6 C       3.6386491    3.8489548    4.1588984    2.5433328 *  2.5390844 *
   7 C       3.4689983    3.0703327    3.9388085    3.1657057    3.9096448  
   8 C       3.9269777    4.4739519    2.4849578 *  4.3965244    3.3347055  
   9 C       4.4650455    4.8398745    3.8824677    3.8987287    2.9189913 *
  10 C       2.5692314 *  1.5404099 *  3.0448928    4.2821097    5.3196353  
  11 C       0.0000000    1.5407908 *  3.0961147    2.9301888 *  3.8422969  
  12 C       1.5407908 *  0.0000000    3.6206750    3.4038205    4.8585539  
  13 C       3.0961147    3.6206750    0.0000000    5.1531477    4.7499271  
  14 C       2.9301888 *  3.4038205    5.1531477    0.0000000    2.4577027 *
  15 C       3.8422969    4.8585539    4.7499271    2.4577027 *  0.0000000  
  16 C       3.9237667    2.5436469 *  4.4327357    5.1636902    6.5107830  
  17 H       3.9182017    3.4676640    2.7802638 *  4.9498720    5.1888634  
  18 H       4.4806893    4.6009384    5.2575084    2.6486358 *  2.8193769 *
  19 H       4.5365366    3.9960442    4.6093473    4.0888726    4.6920697  
  20 H       3.3835108    2.6984644 *  4.5972295    2.8401512 *  4.2679845  
  21 H       4.2117982    5.0674381    2.7246520 *  4.6961842    3.1292955  
  22 H       4.7073865    5.0655967    2.6074097 *  5.4065567    4.4097593  
  23 H       5.2563015    5.3731206    4.4275673    4.6905072    3.9559033  
  24 H       5.1265083    5.6990037    4.6145042    4.1985751    2.6509164 *
  25 H       2.8742051 *  2.1485133 *  2.6096809 *  5.1159578    5.8899490  
  26 H       1.0950302 *  2.1564803 *  2.7767059 *  3.9630216    4.5227980  
  27 H       1.0972654 *  2.1701482 *  4.1074319    2.6216812 *  3.8248144  
  28 H       2.1824696 *  1.0959144 *  4.5007017    2.8965381 *  4.7967418  
  29 H       2.1609927 *  1.0979342 *  4.2201053    4.2540728    5.8064556  
  30 H       2.7497898 *  3.2023596    1.0919694 *  5.3010593    5.2666499  
  31 H       4.0140084    4.2280443    1.0972663 *  5.9664617    5.5702956  
  32 H       3.6239540    4.4640927    1.0933075 *  5.5397824    4.6932109  
  33 H       2.9186268 *  3.6723873    5.4639130    1.0961154 *  2.7241243 *
  34 H       4.0215830    4.4008976    6.0507857    1.0963853 *  2.6188431 *
  35 H       2.8264546 *  2.7953655 *  5.2463707    1.0915111 *  3.4557794  
  36 H       4.2368964    5.3310068    4.4159274    3.4475890    1.0898816 *
  37 H       4.7295011    5.5645120    5.6666377    2.7245596 *  1.0970068 *
  38 H       3.9149377    5.1099669    5.2172778    2.6206499 *  1.0958211 *
  39 H       2.5183252 *  4.0390100    3.6689775    3.4091703    2.7406041 *
  40 H       4.7444557    3.5023913    4.5788578    5.9853965    7.0791875  
  41 H       4.2566249    2.7815364 *  5.0273046    5.7489655    7.2739888  
  42 H       4.2219194    2.8314962 *  5.1199905    4.8056148    6.3744198  

               16 C         17 H         18 H         19 H         20 H     

   1 O       5.7626266    4.5416531    4.5392453    5.2431318    4.6792594  
   2 C       3.9537448    2.1523634 *  3.7189637    3.3216209    3.2761931  
   3 C       4.4656514    3.4494406    3.5187906    3.9392208    3.2504047  
   4 C       2.5716221 *  1.0994557 *  3.5044732    2.2007862 *  2.2085452 *
   5 C       4.9901554    3.9899886    2.1762099 *  3.5052855    2.8099586 *
   6 C       4.5766076    3.2084132    1.0987629 *  2.1594376 *  2.1744269 *
   7 C       3.1234496    2.1835063 *  2.1696466 *  1.0963771 *  1.0942676 *
   8 C       5.0938183    2.6899893 *  3.4615533    3.4112826    3.9485020  
   9 C       5.3197566    3.1580696    2.1743670 *  2.7058163 *  3.4398735  
  10 C       1.5358538 *  2.1523914 *  4.5975285    3.2459512    2.5862187 *
  11 C       3.9237667    3.9182017    4.4806893    4.5365366    3.3835108  
  12 C       2.5436469 *  3.4676640    4.6009384    3.9960442    2.6984644 *
  13 C       4.4327357    2.7802638 *  5.2575084    4.6093473    4.5972295  
  14 C       5.1636902    4.9498720    2.6486358 *  4.0888726    2.8401512 *
  15 C       6.5107830    5.1888634    2.8193769 *  4.6920697    4.2679845  
  16 C       0.0000000    2.7659406 *  5.2142326    3.3844039    2.8537436 *
  17 H       2.7659406 *  0.0000000    4.0938620    2.3070069 *  2.9546641 *
  18 H       5.2142326    4.0938620    0.0000000    2.4652777 *  2.4995557 *
  19 H       3.3844039    2.3070069 *  2.4652777 *  0.0000000    1.7455691 *
  20 H       2.8537436 *  2.9546641 *  2.4995557 *  1.7455691 *  0.0000000  
  21 H       6.0207294    3.7132942    4.0537952    4.4420714    4.8208299  
  22 H       5.2327951    2.5441265 *  4.2278626    3.6565390    4.5233533  
  23 H       5.3417079    3.0766836    2.5321027 *  2.3876508 *  3.6361026  
  24 H       6.3800639    4.2357602    2.4766814 *  3.6601263    4.3088225  
  25 H       2.1290594 *  2.4429427 *  5.4920948    4.1150268    3.6584812  
  26 H       4.3410790    4.2643330    5.4312781    5.3252988    4.3356301  
  27 H       4.6931442    4.9228272    4.7485026    5.2114667    3.8489751  
  28 H       2.6927370 *  3.8691487    4.1660430    3.7432110    2.1419304 *
  29 H       2.8316976 *  4.2878048    5.6692643    4.9775425    3.6582560  
  30 H       4.2228045    3.2872394    5.8396056    5.1297883    4.8088001  
  31 H       4.4132076    2.5072811 *  5.6961282    4.6399189    4.9466199  
  32 H       5.5113191    3.7248810    5.6940107    5.4001437    5.4209014  
  33 H       5.7901634    5.7180548    3.6871104    5.1171758    3.7870311  
  34 H       5.9009754    5.6045365    2.4374412 *  4.3404613    3.2851691  
  35 H       4.3786388    4.6903746    2.9410677 *  3.7780646    2.2189977 *
  36 H       6.8548942    5.1430316    3.3533803    4.9616881    4.8389384  
  37 H       7.0150932    5.7080309    2.5263649 *  4.7854761    4.4851961  
  38 H       7.0714247    5.9989186    3.7499754    5.6164572    4.9444404  
  39 H       6.2507549    5.3405991    4.8909587    5.8478665    5.0564184  
  40 H       1.0965802 *  2.5668169 *  5.6263282    3.4605136    3.4722311  
  41 H       1.0967716 *  3.7592975    6.1499820    4.4509944    3.7117828  
  42 H       1.0961544 *  3.1722776    4.7285317    2.9715562 *  2.2883756 *

               21 H         22 H         23 H         24 H         25 H     

   1 O       2.6267117 *  3.9025108    4.8146865    4.0432527    4.3592684  
   2 C       2.1612799 *  2.1632431 *  3.2179587    3.3932280    2.7491320 *
   3 C       2.7517458 *  3.4984174    4.0116756    3.6488773    3.4036966  
   4 C       3.4744447    2.8305389 *  3.1615380    3.9683430    2.1458155 *
   5 C       3.1556615    3.9477524    3.4980550    2.8887462 *  4.5483016  
   6 C       3.1690262    3.3246228    2.1577956 *  2.1913747 *  4.5434581  
   7 C       3.9142881    3.4733969    2.6205883 *  3.4431391    3.5105329  
   8 C       1.0954061 *  1.0972219 *  2.1936674 *  2.1936250 *  4.1426613  
   9 C       2.1935563 *  2.1914951 *  1.0972831 *  1.0940567 *  4.9505222  
  10 C       4.7230960    4.2104366    4.6839459    5.4164591    1.0977276 *
  11 C       4.2117982    4.7073865    5.2563015    5.1265083    2.8742051 *
  12 C       5.0674381    5.0655967    5.3731206    5.6990037    2.1485133 *
  13 C       2.7246520 *  2.6074097 *  4.4275673    4.6145042    2.6096809 *
  14 C       4.6961842    5.4065567    4.6905072    4.1985751    5.1159578  
  15 C       3.1292955    4.4097593    3.9559033    2.6509164 *  5.8899490  
  16 C       6.0207294    5.2327951    5.3417079    6.3800639    2.1290594 *
  17 H       3.7132942    2.5441265 *  3.0766836    4.2357602    2.4429427 *
  18 H       4.0537952    4.2278626    2.5321027 *  2.4766814 *  5.4920948  
  19 H       4.4420714    3.6565390    2.3876508 *  3.6601263    4.1150268  
  20 H       4.8208299    4.5233533    3.6361026    4.3088225    3.6584812  
  21 H       0.0000000    1.7548145 *  2.9866742 *  2.3478951 *  4.8361542  
  22 H       1.7548145 *  0.0000000    2.3415275 *  2.8390753 *  4.2736708  
  23 H       2.9866742 *  2.3415275 *  0.0000000    1.7519886 *  5.2465772  
  24 H       2.3478951 *  2.8390753 *  1.7519886 *  0.0000000    5.9467061  
  25 H       4.8361542    4.2736708    5.2465772    5.9467061    0.0000000  
  26 H       4.3848465    4.8946359    5.8775468    5.7332709    2.8140721 *
  27 H       4.8939208    5.6117385    5.9407965    5.5984519    3.8831948  
  28 H       5.5225270    5.5362477    5.3754484    5.7107269    3.0442945  
  29 H       5.9909994    5.9810596    6.4401830    6.7761729    2.4176633 *
  30 H       3.6983679    3.6702018    5.3307018    5.5193243    2.1623158 *
  31 H       3.1760342    2.4375168 *  4.4431077    4.9544137    2.7154172 *
  32 H       2.4262326 *  2.7980280 *  4.7944072    4.6499953    3.6612898  
  33 H       5.1375150    6.0664596    5.6193407    4.9397249    5.5162552  
  34 H       5.2136041    5.9263590    4.8126227    4.2237477    6.0672502  
  35 H       5.2460199    5.6626394    4.9332272    4.8123207    4.6584679  
  36 H       2.3511816 *  3.8490378    3.7504841    2.2512959 *  6.0015944  
  37 H       3.8302631    4.9459031    3.9769676    2.6158056 *  6.6640271  
  38 H       3.8583839    5.2868902    5.0374629    3.7137516    6.3381890  
  39 H       3.4970190    4.8407732    5.5498784    4.6448585    4.9380341  
  40 H       6.1725621    5.0971625    5.2949508    6.5516256    2.4752228 *
  41 H       6.8808641    6.1766436    6.4158538    7.3785177    2.4670554 *
  42 H       6.2970588    5.5711759    5.2059853    6.2580803    3.0637113  

               26 H         27 H         28 H         29 H         30 H     

   1 O       2.4326674 *  2.7305751 *  4.3505213    4.5115176    3.0340288  
   2 C       2.8175735 *  3.5030406    3.6157174    3.9452089    2.2223331 *
   3 C       2.1271355 *  2.1826175 *  3.0726934    3.5477803    2.8157451 *
   4 C       3.4049647    3.8615688    2.9046493 *  3.4745361    2.9468410 *
   5 C       3.5573258    2.8564476 *  3.3087540    4.4239400    4.3630756  
   6 C       4.5057396    4.0865154    3.6443336    4.9442608    4.7564891  
   7 C       4.3063325    4.1228037    2.8644081 *  4.1169364    4.3695298  
   8 C       4.2391850    4.7273383    4.8715343    5.4506759    3.4741223  
   9 C       5.0852672    5.0790694    4.8927956    5.9191702    4.7586135  
  10 C       2.9320744 *  3.5005845    2.1641751 *  2.1710210 *  2.8325571 *
  11 C       1.0950302 *  1.0972654 *  2.1824696 *  2.1609927 *  2.7497898 *
  12 C       2.1564803 *  2.1701482 *  1.0959144 *  1.0979342 *  3.2023596  
  13 C       2.7767059 *  4.1074319    4.5007017    4.2201053    1.0919694 *
  14 C       3.9630216    2.6216812 *  2.8965381 *  4.2540728    5.3010593  
  15 C       4.5227980    3.8248144    4.7967418    5.8064556    5.2666499  
  16 C       4.3410790    4.6931442    2.6927370 *  2.8316976 *  4.2228045  
  17 H       4.2643330    4.9228272    3.8691487    4.2878048    3.2872394  
  18 H       5.4312781    4.7485026    4.1660430    5.6692643    5.8396056  
  19 H       5.3252988    5.2114667    3.7432110    4.9775425    5.1297883  
  20 H       4.3356301    3.8489751    2.1419304 *  3.6582560    4.8088001  
  21 H       4.3848465    4.8939208    5.5225270    5.9909994    3.6983679  
  22 H       4.8946359    5.6117385    5.5362477    5.9810596    3.6702018  
  23 H       5.8775468    5.9407965    5.3754484    6.4401830    5.3307018  
  24 H       5.7332709    5.5984519    5.7107269    6.7761729    5.5193243  
  25 H       2.8140721 *  3.8831948    3.0442945    2.4176633 *  2.1623158 *
  26 H       0.0000000    1.7480321 *  3.0532986    2.3850372 *  2.1392886 *
  27 H       1.7480321 *  0.0000000    2.4304707 *  2.5507179 *  3.7405969  
  28 H       3.0532986    2.4304707 *  0.0000000    1.7448283 *  4.2234804  
  29 H       2.3850372 *  2.5507179 *  1.7448283 *  0.0000000    3.5477395  
  30 H       2.1392886 *  3.7405969    4.2234804    3.5477395    0.0000000  
  31 H       3.7272014    5.0746864    5.0848510    4.7897708    1.7663603 *
  32 H       3.1888771    4.4900607    5.3245825    5.0434791    1.7589690 *
  33 H       3.8186298    2.2401808 *  3.2850800    4.3325863    5.4718336  
  34 H       5.0511443    3.6888923    3.7624569    5.2561200    6.3003239  
  35 H       3.9142124    2.5982108 *  2.0301502 *  3.5842564    5.2685663  
  36 H       4.7244604    4.4042734    5.4478423    6.2832673    5.0805998  
  37 H       5.5093982    4.6584530    5.3234917    6.5467645    6.2379647  
  38 H       4.5081610    3.6296258    5.0643168    5.9301901    5.5736224  
  39 H       2.5807936 *  2.4426491 *  4.4748825    4.6271269    3.7158494  
  40 H       5.0664234    5.6140460    3.7302572    3.8136373    4.4965648  
  41 H       4.5391704    4.9195599    2.9750001 *  2.6271581 *  4.5945662  
  42 H       4.8610776    4.8351367    2.5353163 *  3.2514771    5.0199394  

               31 H         32 H         33 H         34 H         35 H     

   1 O       3.8547189    2.5635252 *  3.4564568    4.3897398    4.1217073  
   2 C       2.1728571 *  2.1762315 *  4.3500738    4.6474770    3.9735016  
   3 C       3.5225472    2.9032970 *  2.9107800 *  3.5859972    2.9805705 *
   4 C       2.7532853 *  3.5181735    4.6470080    4.6613403    3.6606882  
   5 C       4.7533318    4.2575395    2.2007329 *  2.1683737 *  2.2285702 *
   6 C       4.6218290    4.6205955    3.5140334    2.7801293 *  2.8175537 *
   7 C       4.1986164    4.7154218    4.1348643    3.6114644    2.8820895 *
   8 C       2.7678703 *  2.6422132 *  5.0182613    4.9266013    4.7585898  
   9 C       4.1519115    4.1408918    4.7313315    4.1114284    4.3019797  
  10 C       3.2748242    4.0868134    4.8087132    5.1682168    3.7268406  
  11 C       4.0140084    3.6239540    2.9186268 *  4.0215830    2.8264546 *
  12 C       4.2280443    4.4640927    3.6723873    4.4008976    2.7953655 *
  13 C       1.0972663 *  1.0933075 *  5.4639130    6.0507857    5.2463707  
  14 C       5.9664617    5.5397824    1.0961154 *  1.0963853 *  1.0915111 *
  15 C       5.5702956    4.6932109    2.7241243 *  2.6188431 *  3.4557794  
  16 C       4.4132076    5.5113191    5.7901634    5.9009754    4.3786388  
  17 H       2.5072811 *  3.7248810    5.7180548    5.6045365    4.6903746  
  18 H       5.6961282    5.6940107    3.6871104    2.4374412 *  2.9410677 *
  19 H       4.6399189    5.4001437    5.1171758    4.3404613    3.7780646  
  20 H       4.9466199    5.4209014    3.7870311    3.2851691    2.2189977 *
  21 H       3.1760342    2.4262326 *  5.1375150    5.2136041    5.2460199  
  22 H       2.4375168 *  2.7980280 *  6.0664596    5.9263590    5.6626394  
  23 H       4.4431077    4.7944072    5.6193407    4.8126227    4.9332272  
  24 H       4.9544137    4.6499953    4.9397249    4.2237477    4.8123207  
  25 H       2.7154172 *  3.6612898    5.5162552    6.0672502    4.6584679  
  26 H       3.7272014    3.1888771    3.8186298    5.0511443    3.9142124  
  27 H       5.0746864    4.4900607    2.2401808 *  3.6888923    2.5982108 *
  28 H       5.0848510    5.3245825    3.2850800    3.7624569    2.0301502 *
  29 H       4.7897708    5.0434791    4.3325863    5.2561200    3.5842564  
  30 H       1.7663603 *  1.7589690 *  5.4718336    6.3003239    5.2685663  
  31 H       0.0000000    1.7732377 *  6.3932267    6.8096229    5.9728823  
  32 H       1.7732377 *  0.0000000    5.7334434    6.3987271    5.8198908  
  33 H       6.3932267    5.7334434    0.0000000    1.7604036 *  1.7662202 *
  34 H       6.8096229    6.3987271    1.7604036 *  0.0000000    1.7607539 *
  35 H       5.9728823    5.8198908    1.7662202 *  1.7607539 *  0.0000000  
  36 H       5.1761991    4.1660008    3.7050942    3.6751614    4.3695479  
  37 H       6.3978159    5.6594080    3.1393665    2.4224233 *  3.7131311  
  38 H       6.1527007    5.0657072    2.4243569 *  2.8314180 *  3.6794577  
  39 H       4.7488018    3.4326155    3.0284511    4.2379823    4.0583487  
  40 H       4.2922580    5.6670358    6.6855610    6.6708941    5.2751828  
  41 H       5.0443822    6.0912598    6.2335634    6.5385800    4.8860506  
  42 H       5.1774969    6.1623071    5.5312503    5.3899600    3.9262526  

               36 H         37 H         38 H         39 H         40 H     

   1 O       2.5334343 *  3.7769569    2.6987429 *  0.9662300 *  6.3195113  
   2 C       3.4013395    4.3532564    4.1944597    3.2601529    4.2409498  
   3 C       2.7983599 *  3.5494592    2.9587615 *  1.9804784 *  5.0713811  
   4 C       4.4971236    4.9675212    5.1123041    4.4553635    2.8217181 *
   5 C       2.2228436 *  2.1737274 *  2.1969324 *  2.7451843 *  5.6161130  
   6 C       2.9058974 *  2.6856185 *  3.4987861    4.1403429    4.9772166  
   7 C       4.2617511    4.1733725    4.7427564    4.8226024    3.4847236  
   8 C       2.8450398 *  3.9371151    4.2027465    3.8895701    5.1870453  
   9 C       2.6959000 *  3.0988661    3.9843041    4.4941711    5.4605369  
  10 C       5.5799377    5.9807959    5.8246029    4.7873043    2.1863022 *
  11 C       4.2368964    4.7295011    3.9149377    2.5183252 *  4.7444557  
  12 C       5.3310068    5.5645120    5.1099669    4.0390100    3.5023913  
  13 C       4.4159274    5.6666377    5.2172778    3.6689775    4.5788578  
  14 C       3.4475890    2.7245596 *  2.6206499 *  3.4091703    5.9853965  
  15 C       1.0898816 *  1.0970068 *  1.0958211 *  2.7406041 *  7.0791875  
  16 C       6.8548942    7.0150932    7.0714247    6.2507549    1.0965802 *
  17 H       5.1430316    5.7080309    5.9989186    5.3405991    2.5668169 *
  18 H       3.3533803    2.5263649 *  3.7499754    4.8909587    5.6263282  
  19 H       4.9616881    4.7854761    5.6164572    5.8478665    3.4605136  
  20 H       4.8389384    4.4851961    4.9444404    5.0564184    3.4722311  
  21 H       2.3511816 *  3.8302631    3.8583839    3.4970190    6.1725621  
  22 H       3.8490378    4.9459031    5.2868902    4.8407732    5.0971625  
  23 H       3.7504841    3.9769676    5.0374629    5.5498784    5.2949508  
  24 H       2.2512959 *  2.6158056 *  3.7137516    4.6448585    6.5516256  
  25 H       6.0015944    6.6640271    6.3381890    4.9380341    2.4752228 *
  26 H       4.7244604    5.5093982    4.5081610    2.5807936 *  5.0664234  
  27 H       4.4042734    4.6584530    3.6296258    2.4426491 *  5.6140460  
  28 H       5.4478423    5.3234917    5.0643168    4.4748825    3.7302572  
  29 H       6.2832673    6.5467645    5.9301901    4.6271269    3.8136373  
  30 H       5.0805998    6.2379647    5.5736224    3.7158494    4.4965648  
  31 H       5.1761991    6.3978159    6.1527007    4.7488018    4.2922580  
  32 H       4.1660008    5.6594080    5.0657072    3.4326155    5.6670358  
  33 H       3.7050942    3.1393665    2.4243569 *  3.0284511    6.6855610  
  34 H       3.6751614    2.4224233 *  2.8314180 *  4.2379823    6.6708941  
  35 H       4.3695479    3.7131311    3.6794577    4.0583487    5.2751828  
  36 H       0.0000000    1.7754825 *  1.7589661 *  2.8190288 *  7.2996550  
  37 H       1.7754825 *  0.0000000    1.7618637 *  3.8100912    7.5574270  
  38 H       1.7589661 *  1.7618637 *  0.0000000    2.3711115 *  7.7407875  
  39 H       2.8190288 *  3.8100912    2.3711115 *  0.0000000    6.9221996  
  40 H       7.2996550    7.5574270    7.7407875    6.9221996    0.0000000  
  41 H       7.6628818    7.8287917    7.7203236    6.7166504    1.7712154 *
  42 H       6.8428563    6.7263986    6.9647695    6.4955618    1.7713691 *

               41 H         42 H     

   1 O       6.3211762    6.0727567  
   2 C       4.7483181    4.3396858  
   3 C       5.1027767    4.6752643  
   4 C       3.5206206    2.8711894 *
   5 C       5.7440344    4.8428107  
   6 C       5.5227196    4.3002383  
   7 C       4.1259748    2.8286758 *
   8 C       6.0198382    5.3325720  
   9 C       6.3338957    5.2397123  
  10 C       2.1801587 *  2.1944606 *
  11 C       4.2566249    4.2219194  
  12 C       2.7815364 *  2.8314962 *
  13 C       5.0273046    5.1199905  
  14 C       5.7489655    4.8056148  
  15 C       7.2739888    6.3744198  
  16 C       1.0967716 *  1.0961544 *
  17 H       3.7592975    3.1722776  
  18 H       6.1499820    4.7285317  
  19 H       4.4509944    2.9715562 *
  20 H       3.7117828    2.2883756 *
  21 H       6.8808641    6.2970588  
  22 H       6.1766436    5.5711759  
  23 H       6.4158538    5.2059853  
  24 H       7.3785177    6.2580803  
  25 H       2.4670554 *  3.0637113  
  26 H       4.5391704    4.8610776  
  27 H       4.9195599    4.8351367  
  28 H       2.9750001 *  2.5353163 *
  29 H       2.6271581 *  3.2514771  
  30 H       4.5945662    5.0199394  
  31 H       5.0443822    5.1774969  
  32 H       6.0912598    6.1623071  
  33 H       6.2335634    5.5312503  
  34 H       6.5385800    5.3899600  
  35 H       4.8860506    3.9262526  
  36 H       7.6628818    6.8428563  
  37 H       7.8287917    6.7263986  
  38 H       7.7203236    6.9647695  
  39 H       6.7166504    6.4955618  
  40 H       1.7712154 *  1.7713691 *
  41 H       0.0000000    1.7668939 *
  42 H       1.7668939 *  0.0000000  

  * ... LESS THAN  3.000


     ATOMIC BASIS SET
     ----------------
 THE CONTRACTED PRIMITIVE FUNCTIONS HAVE BEEN UNNORMALIZED
 THE CONTRACTED BASIS FUNCTIONS ARE NOW NORMALIZED TO UNITY

  SHELL TYPE  PRIMITIVE        EXPONENT          CONTRACTION COEFFICIENT(S)

 O         

      1   S       1           322.0370000    0.059239393389
      1   S       2            48.4308000    0.351499960776
      1   S       3            10.4206000    0.707657921031

      2   L       4             7.4029400   -0.404453583190    0.244586106967
      2   L       5             1.5762000    1.221561761397    0.853955373466

      3   L       6             0.3736840    1.000000000000    1.000000000000

 C         

      4   S       7           172.2560000    0.061766907377
      4   S       8            25.9109000    0.358794042852
      4   S       9             5.5333500    0.700713083689

      5   L      10             3.6649800   -0.395895162119    0.236459946619
      5   L      11             0.7705450    1.215834355681    0.860618805716

      6   L      12             0.1958570    1.000000000000    1.000000000000

 C         

      7   S      13           172.2560000    0.061766907377
      7   S      14            25.9109000    0.358794042852
      7   S      15             5.5333500    0.700713083689

      8   L      16             3.6649800   -0.395895162119    0.236459946619
      8   L      17             0.7705450    1.215834355681    0.860618805716

      9   L      18             0.1958570    1.000000000000    1.000000000000

 C         

     10   S      19           172.2560000    0.061766907377
     10   S      20            25.9109000    0.358794042852
     10   S      21             5.5333500    0.700713083689

     11   L      22             3.6649800   -0.395895162119    0.236459946619
     11   L      23             0.7705450    1.215834355681    0.860618805716

     12   L      24             0.1958570    1.000000000000    1.000000000000

 C         

     13   S      25           172.2560000    0.061766907377
     13   S      26            25.9109000    0.358794042852
     13   S      27             5.5333500    0.700713083689

     14   L      28             3.6649800   -0.395895162119    0.236459946619
     14   L      29             0.7705450    1.215834355681    0.860618805716

     15   L      30             0.1958570    1.000000000000    1.000000000000

 C         

     16   S      31           172.2560000    0.061766907377
     16   S      32            25.9109000    0.358794042852
     16   S      33             5.5333500    0.700713083689

     17   L      34             3.6649800   -0.395895162119    0.236459946619
     17   L      35             0.7705450    1.215834355681    0.860618805716

     18   L      36             0.1958570    1.000000000000    1.000000000000

 C         

     19   S      37           172.2560000    0.061766907377
     19   S      38            25.9109000    0.358794042852
     19   S      39             5.5333500    0.700713083689

     20   L      40             3.6649800   -0.395895162119    0.236459946619
     20   L      41             0.7705450    1.215834355681    0.860618805716

     21   L      42             0.1958570    1.000000000000    1.000000000000

 C         

     22   S      43           172.2560000    0.061766907377
     22   S      44            25.9109000    0.358794042852
     22   S      45             5.5333500    0.700713083689

     23   L      46             3.6649800   -0.395895162119    0.236459946619
     23   L      47             0.7705450    1.215834355681    0.860618805716

     24   L      48             0.1958570    1.000000000000    1.000000000000

 C         

     25   S      49           172.2560000    0.061766907377
     25   S      50            25.9109000    0.358794042852
     25   S      51             5.5333500    0.700713083689

     26   L      52             3.6649800   -0.395895162119    0.236459946619
     26   L      53             0.7705450    1.215834355681    0.860618805716

     27   L      54             0.1958570    1.000000000000    1.000000000000

 C         

     28   S      55           172.2560000    0.061766907377
     28   S      56            25.9109000    0.358794042852
     28   S      57             5.5333500    0.700713083689

     29   L      58             3.6649800   -0.395895162119    0.236459946619
     29   L      59             0.7705450    1.215834355681    0.860618805716

     30   L      60             0.1958570    1.000000000000    1.000000000000

 C         

     31   S      61           172.2560000    0.061766907377
     31   S      62            25.9109000    0.358794042852
     31   S      63             5.5333500    0.700713083689

     32   L      64             3.6649800   -0.395895162119    0.236459946619
     32   L      65             0.7705450    1.215834355681    0.860618805716

     33   L      66             0.1958570    1.000000000000    1.000000000000

 C         

     34   S      67           172.2560000    0.061766907377
     34   S      68            25.9109000    0.358794042852
     34   S      69             5.5333500    0.700713083689

     35   L      70             3.6649800   -0.395895162119    0.236459946619
     35   L      71             0.7705450    1.215834355681    0.860618805716

     36   L      72             0.1958570    1.000000000000    1.000000000000

 C         

     37   S      73           172.2560000    0.061766907377
     37   S      74            25.9109000    0.358794042852
     37   S      75             5.5333500    0.700713083689

     38   L      76             3.6649800   -0.395895162119    0.236459946619
     38   L      77             0.7705450    1.215834355681    0.860618805716

     39   L      78             0.1958570    1.000000000000    1.000000000000

 C         

     40   S      79           172.2560000    0.061766907377
     40   S      80            25.9109000    0.358794042852
     40   S      81             5.5333500    0.700713083689

     41   L      82             3.6649800   -0.395895162119    0.236459946619
     41   L      83             0.7705450    1.215834355681    0.860618805716

     42   L      84             0.1958570    1.000000000000    1.000000000000

 C         

     43   S      85           172.2560000    0.061766907377
     43   S      86            25.9109000    0.358794042852
     43   S      87             5.5333500    0.700713083689

     44   L      88             3.6649800   -0.395895162119    0.236459946619
     44   L      89             0.7705450    1.215834355681    0.860618805716

     45   L      90             0.1958570    1.000000000000    1.000000000000

 C         

     46   S      91           172.2560000    0.061766907377
     46   S      92            25.9109000    0.358794042852
     46   S      93             5.5333500    0.700713083689

     47   L      94             3.6649800   -0.395895162119    0.236459946619
     47   L      95             0.7705450    1.215834355681    0.860618805716

     48   L      96             0.1958570    1.000000000000    1.000000000000

 H         

     49   S      97             5.4471780    0.156284978695
     49   S      98             0.8245472    0.904690876670

     50   S      99             0.1831916    1.000000000000

 H         

     51   S     100             5.4471780    0.156284978695
     51   S     101             0.8245472    0.904690876670

     52   S     102             0.1831916    1.000000000000

 H         

     53   S     103             5.4471780    0.156284978695
     53   S     104             0.8245472    0.904690876670

     54   S     105             0.1831916    1.000000000000

 H         

     55   S     106             5.4471780    0.156284978695
     55   S     107             0.8245472    0.904690876670

     56   S     108             0.1831916    1.000000000000

 H         

     57   S     109             5.4471780    0.156284978695
     57   S     110             0.8245472    0.904690876670

     58   S     111             0.1831916    1.000000000000

 H         

     59   S     112             5.4471780    0.156284978695
     59   S     113             0.8245472    0.904690876670

     60   S     114             0.1831916    1.000000000000

 H         

     61   S     115             5.4471780    0.156284978695
     61   S     116             0.8245472    0.904690876670

     62   S     117             0.1831916    1.000000000000

 H         

     63   S     118             5.4471780    0.156284978695
     63   S     119             0.8245472    0.904690876670

     64   S     120             0.1831916    1.000000000000

 H         

     65   S     121             5.4471780    0.156284978695
     65   S     122             0.8245472    0.904690876670

     66   S     123             0.1831916    1.000000000000

 H         

     67   S     124             5.4471780    0.156284978695
     67   S     125             0.8245472    0.904690876670

     68   S     126             0.1831916    1.000000000000

 H         

     69   S     127             5.4471780    0.156284978695
     69   S     128             0.8245472    0.904690876670

     70   S     129             0.1831916    1.000000000000

 H         

     71   S     130             5.4471780    0.156284978695
     71   S     131             0.8245472    0.904690876670

     72   S     132             0.1831916    1.000000000000

 H         

     73   S     133             5.4471780    0.156284978695
     73   S     134             0.8245472    0.904690876670

     74   S     135             0.1831916    1.000000000000

 H         

     75   S     136             5.4471780    0.156284978695
     75   S     137             0.8245472    0.904690876670

     76   S     138             0.1831916    1.000000000000

 H         

     77   S     139             5.4471780    0.156284978695
     77   S     140             0.8245472    0.904690876670

     78   S     141             0.1831916    1.000000000000

 H         

     79   S     142             5.4471780    0.156284978695
     79   S     143             0.8245472    0.904690876670

     80   S     144             0.1831916    1.000000000000

 H         

     81   S     145             5.4471780    0.156284978695
     81   S     146             0.8245472    0.904690876670

     82   S     147             0.1831916    1.000000000000

 H         

     83   S     148             5.4471780    0.156284978695
     83   S     149             0.8245472    0.904690876670

     84   S     150             0.1831916    1.000000000000

 H         

     85   S     151             5.4471780    0.156284978695
     85   S     152             0.8245472    0.904690876670

     86   S     153             0.1831916    1.000000000000

 H         

     87   S     154             5.4471780    0.156284978695
     87   S     155             0.8245472    0.904690876670

     88   S     156             0.1831916    1.000000000000

 H         

     89   S     157             5.4471780    0.156284978695
     89   S     158             0.8245472    0.904690876670

     90   S     159             0.1831916    1.000000000000

 H         

     91   S     160             5.4471780    0.156284978695
     91   S     161             0.8245472    0.904690876670

     92   S     162             0.1831916    1.000000000000

 H         

     93   S     163             5.4471780    0.156284978695
     93   S     164             0.8245472    0.904690876670

     94   S     165             0.1831916    1.000000000000

 H         

     95   S     166             5.4471780    0.156284978695
     95   S     167             0.8245472    0.904690876670

     96   S     168             0.1831916    1.000000000000

 H         

     97   S     169             5.4471780    0.156284978695
     97   S     170             0.8245472    0.904690876670

     98   S     171             0.1831916    1.000000000000

 H         

     99   S     172             5.4471780    0.156284978695
     99   S     173             0.8245472    0.904690876670

    100   S     174             0.1831916    1.000000000000

 TOTAL NUMBER OF BASIS SET SHELLS             =  100
 NUMBER OF CARTESIAN GAUSSIAN BASIS FUNCTIONS =  196
 NUMBER OF ELECTRONS                          =  124
 CHARGE OF MOLECULE                           =    0
 SPIN MULTIPLICITY                            =    1
 NUMBER OF OCCUPIED ORBITALS (ALPHA)          =   62
 NUMBER OF OCCUPIED ORBITALS (BETA )          =   62
 TOTAL NUMBER OF ATOMS                        =   42
 THE NUCLEAR REPULSION ENERGY IS     1326.9880346118

     $CONTRL OPTIONS
     ---------------
 SCFTYP=RHF          RUNTYP=ENERGY       EXETYP=RUN     
 MPLEVL=       0     CITYP =NONE         CCTYP =NONE         VBTYP =NONE    
 DFTTYP=NONE         TDDFT =NONE    
 MULT  =       1     ICHARG=       0     NZVAR =       0     COORD =UNIQUE  
 PP    =NONE         RELWFN=NONE         LOCAL =NONE         NUMGRD=       F
 ISPHER=      -1     NOSYM =       0     MAXIT =      60     UNITS =ANGS    
 PLTORB=       F     MOLPLT=       F     AIMPAC=       F     FRIEND=        
 NPRINT=       7     IREST =       0     GEOM  =INPUT   
 NORMF =       0     NORMP =       0     ITOL  =      20     ICUT  =       9
 INTTYP=BEST         GRDTYP=BEST         QMTTOL= 1.0E-06

     $SYSTEM OPTIONS
     ---------------
  REPLICATED MEMORY=    30000000 WORDS (ON EVERY NODE).
 DISTRIBUTED MEMDDI=        1000 MILLION WORDS IN AGGREGATE,
 MEMDDI DISTRIBUTED OVER   6 PROCESSORS IS   166666666 WORDS/PROCESSOR.
 TOTAL MEMORY REQUESTED ON EACH PROCESSOR=   196666666 WORDS.
 TIMLIM=      525600.00 MINUTES, OR     365.0 DAYS.
 PARALL= T  BALTYP=  DLB     KDIAG=    0  COREFL= F
 MXSEQ2=     300 MXSEQ3=     150  mem10=         0

          ----------------
          PROPERTIES INPUT
          ----------------

     MOMENTS            FIELD           POTENTIAL          DENSITY
 IEMOM =       1   IEFLD =       0   IEPOT =       0   IEDEN =       0
 WHERE =COMASS     WHERE =NUCLEI     WHERE =NUCLEI     WHERE =NUCLEI  
 OUTPUT=BOTH       OUTPUT=BOTH       OUTPUT=BOTH       OUTPUT=BOTH    
 IEMINT=       0   IEFINT=       0                     IEDINT=       0
                                                       MORB  =       0
          EXTRAPOLATION IN EFFECT
          SOSCF IN EFFECT
 ORBITAL PRINTING OPTION: NPREO=     1   196     2     1

     -------------------------------
     INTEGRAL TRANSFORMATION OPTIONS
     -------------------------------
     NWORD  =            0
     CUTOFF = 1.0E-09     MPTRAN =       0
     DIRTRF =       T     AOINTS =DUP     

          ----------------------
          INTEGRAL INPUT OPTIONS
          ----------------------
 NOPK  =       1 NORDER=       0 SCHWRZ=       T

     ------------------------------------------
     THE POINT GROUP IS C1 , NAXIS= 0, ORDER= 1
     ------------------------------------------

     DIMENSIONS OF THE SYMMETRY SUBSPACES ARE
 A   =  196

 ..... DONE SETTING UP THE RUN .....
 CPU     0: STEP CPU TIME=     0.03 TOTAL CPU TIME=          0.0 (      0.0 MIN)
 TOTAL WALL CLOCK TIME=          0.0 SECONDS, CPU UTILIZATION IS    75.00%

          ********************
          1 ELECTRON INTEGRALS
          ********************
 ...... END OF ONE-ELECTRON INTEGRALS ......
 CPU     0: STEP CPU TIME=     0.02 TOTAL CPU TIME=          0.0 (      0.0 MIN)
 TOTAL WALL CLOCK TIME=          0.1 SECONDS, CPU UTILIZATION IS    71.43%

          -------------
          GUESS OPTIONS
          -------------
          GUESS =HUCKEL            NORB  =       0          NORDER=       0
          MIX   =       F          PRTMO =       F          PUNMO =       F
          TOLZ  = 1.0E-08          TOLE  = 1.0E-05
          SYMDEN=       F          PURIFY=       F

 INITIAL GUESS ORBITALS GENERATED BY HUCKEL   ROUTINE.
 HUCKEL GUESS REQUIRES    353998 WORDS.

 SYMMETRIES FOR INITIAL GUESS ORBITALS FOLLOW.   BOTH SET(S).
    62 ORBITALS ARE OCCUPIED (   16 CORE ORBITALS).
    17=A       18=A       19=A       20=A       21=A       22=A       23=A   
    24=A       25=A       26=A       27=A       28=A       29=A       30=A   
    31=A       32=A       33=A       34=A       35=A       36=A       37=A   
    38=A       39=A       40=A       41=A       42=A       43=A       44=A   
    45=A       46=A       47=A       48=A       49=A       50=A       51=A   
    52=A       53=A       54=A       55=A       56=A       57=A       58=A   
    59=A       60=A       61=A       62=A       63=A       64=A       65=A   
    66=A       67=A       68=A       69=A       70=A       71=A       72=A   
 ...... END OF INITIAL ORBITAL SELECTION ......
 CPU     0: STEP CPU TIME=     0.06 TOTAL CPU TIME=          0.1 (      0.0 MIN)
 TOTAL WALL CLOCK TIME=          0.2 SECONDS, CPU UTILIZATION IS    50.00%

                    ----------------------
                    AO INTEGRAL TECHNOLOGY
                    ----------------------
     S,P,L SHELL ROTATED AXIS INTEGRALS, REPROGRAMMED BY
        KAZUYA ISHIMURA (IMS) AND JOSE SIERRA (SYNSTAR).
     S,P,D,L SHELL ROTATED AXIS INTEGRALS PROGRAMMED BY
        KAZUYA ISHIMURA (INSTITUTE FOR MOLECULAR SCIENCE).
     S,P,D,F,G SHELL TO TOTAL QUARTET ANGULAR MOMENTUM SUM 5,
        ERIC PROGRAM BY GRAHAM FLETCHER (ELORET AND NASA ADVANCED
        SUPERCOMPUTING DIVISION, AMES RESEARCH CENTER).
     S,P,D,F,G,L SHELL GENERAL RYS QUADRATURE PROGRAMMED BY
        MICHEL DUPUIS (PACIFIC NORTHWEST NATIONAL LABORATORY).

          --------------------
          2 ELECTRON INTEGRALS
          --------------------

 DIRECT SCF METHOD SKIPS INTEGRAL STORAGE ON DISK.
 DIRECT TRANSFORMATION SKIPS AO INTEGRAL STORAGE ON DISK.
  ...... END OF TWO-ELECTRON INTEGRALS .....
 CPU     0: STEP CPU TIME=     0.02 TOTAL CPU TIME=          0.1 (      0.0 MIN)
 TOTAL WALL CLOCK TIME=          0.2 SECONDS, CPU UTILIZATION IS    54.17%

          --------------------------
                 RHF SCF CALCULATION
          --------------------------

     NUCLEAR ENERGY =      1326.9880346118
     MAXIT =   60     NPUNCH=    2
     EXTRAP=T  DAMP=F  SHIFT=F  RSTRCT=F  DIIS=F  DEM=F  SOSCF=T
     DENSITY MATRIX CONV=  2.00E-05
     SOSCF WILL OPTIMIZE    8308 ORBITAL ROTATIONS, SOGTOL=   0.250
     MEMORY REQUIRED FOR RHF ITERS=    359344 WORDS.

 DIRECT SCF CALCULATION, SCHWRZ=T   FDIFF=T,  DIRTHR=  0.00E+00 NITDIR=10
 SCHWARZ INEQUALITY OVERHEAD:     18343 INTEGRALS, T=        0.00

                                                                                   NONZERO     BLOCKS
 ITER EX DEM     TOTAL ENERGY        E CHANGE  DENSITY CHANGE     ORB. GRAD      INTEGRALS    SKIPPED
   1  0  0     -653.0723179522  -653.0723179522   0.840551728   0.000000000      113327479    7049207
          ---------------START SECOND ORDER SCF---------------
   2  1  0     -654.3266084638    -1.2542905116   0.150848839   0.039833599      112764674    7196982
   3  2  0     -654.3853947582    -0.0587862944   0.120395587   0.008978284      110418019    7554579
   4  3  0     -654.3984487029    -0.0130539447   0.012317827   0.003547261      107314813    7930195
   5  4  0     -654.3987459111    -0.0002972083   0.002194373   0.000791685      100538740    8449167
   6  5  0     -654.3987879111    -0.0000420000   0.000628143   0.000136502       94218155    8851775
   7  6  0     -654.3987899637    -0.0000020526   0.000347493   0.000060238       85597344    9387693
   8  7  0     -654.3987902412    -0.0000002775   0.000087282   0.000031657       80573625    9678332
   9  8  0     -654.3987902630    -0.0000000218   0.000016674   0.000004206       71924052   10130639
  10  9  0     -654.3987902691    -0.0000000061   0.000005769   0.000000710       65057382   10449931

          -----------------
          DENSITY CONVERGED
          -----------------
     TIME TO FORM FOCK OPERATORS=      18.8 SECONDS (       1.9 SEC/ITER)
     FOCK TIME ON FIRST ITERATION=       2.0, LAST ITERATION=       1.3
     TIME TO SOLVE SCF EQUATIONS=       0.2 SECONDS (       0.0 SEC/ITER)

 FINAL RHF ENERGY IS     -654.3987902691 AFTER  10 ITERATIONS

          ------------
          EIGENVECTORS
          ------------

                      1          2          3          4          5
                  -20.4357   -11.2276   -11.1801   -11.1707   -11.1650
                     A          A          A          A          A   
    1  O  1  S    0.983660  -0.000314   0.000099   0.000102   0.000032
    2  O  1  S    0.099400  -0.001366   0.000600   0.000522   0.000254
    3  O  1  X   -0.001357  -0.000279   0.000249   0.000228  -0.000017
    4  O  1  Y    0.003083   0.000298  -0.000004   0.000140   0.000029
    5  O  1  Z   -0.001749  -0.000245  -0.000113   0.000220  -0.000053
    6  O  1  S   -0.051477   0.012253  -0.002912  -0.003529  -0.001343
    7  O  1  X    0.006472  -0.003696  -0.000601   0.000460   0.000290
    8  O  1  Y   -0.007037   0.000254  -0.000889   0.000056  -0.000204
    9  O  1  Z    0.007766  -0.004405   0.002569   0.001024   0.000543
   10  C  2  S    0.000309  -0.001836  -0.004495   0.987228   0.024309
   11  C  2  S    0.001452  -0.002702  -0.000167   0.114150   0.002002
   12  C  2  X   -0.000070   0.000540  -0.000272   0.000347   0.001164
   13  C  2  Y   -0.000532   0.001056  -0.000529   0.000538  -0.000386
   14  C  2  Z    0.000102   0.000515  -0.000248  -0.001106   0.000007
   15  C  2  S   -0.007643   0.020435  -0.003110  -0.130503  -0.002891
   16  C  2  X   -0.003330   0.008337  -0.003715  -0.003417  -0.003479
   17  C  2  Y   -0.000970   0.014872  -0.000670  -0.005191   0.002211
   18  C  2  Z   -0.004927   0.005393   0.001739   0.008961   0.000999
   19  C  3  S   -0.001154   0.989008   0.002717   0.000490  -0.001095
   20  C  3  S   -0.005113   0.109779  -0.004338  -0.003620   0.000589
   21  C  3  X    0.000353  -0.000752   0.000375  -0.000704  -0.000257
   22  C  3  Y    0.000068  -0.000398  -0.000023  -0.001079   0.000101
   23  C  3  Z    0.000203  -0.000343  -0.000490  -0.000649  -0.000400
   24  C  3  S    0.028894  -0.111545   0.031050   0.033029  -0.001093
   25  C  3  X    0.011823   0.007778   0.010559  -0.003013   0.002810
   26  C  3  Y   -0.004532   0.000918   0.006897  -0.017181  -0.000569
   27  C  3  Z    0.014825   0.006101  -0.014654  -0.008646   0.001993
   28  C  4  S   -0.000202  -0.005260   0.003839  -0.007069  -0.029998
   29  C  4  S   -0.001396  -0.003391   0.001185  -0.004200  -0.005488
   30  C  4  X   -0.000402  -0.001347   0.000220   0.001303  -0.000643
   31  C  4  Y   -0.000696  -0.000932   0.000019  -0.000342   0.000225
   32  C  4  Z   -0.000293  -0.000992   0.000173   0.000677   0.000190
   33  C  4  S    0.003585   0.006610  -0.002389   0.033779   0.024633
   34  C  4  X    0.000943   0.002935  -0.001580   0.015262  -0.012021
   35  C  4  Y    0.005843   0.004089  -0.001167  -0.003197   0.008584
   36  C  4  Z    0.000735   0.005502  -0.000967   0.009315   0.006687
   37  C  5  S    0.000322  -0.004409   0.989165   0.004583  -0.000377
   38  C  5  S    0.001614  -0.004439   0.112368   0.001650  -0.000243
   39  C  5  X    0.000999  -0.000128   0.000343   0.000501  -0.000285
   40  C  5  Y    0.000098  -0.000233  -0.000080   0.000189  -0.000088
   41  C  5  Z    0.000268   0.000453  -0.000280  -0.000071   0.000088
   42  C  5  S   -0.007165   0.024876  -0.123132  -0.013144   0.002375
   43  C  5  X   -0.008235  -0.012384  -0.000742   0.004660   0.000220
   44  C  5  Y    0.002133  -0.006403   0.002748   0.008911  -0.000072
   45  C  5  Z   -0.006871   0.013299  -0.000545   0.002045  -0.000738
   46  C  6  S   -0.000047  -0.001101  -0.005030  -0.058812  -0.004134
   47  C  6  S   -0.000353  -0.000307  -0.003631  -0.011764  -0.000570
   48  C  6  X   -0.000004  -0.000273   0.000639   0.000845  -0.000003
   49  C  6  Y    0.000136  -0.000731   0.001110   0.001098   0.000211
   50  C  6  Z   -0.000352  -0.000775   0.000923  -0.001455   0.000146
   51  C  6  S   -0.000842  -0.001151   0.026736   0.028902   0.000549
   52  C  6  X    0.000098   0.003063   0.005495  -0.005486  -0.000290
   53  C  6  Y   -0.002829   0.001404   0.005787  -0.008060  -0.001483
   54  C  6  Z    0.001206  -0.001385   0.013506   0.011969  -0.001128
   55  C  7  S    0.000069  -0.000895  -0.007213  -0.005399  -0.014779
   56  C  7  S    0.000278  -0.000397  -0.002061   0.000044  -0.002536
   57  C  7  X    0.000051   0.000131  -0.001015  -0.000696   0.000644
   58  C  7  Y    0.000171   0.000165  -0.000482   0.000451   0.000142
   59  C  7  Z   -0.000115  -0.000564  -0.000654  -0.000789  -0.000965
   60  C  7  S   -0.002539   0.001021   0.001970  -0.012353   0.000546
   61  C  7  X    0.000392   0.000650   0.001239  -0.005391  -0.000318
   62  C  7  Y   -0.000080  -0.001379   0.001346   0.001788  -0.001064
   63  C  7  Z   -0.002389  -0.000275   0.001533  -0.003987   0.001540
   64  C  8  S    0.000055  -0.002643  -0.002366  -0.000747  -0.005989
   65  C  8  S    0.000613  -0.001803  -0.000893  -0.003144  -0.001775
   66  C  8  X    0.000037   0.000189  -0.000382  -0.001247   0.000325
   67  C  8  Y    0.000468  -0.001132  -0.000355   0.001204  -0.000095
   68  C  8  Z    0.000148  -0.000530   0.000088   0.000827   0.000218
   69  C  8  S   -0.000234   0.002683   0.003503   0.033910   0.005048
   70  C  8  X   -0.000863  -0.000678   0.000605  -0.010413  -0.003328
   71  C  8  Y   -0.001334   0.002702   0.002116   0.011427   0.001775
   72  C  8  Z    0.001073  -0.000179   0.000443   0.004127   0.000286
   73  C  9  S   -0.000020   0.001338  -0.005299  -0.002658  -0.001919
   74  C  9  S   -0.000156   0.001176  -0.001302   0.000807  -0.000248
   75  C  9  X   -0.000033  -0.000093   0.000197   0.000473   0.000290
   76  C  9  Y   -0.000138   0.000374  -0.000906  -0.000538   0.000020
   77  C  9  Z    0.000014   0.000095  -0.000544  -0.000787  -0.000270
   78  C  9  S   -0.000012  -0.002638  -0.002135  -0.014813  -0.001604
   79  C  9  X    0.000705   0.000214   0.000356   0.005211  -0.000040
   80  C  9  Y   -0.000739  -0.001503  -0.000448  -0.004659  -0.000519
   81  C  9  Z    0.000830  -0.002025  -0.000468  -0.003777   0.000600
   82  C 10  S    0.000132   0.001140   0.000278  -0.025198   0.987306
   83  C 10  S    0.000660   0.001149  -0.000132  -0.003456   0.108430
   84  C 10  X   -0.000283   0.000181   0.000207  -0.000921   0.000193
   85  C 10  Y    0.000232  -0.000061  -0.000105   0.000380   0.000353
   86  C 10  Z   -0.000204   0.000635   0.000011  -0.000088  -0.000400
   87  C 10  S   -0.005234  -0.004367   0.001867   0.001890  -0.108463
   88  C 10  X   -0.001638  -0.005037   0.000052   0.001328  -0.004050
   89  C 10  Y   -0.002084   0.001515   0.001165   0.000690  -0.003526
   90  C 10  Z    0.001977  -0.002923   0.000358   0.001402   0.005118
   91  C 11  S    0.000174  -0.002461  -0.004196  -0.017633  -0.022968
   92  C 11  S    0.000390  -0.003653  -0.000530  -0.003282  -0.003109
   93  C 11  X   -0.000404   0.000785  -0.000463  -0.000343   0.000969
   94  C 11  Y    0.000283  -0.000574   0.000475   0.000993   0.000314
   95  C 11  Z    0.000085  -0.000112   0.000405   0.000292   0.000282
   96  C 11  S   -0.004078   0.025812  -0.000800   0.005123   0.002262
   97  C 11  X   -0.004979   0.011255  -0.001384   0.000970  -0.001524
   98  C 11  Y    0.003006  -0.010247  -0.002692  -0.001809  -0.000508
   99  C 11  Z   -0.002383  -0.007980   0.001780  -0.000130   0.000075
  100  C 12  S   -0.000062  -0.001925   0.001166   0.004091  -0.016002
  101  C 12  S   -0.000476  -0.000893   0.000352   0.001172  -0.004117
  102  C 12  X   -0.000431  -0.001115  -0.000005   0.000048  -0.000610
  103  C 12  Y    0.000096   0.000085  -0.000156   0.000227  -0.000741
  104  C 12  Z    0.000153  -0.000272   0.000158  -0.000310  -0.000449
  105  C 12  S    0.000310   0.001074  -0.000922  -0.003901   0.024687
  106  C 12  X   -0.000138   0.000927   0.000910  -0.001113  -0.004571
  107  C 12  Y   -0.001930  -0.000392   0.001830   0.000937  -0.011759
  108  C 12  Z   -0.002949   0.001275  -0.000600   0.001776  -0.007228
  109  C 13  S   -0.000004  -0.002407  -0.001724  -0.000120  -0.000453
  110  C 13  S    0.000186  -0.001697  -0.000832  -0.002142   0.000016
  111  C 13  X    0.000148  -0.000581  -0.000205   0.000483  -0.000030
  112  C 13  Y    0.000290  -0.000962  -0.000340   0.000683  -0.000188
  113  C 13  Z   -0.000217   0.000167  -0.000017  -0.001103  -0.000186
  114  C 13  S    0.002060   0.002488   0.000809   0.021886   0.000711
  115  C 13  X    0.000445   0.000941   0.001554   0.003634   0.001079
  116  C 13  Y    0.000229   0.001206   0.001481   0.006339  -0.000096
  117  C 13  Z   -0.001053  -0.000502   0.000961  -0.009369   0.001324
  118  C 14  S   -0.000016  -0.000907  -0.001512  -0.001023  -0.001974
  119  C 14  S   -0.000036  -0.000100  -0.002733  -0.000365  -0.000417
  120  C 14  X    0.000085  -0.000008   0.000512   0.000008  -0.000038
  121  C 14  Y   -0.000112   0.000675  -0.001381   0.000096  -0.000037
  122  C 14  Z    0.000047  -0.000224  -0.000026  -0.000077  -0.000014
  123  C 14  S   -0.000397  -0.001730   0.025366  -0.000788   0.000833
  124  C 14  X    0.001162   0.002089   0.000723  -0.001578  -0.000283
  125  C 14  Y    0.001045   0.000520  -0.013398  -0.000112   0.000547
  126  C 14  Z    0.001613  -0.001867   0.002824  -0.000236   0.000184
  127  C 15  S   -0.000193  -0.002375  -0.000857   0.002315   0.001330
  128  C 15  S   -0.001081  -0.001453  -0.002682   0.000496   0.000389
  129  C 15  X   -0.000396   0.001016  -0.001671  -0.000481  -0.000059
  130  C 15  Y    0.000032   0.000183   0.000316  -0.000128  -0.000024
  131  C 15  Z   -0.000458  -0.000490  -0.000330   0.000150   0.000056
  132  C 15  S    0.008191   0.002277   0.027470   0.000281  -0.000990
  133  C 15  X   -0.003596  -0.002283  -0.014079   0.000780   0.000692
  134  C 15  Y    0.000789   0.000788   0.000069  -0.001482   0.000023
  135  C 15  Z    0.001556  -0.000231  -0.000962  -0.001056  -0.000164
  136  C 16  S   -0.000041  -0.000095   0.000324  -0.005168  -0.005207
  137  C 16  S   -0.000199   0.000015   0.000163  -0.001483  -0.002951
  138  C 16  X    0.000069  -0.000177  -0.000043  -0.000343   0.000908
  139  C 16  Y   -0.000007   0.000028  -0.000005   0.000197  -0.000122
  140  C 16  Z    0.000115   0.000002  -0.000040   0.000067   0.000628
  141  C 16  S    0.001546  -0.002171  -0.000796   0.003057   0.024679
  142  C 16  X    0.000961  -0.000546  -0.000141   0.002324   0.010794
  143  C 16  Y    0.000257   0.000009  -0.000202  -0.001330  -0.001281
  144  C 16  Z   -0.000212  -0.001201  -0.000026  -0.000403   0.006377
  145  H 17  S    0.000380   0.000093  -0.000050  -0.001656  -0.001051
  146  H 17  S    0.002009   0.003507  -0.000548  -0.000323   0.000032
  147  H 18  S    0.000277  -0.000387  -0.001220   0.000032  -0.000073
  148  H 18  S    0.000994  -0.000209   0.000297   0.003388   0.000009
  149  H 19  S   -0.000114  -0.000302  -0.000084   0.000324   0.000325
  150  H 19  S   -0.000490   0.000160   0.002084   0.000113  -0.000459
  151  H 20  S    0.000252   0.000209  -0.000148   0.000459  -0.000535
  152  H 20  S    0.000139   0.000308  -0.001333  -0.000251   0.001862
  153  H 21  S   -0.000068  -0.000404  -0.000205  -0.001666  -0.000080
  154  H 21  S    0.000161   0.000280  -0.000904   0.000357   0.000875
  155  H 22  S   -0.000044  -0.000096  -0.000009  -0.001565  -0.000509
  156  H 22  S   -0.001008   0.001791   0.000701  -0.000486  -0.000068
  157  H 23  S    0.000036   0.000040  -0.000116   0.000771   0.000040
  158  H 23  S    0.000295  -0.000850   0.001304  -0.000005   0.000302
  159  H 24  S   -0.000090   0.000375   0.000396   0.000278   0.000019
  160  H 24  S   -0.000357  -0.000330  -0.001436  -0.000349   0.000576
  161  H 25  S   -0.000116   0.000808  -0.000091   0.000134   0.001758
  162  H 25  S   -0.000680   0.000666   0.000091  -0.001672   0.015405
  163  H 26  S    0.000307  -0.001617  -0.000368  -0.000127  -0.000081
  164  H 26  S    0.001428   0.001171   0.000050  -0.001961  -0.001166
  165  H 27  S    0.000648  -0.001641   0.000687  -0.000219  -0.000209
  166  H 27  S   -0.000711   0.001253   0.000048   0.000959   0.001478
  167  H 28  S   -0.000215   0.000139  -0.000130   0.000341  -0.001532
  168  H 28  S   -0.000530  -0.000129  -0.000761   0.001254  -0.000348
  169  H 29  S    0.000270  -0.000357   0.000124  -0.000025  -0.001044
  170  H 29  S    0.000874   0.001291   0.000128  -0.000512   0.000267
  171  H 30  S    0.000175  -0.000206  -0.000200  -0.001424   0.000255
  172  H 30  S   -0.000256  -0.000762  -0.000409   0.000329  -0.001559
  173  H 31  S   -0.000103  -0.000192   0.000145  -0.001264   0.000426
  174  H 31  S   -0.000398   0.001508   0.001006  -0.000189  -0.000399
  175  H 32  S   -0.000356  -0.000243  -0.000308  -0.001214  -0.000229
  176  H 32  S    0.000639  -0.000822  -0.000604  -0.000193  -0.000706
  177  H 33  S   -0.000097   0.000335  -0.001511  -0.000000  -0.000018
  178  H 33  S   -0.001148  -0.000087  -0.000141   0.000319  -0.000488
  179  H 34  S    0.000116  -0.000293  -0.001158   0.000049  -0.000057
  180  H 34  S   -0.000094  -0.000004   0.000350   0.000381   0.000023
  181  H 35  S    0.000073   0.000485  -0.001688  -0.000211   0.000202
  182  H 35  S    0.000586   0.000202  -0.000158  -0.000598  -0.001041
  183  H 36  S   -0.000687  -0.000383  -0.001738   0.000178   0.000157
  184  H 36  S    0.000180   0.001062  -0.000586  -0.001415  -0.000194
  185  H 37  S   -0.000290  -0.000257  -0.001323  -0.000133   0.000035
  186  H 37  S    0.000459   0.001251  -0.000178  -0.000503  -0.000156
  187  H 38  S   -0.000367  -0.000031  -0.001449   0.000111   0.000038
  188  H 38  S   -0.001744  -0.000714  -0.000127   0.000560   0.000179
  189  H 39  S    0.003105  -0.000271   0.000201   0.000306   0.000105
  190  H 39  S    0.004915   0.002236  -0.000527   0.001041  -0.000317
  191  H 40  S   -0.000020   0.000065   0.000038  -0.000492  -0.001191
  192  H 40  S   -0.000069  -0.000198  -0.000013  -0.000071  -0.000270
  193  H 41  S    0.000003   0.000189   0.000051   0.000037  -0.001122
  194  H 41  S    0.000047   0.000085   0.000078   0.000925  -0.000184
  195  H 42  S   -0.000176  -0.000057  -0.000035  -0.000210  -0.001472
  196  H 42  S   -0.000355  -0.000083   0.000458  -0.000667  -0.000649

                      6          7          8          9         10
                  -11.1631   -11.1628   -11.1605   -11.1599   -11.1539
                     A          A          A          A          A   
    1  O  1  S   -0.000067  -0.000065  -0.000045  -0.000005   0.000006
    2  O  1  S   -0.000639  -0.000586  -0.000338  -0.000369   0.000027
    3  O  1  X    0.000187   0.000097   0.000165   0.000268   0.000018
    4  O  1  Y    0.000113   0.000203  -0.000036  -0.000156   0.000001
    5  O  1  Z    0.000149   0.000271   0.000031   0.000164   0.000016
    6  O  1  S    0.002713   0.002096   0.001311   0.000013  -0.000214
    7  O  1  X   -0.001104  -0.000684  -0.001182   0.000226   0.000006
    8  O  1  Y   -0.000232  -0.000947   0.000340  -0.000186   0.000010
    9  O  1  Z   -0.000901  -0.001860  -0.000426  -0.000454   0.000097
   10  C  2  S   -0.018741   0.054720  -0.007987   0.016143   0.006185
   11  C  2  S   -0.001877   0.000959  -0.000290   0.000793   0.000089
   12  C  2  X   -0.000412  -0.001401  -0.000485   0.000368   0.000513
   13  C  2  Y    0.000455  -0.001099   0.000518  -0.001032  -0.000372
   14  C  2  Z   -0.001618   0.001796   0.000381  -0.000774   0.000630
   15  C  2  S    0.011335   0.017607   0.002158  -0.002017  -0.000901
   16  C  2  X   -0.013371   0.002186   0.002801  -0.003121   0.000372
   17  C  2  Y    0.000268   0.011995  -0.003135   0.002624  -0.000929
   18  C  2  Z   -0.001221  -0.018328  -0.002433   0.003617  -0.001488
   19  C  3  S    0.003312   0.003229   0.001887   0.001754   0.001179
   20  C  3  S   -0.002271  -0.000180   0.000075  -0.002459  -0.000424
   21  C  3  X    0.001100   0.000537   0.000820   0.000014   0.000031
   22  C  3  Y    0.000487   0.000258  -0.000659   0.000124  -0.000152
   23  C  3  Z    0.000526   0.001120   0.000037   0.000122   0.000597
   24  C  3  S    0.010019  -0.008684  -0.004919   0.021458   0.000952
   25  C  3  X   -0.004613  -0.003466   0.001079  -0.010556   0.000999
   26  C  3  Y   -0.001183   0.004517  -0.000940   0.009468  -0.000713
   27  C  3  Z   -0.007422   0.004083  -0.002095   0.004964  -0.000552
   28  C  4  S    0.885939   0.428514   0.083582   0.013943   0.013534
   29  C  4  S    0.097552   0.047788   0.007506   0.001332  -0.001277
   30  C  4  X    0.000995  -0.000482   0.000354   0.000004   0.000010
   31  C  4  Y    0.001127   0.000266  -0.001113  -0.000292   0.000185
   32  C  4  Z    0.000467   0.000326  -0.000333  -0.000296  -0.000428
   33  C  4  S   -0.090829  -0.056119  -0.005785  -0.000781   0.020553
   34  C  4  X   -0.002454  -0.008714  -0.001615  -0.000067   0.008422
   35  C  4  Y   -0.007729  -0.006282   0.002498   0.000160   0.006607
   36  C  4  Z   -0.003607  -0.000003   0.001765  -0.001556  -0.011421
   37  C  5  S   -0.004948   0.001964  -0.002593   0.003964   0.006535
   38  C  5  S    0.001576  -0.002198   0.000014   0.000606  -0.000425
   39  C  5  X   -0.000232  -0.000634  -0.000381   0.000786   0.001481
   40  C  5  Y    0.000269  -0.000509   0.000009   0.000087   0.000065
   41  C  5  Z    0.000104  -0.001055   0.000016  -0.000423   0.000547
   42  C  5  S   -0.014482   0.024624   0.000733  -0.005149   0.000725
   43  C  5  X    0.007937  -0.005259   0.001731  -0.000861  -0.007101
   44  C  5  Y    0.006603  -0.012180   0.000365  -0.003884   0.003642
   45  C  5  Z    0.004137  -0.007865   0.000237  -0.000370  -0.002426
   46  C  6  S   -0.428805   0.888686  -0.014740  -0.010752   0.008188
   47  C  6  S   -0.048291   0.099390  -0.001133  -0.001087  -0.000715
   48  C  6  X    0.001389  -0.000296   0.000108  -0.000132  -0.000816
[...]
   26    0.0029314  -0.0042308  -0.0511304   0.0008531   0.0039964
   27    0.0004637   0.0036944  -0.0445417  -0.0003348  -0.0040440
   28   -0.0000109   0.0002171  -0.0004426  -0.0009044   0.0005480
   29   -0.0000137  -0.0002412   0.0027045   0.0037042  -0.0000893
   30   -0.0005304  -0.0382929  -0.0021964  -0.0007594  -0.0000233
   31    0.0001126  -0.0490203   0.0039314  -0.0018398  -0.0000272
   32    0.0048287  -0.0435451  -0.0019866   0.0032371   0.0000562
   33    0.0001443   0.0000234  -0.0004801  -0.0000116  -0.0459223
   34   -0.0000178  -0.0000693   0.0027921   0.0000050  -0.0459341
   35   -0.0000039   0.0000162  -0.0004940   0.0001048  -0.0384636
   36    0.0018276  -0.0000747  -0.0019255   0.0000208  -0.0348783
   37    0.0003534  -0.0001268   0.0037649   0.0000015  -0.0483547
   38    0.0010557   0.0000178  -0.0006291   0.0000012  -0.0455756
   39    0.2685530   0.0070039  -0.0571342  -0.0002011   0.0009583
   40   -0.0000000  -0.0000073   0.0000021  -0.0011633  -0.0000000
   41   -0.0000000  -0.0000597   0.0000025   0.0036055   0.0000001
   42   -0.0000000  -0.0000372   0.0000110  -0.0024634  -0.0000044

             6           7           8           9          10

    6    5.6706788
    7    0.2547897   5.4915854
    8   -0.0726801   0.0086394   5.4585427
    9    0.2542429  -0.1147947   0.2278403   5.4725924
   10    0.0039136  -0.0681768   0.0032912  -0.0001798   5.5751266
   11    0.0042435   0.0007605   0.0034856  -0.0002030  -0.0745937
   12   -0.0001774  -0.0047870  -0.0002628   0.0000154   0.2440753
   13   -0.0002768   0.0030163  -0.0871809   0.0035521  -0.0045977
   14   -0.0786331   0.0005503  -0.0000562   0.0033778   0.0001103
   15   -0.0736373   0.0035987  -0.0010342  -0.0085531   0.0000015
   16    0.0000670  -0.0020553  -0.0000491  -0.0000030   0.2696258
   17    0.0029912  -0.0400352  -0.0023135   0.0004581  -0.0433513
   18    0.4097139  -0.0385207   0.0033316  -0.0378192  -0.0000580
   19   -0.0450394   0.3951905   0.0000149  -0.0022600   0.0018469
   20   -0.0436641   0.3950687  -0.0002314   0.0040983  -0.0065336
   21    0.0025766  -0.0002077   0.3911286  -0.0386559  -0.0000593
   22    0.0039671  -0.0000246   0.3945063  -0.0408002  -0.0000354
   23   -0.0477722  -0.0038058  -0.0422290   0.3959783  -0.0000034
   24   -0.0388603   0.0036958  -0.0399939   0.3974575   0.0000012
   25   -0.0000803   0.0034299  -0.0000031   0.0000006   0.4015099
   26   -0.0001031  -0.0000025  -0.0000624   0.0000009  -0.0004061
   27    0.0000863  -0.0000022  -0.0000485   0.0000006   0.0032826
   28   -0.0003009   0.0004072  -0.0000080   0.0000012  -0.0479275
   29    0.0000067  -0.0000182   0.0000029  -0.0000000  -0.0423563
   30    0.0000005  -0.0000230   0.0033702  -0.0000630  -0.0009412
   31   -0.0000071   0.0000261  -0.0016035  -0.0000399  -0.0000191
   32   -0.0000092  -0.0000562  -0.0023366   0.0000612   0.0000871
   33    0.0035857  -0.0000219   0.0000023  -0.0000596  -0.0000001
   34   -0.0020019   0.0001660  -0.0000009  -0.0000385  -0.0000003
   35   -0.0013171  -0.0003993  -0.0000004  -0.0000158   0.0000731
   36   -0.0006912  -0.0000597  -0.0000711  -0.0026483  -0.0000002
   37   -0.0012128   0.0000287   0.0001591  -0.0004570   0.0000000
   38    0.0035920  -0.0000587  -0.0000246   0.0001362  -0.0000000
   39   -0.0000568   0.0000078  -0.0002036   0.0000129   0.0000102
   40   -0.0000043   0.0001154  -0.0000018   0.0000006  -0.0435063
   41   -0.0000003  -0.0000574   0.0000003   0.0000000  -0.0444148
   42    0.0000128   0.0015000  -0.0000002   0.0000001  -0.0437858

            11          12          13          14          15

   11    5.5367756
   12    0.2066977   5.5154125
   13   -0.0038959   0.0013237   5.3237947
   14   -0.0138585  -0.0039388  -0.0000371   5.3721372
   15    0.0030627  -0.0000764  -0.0001020  -0.1062689   5.3508519
   16    0.0033001  -0.0771728   0.0000200   0.0000014   0.0000000
   17   -0.0001825   0.0036340  -0.0010643   0.0000043   0.0000001
   18   -0.0000747   0.0000119   0.0000061  -0.0024391   0.0000760
   19   -0.0000067   0.0000810  -0.0000482  -0.0000499  -0.0000538
   20    0.0000471  -0.0011551  -0.0000495   0.0003443  -0.0000066
   21    0.0001121  -0.0000030  -0.0010095  -0.0000041  -0.0001582
   22   -0.0000495   0.0000009  -0.0025518   0.0000016   0.0000515
   23    0.0000003   0.0000003  -0.0000728  -0.0000512   0.0000336
   24    0.0000005   0.0000001  -0.0000447  -0.0000235  -0.0000276
   25    0.0004856  -0.0466170  -0.0006586  -0.0000023  -0.0000001
   26    0.3829677  -0.0419042   0.0005962  -0.0000007  -0.0000810
   27    0.3886259  -0.0380874   0.0000064  -0.0009521  -0.0000355
   28   -0.0426204   0.3810722  -0.0000169  -0.0009811   0.0000021
   29   -0.0385107   0.3889754  -0.0000132   0.0000987   0.0000003
   30   -0.0004644   0.0000084   0.3813693   0.0000002   0.0000003
   31   -0.0001467   0.0000393   0.3747275   0.0000002   0.0000003
   32    0.0004017  -0.0000403   0.3814983  -0.0000006   0.0000016
   33   -0.0014310   0.0001232  -0.0000006   0.3801171  -0.0013029
   34    0.0001479   0.0000316   0.0000003   0.3790717  -0.0018701
   35   -0.0015667  -0.0005978  -0.0000006   0.3777981   0.0035499
   36    0.0000619  -0.0000014  -0.0000216   0.0032857   0.3825673
   37   -0.0000261  -0.0000007   0.0000007  -0.0008049   0.3699231
   38   -0.0000252  -0.0000003  -0.0000008  -0.0029000   0.3807778
   39   -0.0004299   0.0000908  -0.0002565   0.0002083  -0.0004772
   40   -0.0000660   0.0035619   0.0000017   0.0000000  -0.0000000
   41   -0.0000102  -0.0010503   0.0000012  -0.0000000  -0.0000000
   42   -0.0000427  -0.0012697  -0.0000030  -0.0000041  -0.0000000

            16          17          18          19          20

   16    5.3413706
   17   -0.0016206   0.5019617
   18    0.0000002  -0.0000661   0.5016748
   19    0.0003275  -0.0047543  -0.0020047   0.5073189
   20   -0.0006062   0.0020213  -0.0014977  -0.0268627   0.5097074
   21    0.0000003   0.0000067  -0.0000618   0.0000047   0.0000024
   22   -0.0000011   0.0022480  -0.0000523  -0.0000574   0.0000052
   23    0.0000001  -0.0000011  -0.0013761   0.0028272   0.0000371
   24    0.0000000  -0.0000005  -0.0019316  -0.0000127  -0.0000488
   25   -0.0456900  -0.0017093   0.0000006  -0.0000576   0.0001515
   26   -0.0000396  -0.0000228   0.0000009  -0.0000000   0.0000033
   27   -0.0000533   0.0000042  -0.0000026   0.0000003  -0.0000151
   28   -0.0017812  -0.0000700   0.0000126   0.0000062   0.0012490
   29    0.0001585  -0.0000465  -0.0000001  -0.0000004   0.0000133
   30    0.0000349   0.0000377  -0.0000001   0.0000002   0.0000003
   31   -0.0000333   0.0021555   0.0000000  -0.0000033   0.0000000
   32    0.0000002  -0.0000581   0.0000000   0.0000006   0.0000006
   33   -0.0000001   0.0000001  -0.0000034   0.0000008   0.0000027
   34   -0.0000001  -0.0000001   0.0026109  -0.0000106   0.0000313
   35   -0.0000154  -0.0000017   0.0001165   0.0000139   0.0006265
   36    0.0000000   0.0000000   0.0000131   0.0000002  -0.0000000
   37   -0.0000000  -0.0000000   0.0015101  -0.0000008  -0.0000015
   38   -0.0000000   0.0000000  -0.0000733   0.0000004  -0.0000006
   39   -0.0000000   0.0000015   0.0000003  -0.0000000   0.0000000
   40    0.3800082   0.0021364   0.0000000  -0.0000146   0.0000576
   41    0.3803662  -0.0000162  -0.0000000   0.0000016  -0.0000236
   42    0.3741837   0.0000674   0.0000005  -0.0001700   0.0021640

            21          22          23          24          25

   21    0.4825745
   22   -0.0247882   0.5151174
   23    0.0020714  -0.0047916   0.5171674
   24   -0.0046760   0.0013790  -0.0263994   0.4996696
   25   -0.0000004  -0.0000002   0.0000001  -0.0000000   0.5153695
   26    0.0000006  -0.0000004  -0.0000000   0.0000000   0.0009104
   27   -0.0000012   0.0000004   0.0000000  -0.0000000  -0.0000520
   28    0.0000001   0.0000001  -0.0000001  -0.0000000   0.0032920
   29   -0.0000000  -0.0000000  -0.0000000  -0.0000000  -0.0029916
   30   -0.0000478   0.0000457   0.0000006   0.0000005   0.0000069
   31    0.0000240   0.0019129  -0.0000007  -0.0000001   0.0002920
   32    0.0022452  -0.0001105  -0.0000003  -0.0000030   0.0000771
   33   -0.0000000  -0.0000000   0.0000004  -0.0000004   0.0000000
   34    0.0000001  -0.0000000  -0.0000010  -0.0000027   0.0000000
   35   -0.0000001  -0.0000000  -0.0000002  -0.0000002  -0.0000026
   36    0.0013822   0.0000298   0.0000827  -0.0009063   0.0000000
   37    0.0000207  -0.0000012  -0.0000423   0.0001203   0.0000000
   38    0.0000009   0.0000000   0.0000001   0.0000514   0.0000000
   39   -0.0001800   0.0000023   0.0000001   0.0000002   0.0000006
   40    0.0000000   0.0000002  -0.0000001  -0.0000000  -0.0014831
   41   -0.0000000   0.0000000   0.0000000  -0.0000000  -0.0018701
   42    0.0000000   0.0000000   0.0000000  -0.0000000   0.0030333

            26          27          28          29          30

   26    0.5059445
   27   -0.0284446   0.5226098
   28    0.0029074  -0.0032233   0.5281217
   29   -0.0036345  -0.0005219  -0.0284157   0.5122401
   30    0.0001827   0.0000583  -0.0000063   0.0000152   0.5190142
   31    0.0000577   0.0000003   0.0000006  -0.0000008  -0.0280095
   32    0.0001940  -0.0000094   0.0000004   0.0000003  -0.0254723
   33   -0.0000431   0.0016716  -0.0000361  -0.0000040   0.0000001
   34    0.0000010   0.0000024   0.0000294  -0.0000005  -0.0000000
   35    0.0000230  -0.0006849   0.0025018   0.0000560  -0.0000000
   36    0.0000003  -0.0000001   0.0000000   0.0000000   0.0000001
   37    0.0000004  -0.0000027   0.0000003   0.0000000   0.0000000
   38   -0.0000048   0.0000235  -0.0000002   0.0000000   0.0000001
   39   -0.0002863   0.0025260   0.0000005  -0.0000023  -0.0000085
   40    0.0000009   0.0000004  -0.0000058  -0.0000612  -0.0000008
   41   -0.0000001  -0.0000004  -0.0000533   0.0017314   0.0000005
   42   -0.0000002   0.0000004   0.0024625  -0.0000345  -0.0000007

            31          32          33          34          35

   31    0.5400805
   32   -0.0253895   0.4825919
   33   -0.0000000  -0.0000000   0.5320354
   34   -0.0000000   0.0000000  -0.0276761   0.5195385
   35    0.0000000   0.0000000  -0.0265237  -0.0261258   0.5050877
   36    0.0000002  -0.0000013  -0.0000302   0.0000250  -0.0000484
   37   -0.0000000  -0.0000000   0.0000630   0.0015611  -0.0000670
   38   -0.0000000   0.0000000   0.0022153  -0.0000727   0.0000343
   39    0.0000005  -0.0001676   0.0001737  -0.0000112   0.0000011
   40    0.0000037  -0.0000001   0.0000000   0.0000000   0.0000001
   41    0.0000005  -0.0000000   0.0000000  -0.0000000   0.0000001
   42    0.0000001   0.0000000   0.0000000   0.0000001  -0.0000242

            36          37          38          39          40

   36    0.4776776
   37   -0.0245693   0.5415102
   38   -0.0259410  -0.0290305   0.5418273
   39   -0.0003585  -0.0000334   0.0005846   0.4073840
   40    0.0000000   0.0000000  -0.0000000   0.0000000   0.5167688
   41   -0.0000000  -0.0000000   0.0000000   0.0000000  -0.0260327
   42    0.0000000   0.0000000   0.0000000   0.0000000  -0.0258363

            41          42

   41    0.5204546
   42   -0.0273053   0.5228040

          TOTAL MULLIKEN AND LOWDIN ATOMIC POPULATIONS
       ATOM         MULL.POP.    CHARGE          LOW.POP.     CHARGE
    1 O             8.683317   -0.683317         8.387502   -0.387502
    2 C             6.204022   -0.204022         6.037561   -0.037561
    3 C             5.646063    0.353937         5.837702    0.162298
    4 C             6.185926   -0.185926         6.075819   -0.075819
    5 C             6.205676   -0.205676         6.050368   -0.050368
    6 C             6.254424   -0.254424         6.075730   -0.075730
    7 C             6.364021   -0.364021         6.155795   -0.155795
    8 C             6.345075   -0.345075         6.150135   -0.150135
    9 C             6.382203   -0.382203         6.158482   -0.158482
   10 C             6.272543   -0.272543         6.082267   -0.082267
   11 C             6.415208   -0.415208         6.181114   -0.181114
   12 C             6.396012   -0.396012         6.156863   -0.156863
   13 C             6.521459   -0.521459         6.236688   -0.236688
   14 C             6.530640   -0.530640         6.242207   -0.242207
   15 C             6.504985   -0.504985         6.235170   -0.235170
   16 C             6.551314   -0.551314         6.248302   -0.248302
   17 H             0.788166    0.211834         0.922004    0.077996
   18 H             0.794699    0.205301         0.922727    0.077273
   19 H             0.792388    0.207612         0.917391    0.082609
   20 H             0.792992    0.207008         0.922010    0.077990
   21 H             0.770872    0.229128         0.907021    0.092979
   22 H             0.799084    0.200916         0.920237    0.079763
   23 H             0.798856    0.201144         0.921505    0.078495
   24 H             0.790800    0.209200         0.917337    0.082663
   25 H             0.776502    0.223498         0.917923    0.082077
   26 H             0.771175    0.228825         0.908506    0.091494
   27 H             0.802000    0.198000         0.922193    0.077807
   28 H             0.796028    0.203972         0.922587    0.077413
   29 H             0.792751    0.207249         0.916222    0.083778
   30 H             0.807306    0.192694         0.918405    0.081595
   31 H             0.817225    0.182775         0.921719    0.078281
   32 H             0.776095    0.223905         0.900627    0.099373
   33 H             0.816612    0.183388         0.922614    0.077386
   34 H             0.802181    0.197819         0.914539    0.085461
   35 H             0.793649    0.206351         0.915381    0.084619
   36 H             0.774747    0.225253         0.903290    0.096710
   37 H             0.814286    0.185714         0.921143    0.078857
   38 H             0.825981    0.174019         0.927266    0.072734
   39 H             0.627714    0.372286         0.759101    0.240899
   40 H             0.804475    0.195525         0.914756    0.085244
   41 H             0.805270    0.194730         0.915279    0.084721
   42 H             0.805258    0.194742         0.916510    0.083490

          -------------------------------
          BOND ORDER AND VALENCE ANALYSIS     BOND ORDER THRESHOLD=0.050
          -------------------------------

                   BOND                       BOND                       BOND
  ATOM PAIR DIST  ORDER      ATOM PAIR DIST  ORDER      ATOM PAIR DIST  ORDER
    1   3  1.444  0.817        1  39  0.966  0.811        2   3  1.566  0.863
    2   4  1.562  0.877        2   8  1.551  0.911        2  13  1.542  0.932
    3   5  1.612  0.841        3  11  1.557  0.898        4   7  1.565  0.892
    4  10  1.547  0.903        4  17  1.099  0.931        5   6  1.565  0.872
    5  14  1.547  0.921        5  15  1.550  0.917        6   7  1.539  0.911
    6   9  1.538  0.911        6  18  1.099  0.933        7  19  1.096  0.932
    7  20  1.094  0.924        8   9  1.547  0.905        8  21  1.095  0.918
    8  22  1.097  0.932        9  23  1.097  0.933        9  24  1.094  0.934
   10  12  1.540  0.896       10  16  1.536  0.925       10  25  1.098  0.912
   11  12  1.541  0.905       11  26  1.095  0.909       11  27  1.097  0.926
   12  28  1.096  0.913       12  29  1.098  0.928       13  30  1.092  0.930
   13  31  1.097  0.929       13  32  1.093  0.920       14  33  1.096  0.932
   14  34  1.096  0.928       14  35  1.092  0.921       15  36  1.090  0.921
   15  37  1.097  0.926       15  38  1.096  0.937       16  40  1.097  0.932
   16  41  1.097  0.931       16  42  1.096  0.925

                       TOTAL       BONDED        FREE
      ATOM            VALENCE     VALENCE     VALENCE
    1 O                 1.738       1.738      -0.000
    2 C                 3.458       3.458      -0.000
    3 C                 3.304       3.304      -0.000
    4 C                 3.476       3.476      -0.000
    5 C                 3.464       3.464      -0.000
    6 C                 3.508       3.508       0.000
    7 C                 3.579       3.579      -0.000
    8 C                 3.570       3.570      -0.000
    9 C                 3.594       3.594      -0.000
   10 C                 3.539       3.539      -0.000
   11 C                 3.596       3.596      -0.000
   12 C                 3.575       3.575      -0.000
   13 C                 3.661       3.661      -0.000
   14 C                 3.646       3.646      -0.000
   15 C                 3.657       3.657       0.000
   16 C                 3.667       3.667      -0.000
   17 H                 0.915       0.915       0.000
   18 H                 0.919       0.919       0.000
   19 H                 0.915       0.915      -0.000
   20 H                 0.915       0.915       0.000
   21 H                 0.912       0.912       0.000
   22 H                 0.918       0.918      -0.000
   23 H                 0.917       0.917       0.000
   24 H                 0.916       0.916       0.000
   25 H                 0.899       0.899       0.000
   26 H                 0.904       0.904       0.000
   27 H                 0.918       0.918      -0.000
   28 H                 0.913       0.913       0.000
   29 H                 0.913       0.913       0.000
   30 H                 0.923       0.923      -0.000
   31 H                 0.924       0.924       0.000
   32 H                 0.916       0.916       0.000
   33 H                 0.926       0.926       0.000
   34 H                 0.920       0.920      -0.000
   35 H                 0.917       0.917       0.000
   36 H                 0.914       0.914      -0.000
   37 H                 0.922       0.922      -0.000
   38 H                 0.930       0.930       0.000
   39 H                 0.835       0.835       0.000
   40 H                 0.921       0.921      -0.000
   41 H                 0.920       0.920       0.000
   42 H                 0.921       0.921       0.000

          ---------------------
          ELECTROSTATIC MOMENTS
          ---------------------

 POINT   1           X           Y           Z (BOHR)    CHARGE
                -0.009456    0.006137    0.014496       -0.00 (A.U.)
         DX          DY          DZ         /D/  (DEBYE)
    -0.413461    1.385552   -0.357836    1.489547
 ...... END OF PROPERTY EVALUATION ......
 CPU     0: STEP CPU TIME=     0.09 TOTAL CPU TIME=         19.4 (      0.3 MIN)
 TOTAL WALL CLOCK TIME=         47.6 SECONDS, CPU UTILIZATION IS    40.71%
               580000  WORDS OF DYNAMIC MEMORY USED
 EXECUTION OF GAMESS TERMINATED NORMALLY Mon May 25 19:29:19 2020
 DDI: 263640 bytes (0.3 MB / 0 MWords) used by master data server.
Note: The following floating-point exceptions are signalling: IEEE_DENORMALNote: The following floating-point exceptions are signalling:Note: The following floating-point exceptions are signalling: IEEE_DENORMAL
Note: The following floating-point exceptions are signalling: IEEE_DENORMAL
 IEEE_DENORMAL
Note: The following floating-point exceptions are signalling: IEEE_DENORMAL
 ----------------------------------------
 CPU timing information for all processes
 ========================================
 0: 19.153 + 0.223 = 19.377
 1: 18.857 + 0.80 = 18.938
 2: 19.493 + 0.72 = 19.565
 3: 19.381 + 0.88 = 19.469
 4: 18.969 + 0.80 = 19.49
 5: 19.435 + 0.88 = 19.524
 ----------------------------------------
Note: The following floating-point exceptions are signalling:

 IEEE_DENORMAL
 ddikick.x: exited gracefully.
unset echo
----- accounting info -----
Files used on the master node pietdev were:
-rwxr-xr-x 1 piet piet     1735 mei 25 19:28 /home/piet/scr/patchoulol_fukui_neu.F05*
-rw-r--r-- 1 piet piet 49152000 mei 25 19:29 /home/piet/scr/patchoulol_fukui_neu.F10
ls: No match.
ls: No match.
ls: No match.
ma 25 mei 2020 19:29:23 CEST
0.118u 0.027s 0:50.96 0.2%	0+0k 0+8io 0pf+0w
