----- GAMESS execution script 'rungms' -----
This job is running on host pietdev
under operating system Linux at ma 25 mei 2020 19:24:08 CEST
Available scratch disk space (Kbyte units) at beginning of the job is
Filesystem     1K-blocks     Used Available Use% Mounted on
/dev/sda2      244568380 31071536 201003788  14% /
GAMESS temporary binary files will be written to /home/piet/scr
GAMESS supplementary output files will be written to /home/piet/gamess/scr
Copying input file patchoulol_charge_chelpg.inp to your run's scratch directory...
cp patchoulol_charge_chelpg.inp /home/piet/scr/patchoulol_charge_chelpg.F05
unset echo
 
Assuming a single but multicore node.
 
/home/piet/gamess/ddikick.x /home/piet/gamess/gamess.03.x patchoulol_charge_chelpg -ddi 1 6 pietdev:cpus=6 -scr /home/piet/scr

 Distributed Data Interface kickoff program.
 Initiating 6 compute processes on 1 nodes to run the following command:
 /home/piet/gamess/gamess.03.x patchoulol_charge_chelpg 

          ******************************************************
          *         GAMESS VERSION = 30 SEP 2019 (R2)          *
          *             FROM IOWA STATE UNIVERSITY             *
          * M.W.SCHMIDT, K.K.BALDRIDGE, J.A.BOATZ, S.T.ELBERT, *
          *   M.S.GORDON, J.H.JENSEN, S.KOSEKI, N.MATSUNAGA,   *
          *          K.A.NGUYEN, S.J.SU, T.L.WINDUS,           *
          *       TOGETHER WITH M.DUPUIS, J.A.MONTGOMERY       *
          *         J.COMPUT.CHEM.  14, 1347-1363(1993)        *
          **************** 64 BIT LINUX VERSION ****************

  SINCE 1993, STUDENTS AND POSTDOCS WORKING AT IOWA STATE UNIVERSITY
  AND ALSO IN THEIR VARIOUS JOBS AFTER LEAVING ISU HAVE MADE IMPORTANT
  CONTRIBUTIONS TO THE CODE:
     IVANA ADAMOVIC, CHRISTINE AIKENS, YURI ALEXEEV, POOJA ARORA,
     ANDREY ASADCHEV, ROB BELL, PRADIPTA BANDYOPADHYAY, JONATHAN BENTZ,
     COLLEEN BERTONI, BRETT BODE, KURT BRORSEN, CALEB CARLIN, GALINA CHABAN,
     WEI CHEN, CHEOL HO CHOI, PAUL DAY, ALBERT DEFUSCO, NUWAN DESILVA,
     TIM DUDLEY, DMITRI FEDOROV, ALEX FINDLATER, GRAHAM FLETCHER, 
     MARK FREITAG, KURT GLAESEMANN, EMILIE B GUIDEZ, ANASTASIA GUNINA, 
     DAN KEMP, SAROM SOK LEANG, GRANT MERRILL,
     NORIYUKI MINEZAWA, JONATHAN MULLIN,
     TAKESHI NAGATA, SEAN NEDD, HEATHER NETZLOFF, BOSILJKA NJEGIC, RYAN OLSON,
     MIKE PAK, BUU PHAM, DAVID POOLE,
     SPENCER PRUITT, LUKE ROSKOP, TOSAPORN SATTASATHUCHANA,
     JIM SHOEMAKER, LYUDMILA SLIPCHENKO,
     TONY SMITH, JIE SONG, TETSUYA TAKETSUGU, SIMON WEBB,
     JORGE LUIS GALVEZ VALLEJO, PENG XU, SOOHAENG YOO,
     FEDERICO ZAHARIEV

  ADDITIONAL CODE HAS BEEN PROVIDED BY COLLABORATORS IN OTHER GROUPS:
     IOWA STATE UNIVERSITY:
          JOE IVANIC, AARON WEST, LAIMUTIS BYTAUTAS, KLAUS RUEDENBERG
     UNIVERSITY OF TOKYO: KIMIHIKO HIRAO, TAKAHITO NAKAJIMA,
          TAKAO TSUNEDA, MUNEAKI KAMIYA, SUSUMU YANAGISAWA,
          KIYOSHI YAGI, MAHITO CHIBA, SEIKEN TOKURA, NAOAKI KAWAKAMI
     UNIVERSITY OF AARHUS: FRANK JENSEN
     UNIVERSITY OF IOWA: VISVALDAS KAIRYS, HUI LI
     NATIONAL INST. OF STANDARDS AND TECHNOLOGY: WALT STEVENS, DAVID GARMER
     UNIVERSITY OF PISA: BENEDETTA MENNUCCI, JACOPO TOMASI
     UNIVERSITY OF MEMPHIS: HENRY KURTZ, PRAKASHAN KORAMBATH
     UNIVERSITY OF ALBERTA: TOBY ZENG, MARIUSZ KLOBUKOWSKI
     UNIVERSITY OF NEW ENGLAND: MARK SPACKMAN
     MIE UNIVERSITY: HIROAKI UMEDA
     NAT. INST. OF ADVANCED INDUSTRIAL SCIENCE AND TECHNOLOGY: KAZUO KITAURA
     MICHIGAN STATE UNIVERSITY:
          KAROL KOWALSKI, MARTA WLOCH, JEFFREY GOUR, JESSE LUTZ,
          WEI LI, JUN SHEN, J. EMILIANO DEUSTUA, PIOTR PIECUCH
     UNIVERSITY OF MINNESOTA:
          ANDREW SAND, PRACHI SHARMA, YINAN SHU
     UNIVERSITY OF SILESIA: MONIKA MUSIAL, STANISLAW KUCHARSKI
     FACULTES UNIVERSITAIRES NOTRE-DAME DE LA PAIX:
          OLIVIER QUINET, BENOIT CHAMPAGNE
     UNIVERSITY OF CALIFORNIA - SANTA BARBARA: BERNARD KIRTMAN
     INSTITUTE FOR MOLECULAR SCIENCE:
          KAZUYA ISHIMURA, MICHIO KATOUDA, AND SHIGERU NAGASE
     UNIVERSITY OF NOTRE DAME: ANNA POMOGAEVA, DAN CHIPMAN
     KYUSHU UNIVERSITY:
          HARUYUKI NAKANO,
          FENG LONG GU, JACEK KORCHOWIEC, MARCIN MAKOWSKI, AND YURIKO AOKI,
          HIROTOSHI MORI AND EISAKU MIYOSHI
     PENNSYLVANIA STATE UNIVERSITY:
          TZVETELIN IORDANOV, CHET SWALINA, JONATHAN SKONE,
          SHARON HAMMES-SCHIFFER
     WASEDA UNIVERSITY:
          MASATO KOBAYASHI, TOMOKO AKAMA, TSUGUKI TOUMA,
          TAKESHI YOSHIKAWA, YASUHIRO IKABATA, JUNJI SEINO,
          YUYA NAKAJIMA, HIROMI NAKAI
     NANJING UNIVERSITY: SHUHUA LI
     UNIVERSITY OF NEBRASKA:
          PEIFENG SU, DEJUN SI, NANDUN THELLAMUREGE, YALI WANG, HUI LI
     UNIVERSITY OF ZURICH: ROBERTO PEVERATI, KIM BALDRIDGE
     N. COPERNICUS UNIVERSITY AND JACKSON STATE UNIVERSITY:
          MARIA BARYSZ
     UNIVERSITY OF COPENHAGEN: Jimmy Kromann, CASPER STEINMANN
     TOKYO INSTITUTE OF TECHNOLOGY: HIROYA NAKATA
     NAGOYA UNIVERSITY: YOSHIO NISHIMOTO, STEPHAN IRLE
     MOSCOW STATE UNIVERSITY: VLADIMIR MIRONOV
     A.N.NESMEYANOV INSTITUTE OF ORGANOELEMENT COMPOUNDS OF RUSSIAN ACADEMY OF SCIENCES:
          IGOR S. GERASIMOV
     JOHANNES KEPLER UNIVERSITY LINZ:
          CHRISTIAN FRIEDL


 PARALLEL VERSION RUNNING ON        6 PROCESSORS IN        1 NODES.

 EXECUTION OF GAMESS BEGUN Mon May 25 19:24:08 2020

            ECHO OF THE FIRST FEW INPUT CARDS -
 INPUT CARD> $BASIS GBASIS=N21 NGAUSS=3 $END                                                
 INPUT CARD> $CONTRL SCFTYP=RHF DFTTYP=B3LYP MAXIT=60 MULT=1 ICHARG=0 $END                  
 INPUT CARD> $SYSTEM MEMDDI=1000 MWORDS=30 $END                                             
 INPUT CARD> $SCF DIRSCF=.TRUE. $END                                                        
 INPUT CARD> $ELPOT  IEPOT=1 WHERE=PDC $END                                                 
 INPUT CARD> $PDC PTSEL=CHELPG CONSTR=CHARGE $END                                           
 INPUT CARD> $DATA                                                                          
 INPUT CARD>                                                                                
 INPUT CARD>C1                                                                              
 INPUT CARD>O 8.0000000 1.49055 -0.06187 1.95116                                            
 INPUT CARD>C 6.0000000 -0.08613 -1.11380 0.46859                                           
 INPUT CARD>C 6.0000000 0.56205 0.24859 0.88985                                             
 INPUT CARD>C 6.0000000 -1.24059 -0.76227 -0.52363                                          
 INPUT CARD>C 6.0000000 1.34295 0.86772 -0.37773                                            
 INPUT CARD>C 6.0000000 0.88663 0.08027 -1.65126                                            
 INPUT CARD>C 6.0000000 -0.64786 0.01253 -1.74701                                           
 INPUT CARD>C 6.0000000 0.95069 -2.00078 -0.26938                                           
 INPUT CARD>C 6.0000000 1.39711 -1.37040 -1.60954                                           
 INPUT CARD>C 6.0000000 -2.38220 0.01577 0.17213                                            
 INPUT CARD>C 6.0000000 -0.52399 1.16758 1.52170                                            
 INPUT CARD>C 6.0000000 -1.84594 1.33955 0.74910                                            
 INPUT CARD>C 6.0000000 -0.58537 -1.92375 1.68244                                           
 INPUT CARD>C 6.0000000 1.10487 2.38132 -0.59009                                            
 INPUT CARD>C 6.0000000 2.87661 0.72091 -0.21025                                            
 INPUT CARD>C 6.0000000 -3.59531 0.24840 -0.74061                                           
 INPUT CARD>H 1.0000000 -1.65478 -1.71795 -0.87566                                          
 INPUT CARD>H 1.0000000 1.28791 0.59372 -2.53592                                            
 INPUT CARD>H 1.0000000 -0.92345 -0.48591 -2.68384                                          
 INPUT CARD>H 1.0000000 -1.06688 1.02112 -1.81476                                           
 INPUT CARD>H 1.0000000 1.80589 -2.15606 0.39728                                            
 INPUT CARD>H 1.0000000 0.50396 -2.98945 -0.43327                                           
 INPUT CARD>H 1.0000000 0.97422 -1.91777 -2.46135                                           
 INPUT CARD>H 1.0000000 2.48390 -1.41815 -1.72602                                           
 INPUT CARD>H 1.0000000 -2.73189 -0.60023 1.01074                                           
 INPUT CARD>H 1.0000000 -0.74510 0.72543 2.49879                                            
 INPUT CARD>H 1.0000000 -0.09066 2.15348 1.73198                                            
 INPUT CARD>H 1.0000000 -1.72581 2.06444 -0.06400                                           
 INPUT CARD>H 1.0000000 -2.59450 1.77825 1.42190                                            
 INPUT CARD>H 1.0000000 -1.22287 -1.35539 2.36285                                           
 INPUT CARD>H 1.0000000 -1.16107 -2.79119 1.33587                                           
 INPUT CARD>H 1.0000000 0.26364 -2.29068 2.26542                                            
 INPUT CARD>H 1.0000000 1.41407 2.96525 0.28449                                             
 INPUT CARD>H 1.0000000 1.71592 2.72485 -1.43310                                            
 INPUT CARD>H 1.0000000 0.06939 2.64360 -0.81456                                            
 INPUT CARD>H 1.0000000 3.18916 -0.28078 0.08432                                            
 INPUT CARD>H 1.0000000 3.36951 0.97636 -1.15641                                            
 INPUT CARD>H 1.0000000 3.25945 1.41494 0.54644                                             
 INPUT CARD>H 1.0000000 1.82935 0.76353 2.32201                                             
 INPUT CARD>H 1.0000000 -3.99939 -0.70058 -1.11296                                          
 INPUT CARD>H 1.0000000 -4.39725 0.76195 -0.19649                                           
   30000000 WORDS OF MEMORY AVAILABLE

     BASIS OPTIONS
     -------------
     GBASIS=N21          IGAUSS=       3      POLAR=NONE    
     NDFUNC=       0     NFFUNC=       0     DIFFSP=       F
     NPFUNC=       0      DIFFS=       F     BASNAM=        


     RUN TITLE
     ---------
                                                                                 

 THE POINT GROUP OF THE MOLECULE IS C1      
 THE ORDER OF THE PRINCIPAL AXIS IS     0

 ATOM      ATOMIC                      COORDINATES (BOHR)
           CHARGE         X                   Y                   Z
 O           8.0     2.8167310710       -0.1169173469        3.6871577582
 C           6.0    -0.1627620993       -2.1047768051        0.8855067006
 C           6.0     1.0621204914        0.4697669833        1.6815726702
 C           6.0    -2.3443751631       -1.4404814287       -0.9895172190
 C           6.0     2.5378075152        1.6397530341       -0.7138061973
 C           6.0     1.6754877525        0.1516883050       -3.1204289345
 C           6.0    -1.2242778784        0.0236782666       -3.3013701978
 C           6.0     1.7965435993       -3.7809259617       -0.5090543866
 C           6.0     2.6401550747       -2.5896804936       -3.0415895663
 C           6.0    -4.5017052480        0.0298009788        0.3252785343
 C           6.0    -0.9901975203        2.2064062687        2.8755960355
 C           6.0    -3.4883207898        2.5313824469        1.4155937374
 C           6.0    -1.1061889014       -3.6353603689        3.1793505908
 C           6.0     2.0879015521        4.5000422891       -1.1151084081
 C           6.0     5.4360046735        1.3623223618       -0.3973148889
 C           6.0    -6.7941507409        0.4694079354       -1.3995499638
 H           1.0    -3.1270807700       -3.2464547606       -1.6547574584
 H           1.0     2.4337969968        1.1219681134       -4.7921939268
 H           1.0    -1.7450674634       -0.9182367547       -5.0717221949
 H           1.0    -2.0161108618        1.9296370006       -3.4293991335
 H           1.0     3.4126372640       -4.0743626131        0.7507503404
 H           1.0     0.9523463088       -5.6492413540       -0.8187615787
 H           1.0     1.8410088518       -3.6240598075       -4.6512770599
 H           1.0     4.6938903809       -2.6799149095       -3.2617048493
 H           1.0    -5.1625235286       -1.1342702296        1.9100216448
 H           1.0    -1.4080348335        1.3708639233        4.7220284009
 H           1.0    -0.1713225580        4.0694871200        3.2729676162
 H           1.0    -3.2613080069        3.9012259181       -0.1209424632
 H           1.0    -4.9028940751        3.3604052377        2.6870013819
 H           1.0    -2.3108892186       -2.5613157065        4.4651390501
 H           1.0    -2.1941041526       -5.2745842797        2.5244282552
 H           1.0     0.4982073594       -4.3287575256        4.2810230471
 H           1.0     2.6722048275        5.6035099851        0.5376081462
 H           1.0     3.2426186169        5.1492198576       -2.7081663130
 H           1.0     0.1311280863        4.9956796211       -1.5392952006
 H           1.0     6.0266385310       -0.5305972628        0.1593416953
 H           1.0     6.3674506129        1.8450528654       -2.1852980295
 H           1.0     6.1594673707        2.6738488891        1.0326218687
 H           1.0     3.4569702356        1.4428624834        4.3879626408
 H           1.0    -7.5577512180       -1.3239042325       -2.1031894353
 H           1.0    -8.3095975995        1.4398767163       -0.3713122593
 H           1.0    -6.3131398880        1.6388648629       -3.0402289636

          INTERNUCLEAR DISTANCES (ANGS.)
          ------------------------------

                1 O          2 C          3 C          4 C          5 C     

   1 O       0.0000000    2.4063438 *  1.4439102 *  3.7515692    2.5119021 *
   2 C       2.4063438 *  0.0000000    1.5664303 *  1.5623226 *  2.5855268 *
   3 C       1.4439102 *  1.5664303 *  0.0000000    2.5038520 *  1.6124161 *
   4 C       3.7515692    1.5623226 *  2.5038520 *  0.0000000    3.0582402  
   5 C       2.5119021 *  2.5855268 *  1.6124161 *  3.0582402    0.0000000  
   6 C       3.6554552    2.6202727 *  2.5672795 *  2.5507818 *  1.5653064 *
   7 C       4.2725629    2.5481451 *  2.9107795 *  1.5647052 *  2.5631235 *
   8 C       2.9969349 *  1.5512347 *  2.5601798 *  2.5298731 *  2.8972228 *
   9 C       3.7946760    2.5660220 *  3.0927988    2.9165877 *  2.5552828 *
  10 C       4.2625307    2.5759958 *  3.0393972    1.5468360 *  3.8606874  
  11 C       2.3988236 *  2.5505797 *  1.5566823 *  2.9019324 *  2.6801521 *
  12 C       3.8132784    3.0322505    2.6473421 *  2.5306002 *  3.4148776  
  13 C       2.8014731 *  1.5423007 *  2.5814400 *  2.5778080 *  3.9692598  
  14 C       3.5462484    3.8412430    2.6520583 *  3.9227232    1.5468561 *
  15 C       2.6843249 *  3.5503257    2.6058577 *  4.3874099    1.5497470 *
  16 C       5.7626266    3.9537448    4.4656514    2.5716221 *  4.9901554  
  17 H       4.5416531    2.1523634 *  3.4494406    1.0994557 *  3.9899886  
  18 H       4.5392453    3.7189637    3.5187906    3.5044732    2.1762099 *
  19 H       5.2431318    3.3216209    3.9392208    2.2007862 *  3.5052855  
  20 H       4.6792594    3.2761931    3.2504047    2.2085452 *  2.8099586 *
  21 H       2.6267117 *  2.1612799 *  2.7517458 *  3.4744447    3.1556615  
  22 H       3.9025108    2.1632431 *  3.4984174    2.8305389 *  3.9477524  
  23 H       4.8146865    3.2179587    4.0116756    3.1615380    3.4980550  
  24 H       4.0432527    3.3932280    3.6488773    3.9683430    2.8887462 *
  25 H       4.3592684    2.7491320 *  3.4036966    2.1458155 *  4.5483016  
  26 H       2.4326674 *  2.8175735 *  2.1271355 *  3.4049647    3.5573258  
  27 H       2.7305751 *  3.5030406    2.1826175 *  3.8615688    2.8564476 *
  28 H       4.3505213    3.6157174    3.0726934    2.9046493 *  3.3087540  
  29 H       4.5115176    3.9452089    3.5477803    3.4745361    4.4239400  
  30 H       3.0340288    2.2223331 *  2.8157451 *  2.9468410 *  4.3630756  
  31 H       3.8547189    2.1728571 *  3.5225472    2.7532853 *  4.7533318  
  32 H       2.5635252 *  2.1762315 *  2.9032970 *  3.5181735    4.2575395  
  33 H       3.4564568    4.3500738    2.9107800 *  4.6470080    2.2007329 *
  34 H       4.3897398    4.6474770    3.5859972    4.6613403    2.1683737 *
  35 H       4.1217073    3.9735016    2.9805705 *  3.6606882    2.2285702 *
  36 H       2.5334343 *  3.4013395    2.7983599 *  4.4971236    2.2228436 *
  37 H       3.7769569    4.3532564    3.5494592    4.9675212    2.1737274 *
  38 H       2.6987429 *  4.1944597    2.9587615 *  5.1123041    2.1969324 *
  39 H       0.9662300 *  3.2601529    1.9804784 *  4.4553635    2.7451843 *
  40 H       6.3195113    4.2409498    5.0713811    2.8217181 *  5.6161130  
  41 H       6.3211762    4.7483181    5.1027767    3.5206206    5.7440344  
  42 H       6.0727567    4.3396858    4.6752643    2.8711894 *  4.8428107  

                6 C          7 C          8 C          9 C         10 C     

   1 O       3.6554552    4.2725629    2.9969349 *  3.7946760    4.2625307  
   2 C       2.6202727 *  2.5481451 *  1.5512347 *  2.5660220 *  2.5759958 *
   3 C       2.5672795 *  2.9107795 *  2.5601798 *  3.0927988    3.0393972  
   4 C       2.5507818 *  1.5647052 *  2.5298731 *  2.9165877 *  1.5468360 *
   5 C       1.5653064 *  2.5631235 *  2.8972228 *  2.5552828 *  3.8606874  
   6 C       0.0000000    1.5389660 *  2.4988928 *  1.5384323 *  3.7435492  
   7 C       1.5389660 *  0.0000000    2.9651593 *  2.4725080 *  2.5867053 *
   8 C       2.4988928 *  2.9651593 *  0.0000000    1.5468350 *  3.9204031  
   9 C       1.5384323 *  2.4725080 *  1.5468350 *  0.0000000    4.4021585  
  10 C       3.7435492    2.5867053 *  3.9204031    4.4021585    0.0000000  
  11 C       3.6386491    3.4689983    3.9269777    4.4650455    2.5692314 *
  12 C       3.8489548    3.0703327    4.4739519    4.8398745    1.5404099 *
  13 C       4.1588984    3.9388085    2.4849578 *  3.8824677    3.0448928  
  14 C       2.5433328 *  3.1657057    4.3965244    3.8987287    4.2821097  
  15 C       2.5390844 *  3.9096448    3.3347055    2.9189913 *  5.3196353  
  16 C       4.5766076    3.1234496    5.0938183    5.3197566    1.5358538 *
  17 H       3.2084132    2.1835063 *  2.6899893 *  3.1580696    2.1523914 *
  18 H       1.0987629 *  2.1696466 *  3.4615533    2.1743670 *  4.5975285  
  19 H       2.1594376 *  1.0963771 *  3.4112826    2.7058163 *  3.2459512  
  20 H       2.1744269 *  1.0942676 *  3.9485020    3.4398735    2.5862187 *
  21 H       3.1690262    3.9142881    1.0954061 *  2.1935563 *  4.7230960  
  22 H       3.3246228    3.4733969    1.0972219 *  2.1914951 *  4.2104366  
  23 H       2.1577956 *  2.6205883 *  2.1936674 *  1.0972831 *  4.6839459  
  24 H       2.1913747 *  3.4431391    2.1936250 *  1.0940567 *  5.4164591  
  25 H       4.5434581    3.5105329    4.1426613    4.9505222    1.0977276 *
  26 H       4.5057396    4.3063325    4.2391850    5.0852672    2.9320744 *
  27 H       4.0865154    4.1228037    4.7273383    5.0790694    3.5005845  
  28 H       3.6443336    2.8644081 *  4.8715343    4.8927956    2.1641751 *
  29 H       4.9442608    4.1169364    5.4506759    5.9191702    2.1710210 *
  30 H       4.7564891    4.3695298    3.4741223    4.7586135    2.8325571 *
  31 H       4.6218290    4.1986164    2.7678703 *  4.1519115    3.2748242  
  32 H       4.6205955    4.7154218    2.6422132 *  4.1408918    4.0868134  
  33 H       3.5140334    4.1348643    5.0182613    4.7313315    4.8087132  
  34 H       2.7801293 *  3.6114644    4.9266013    4.1114284    5.1682168  
  35 H       2.8175537 *  2.8820895 *  4.7585898    4.3019797    3.7268406  
  36 H       2.9058974 *  4.2617511    2.8450398 *  2.6959000 *  5.5799377  
  37 H       2.6856185 *  4.1733725    3.9371151    3.0988661    5.9807959  
  38 H       3.4987861    4.7427564    4.2027465    3.9843041    5.8246029  
  39 H       4.1403429    4.8226024    3.8895701    4.4941711    4.7873043  
  40 H       4.9772166    3.4847236    5.1870453    5.4605369    2.1863022 *
  41 H       5.5227196    4.1259748    6.0198382    6.3338957    2.1801587 *
  42 H       4.3002383    2.8286758 *  5.3325720    5.2397123    2.1944606 *

               11 C         12 C         13 C         14 C         15 C     

   1 O       2.3988236 *  3.8132784    2.8014731 *  3.5462484    2.6843249 *
   2 C       2.5505797 *  3.0322505    1.5423007 *  3.8412430    3.5503257  
   3 C       1.5566823 *  2.6473421 *  2.5814400 *  2.6520583 *  2.6058577 *
   4 C       2.9019324 *  2.5306002 *  2.5778080 *  3.9227232    4.3874099  
   5 C       2.6801521 *  3.4148776    3.9692598    1.5468561 *  1.5497470 *
   6 C       3.6386491    3.8489548    4.1588984    2.5433328 *  2.5390844 *
   7 C       3.4689983    3.0703327    3.9388085    3.1657057    3.9096448  
   8 C       3.9269777    4.4739519    2.4849578 *  4.3965244    3.3347055  
   9 C       4.4650455    4.8398745    3.8824677    3.8987287    2.9189913 *
  10 C       2.5692314 *  1.5404099 *  3.0448928    4.2821097    5.3196353  
  11 C       0.0000000    1.5407908 *  3.0961147    2.9301888 *  3.8422969  
  12 C       1.5407908 *  0.0000000    3.6206750    3.4038205    4.8585539  
  13 C       3.0961147    3.6206750    0.0000000    5.1531477    4.7499271  
  14 C       2.9301888 *  3.4038205    5.1531477    0.0000000    2.4577027 *
  15 C       3.8422969    4.8585539    4.7499271    2.4577027 *  0.0000000  
  16 C       3.9237667    2.5436469 *  4.4327357    5.1636902    6.5107830  
  17 H       3.9182017    3.4676640    2.7802638 *  4.9498720    5.1888634  
  18 H       4.4806893    4.6009384    5.2575084    2.6486358 *  2.8193769 *
  19 H       4.5365366    3.9960442    4.6093473    4.0888726    4.6920697  
  20 H       3.3835108    2.6984644 *  4.5972295    2.8401512 *  4.2679845  
  21 H       4.2117982    5.0674381    2.7246520 *  4.6961842    3.1292955  
  22 H       4.7073865    5.0655967    2.6074097 *  5.4065567    4.4097593  
  23 H       5.2563015    5.3731206    4.4275673    4.6905072    3.9559033  
  24 H       5.1265083    5.6990037    4.6145042    4.1985751    2.6509164 *
  25 H       2.8742051 *  2.1485133 *  2.6096809 *  5.1159578    5.8899490  
  26 H       1.0950302 *  2.1564803 *  2.7767059 *  3.9630216    4.5227980  
  27 H       1.0972654 *  2.1701482 *  4.1074319    2.6216812 *  3.8248144  
  28 H       2.1824696 *  1.0959144 *  4.5007017    2.8965381 *  4.7967418  
  29 H       2.1609927 *  1.0979342 *  4.2201053    4.2540728    5.8064556  
  30 H       2.7497898 *  3.2023596    1.0919694 *  5.3010593    5.2666499  
  31 H       4.0140084    4.2280443    1.0972663 *  5.9664617    5.5702956  
  32 H       3.6239540    4.4640927    1.0933075 *  5.5397824    4.6932109  
  33 H       2.9186268 *  3.6723873    5.4639130    1.0961154 *  2.7241243 *
  34 H       4.0215830    4.4008976    6.0507857    1.0963853 *  2.6188431 *
  35 H       2.8264546 *  2.7953655 *  5.2463707    1.0915111 *  3.4557794  
  36 H       4.2368964    5.3310068    4.4159274    3.4475890    1.0898816 *
  37 H       4.7295011    5.5645120    5.6666377    2.7245596 *  1.0970068 *
  38 H       3.9149377    5.1099669    5.2172778    2.6206499 *  1.0958211 *
  39 H       2.5183252 *  4.0390100    3.6689775    3.4091703    2.7406041 *
  40 H       4.7444557    3.5023913    4.5788578    5.9853965    7.0791875  
  41 H       4.2566249    2.7815364 *  5.0273046    5.7489655    7.2739888  
  42 H       4.2219194    2.8314962 *  5.1199905    4.8056148    6.3744198  

               16 C         17 H         18 H         19 H         20 H     

   1 O       5.7626266    4.5416531    4.5392453    5.2431318    4.6792594  
   2 C       3.9537448    2.1523634 *  3.7189637    3.3216209    3.2761931  
   3 C       4.4656514    3.4494406    3.5187906    3.9392208    3.2504047  
   4 C       2.5716221 *  1.0994557 *  3.5044732    2.2007862 *  2.2085452 *
   5 C       4.9901554    3.9899886    2.1762099 *  3.5052855    2.8099586 *
   6 C       4.5766076    3.2084132    1.0987629 *  2.1594376 *  2.1744269 *
   7 C       3.1234496    2.1835063 *  2.1696466 *  1.0963771 *  1.0942676 *
   8 C       5.0938183    2.6899893 *  3.4615533    3.4112826    3.9485020  
   9 C       5.3197566    3.1580696    2.1743670 *  2.7058163 *  3.4398735  
  10 C       1.5358538 *  2.1523914 *  4.5975285    3.2459512    2.5862187 *
  11 C       3.9237667    3.9182017    4.4806893    4.5365366    3.3835108  
  12 C       2.5436469 *  3.4676640    4.6009384    3.9960442    2.6984644 *
  13 C       4.4327357    2.7802638 *  5.2575084    4.6093473    4.5972295  
  14 C       5.1636902    4.9498720    2.6486358 *  4.0888726    2.8401512 *
  15 C       6.5107830    5.1888634    2.8193769 *  4.6920697    4.2679845  
  16 C       0.0000000    2.7659406 *  5.2142326    3.3844039    2.8537436 *
  17 H       2.7659406 *  0.0000000    4.0938620    2.3070069 *  2.9546641 *
  18 H       5.2142326    4.0938620    0.0000000    2.4652777 *  2.4995557 *
  19 H       3.3844039    2.3070069 *  2.4652777 *  0.0000000    1.7455691 *
  20 H       2.8537436 *  2.9546641 *  2.4995557 *  1.7455691 *  0.0000000  
  21 H       6.0207294    3.7132942    4.0537952    4.4420714    4.8208299  
  22 H       5.2327951    2.5441265 *  4.2278626    3.6565390    4.5233533  
  23 H       5.3417079    3.0766836    2.5321027 *  2.3876508 *  3.6361026  
  24 H       6.3800639    4.2357602    2.4766814 *  3.6601263    4.3088225  
  25 H       2.1290594 *  2.4429427 *  5.4920948    4.1150268    3.6584812  
  26 H       4.3410790    4.2643330    5.4312781    5.3252988    4.3356301  
  27 H       4.6931442    4.9228272    4.7485026    5.2114667    3.8489751  
  28 H       2.6927370 *  3.8691487    4.1660430    3.7432110    2.1419304 *
  29 H       2.8316976 *  4.2878048    5.6692643    4.9775425    3.6582560  
  30 H       4.2228045    3.2872394    5.8396056    5.1297883    4.8088001  
  31 H       4.4132076    2.5072811 *  5.6961282    4.6399189    4.9466199  
  32 H       5.5113191    3.7248810    5.6940107    5.4001437    5.4209014  
  33 H       5.7901634    5.7180548    3.6871104    5.1171758    3.7870311  
  34 H       5.9009754    5.6045365    2.4374412 *  4.3404613    3.2851691  
  35 H       4.3786388    4.6903746    2.9410677 *  3.7780646    2.2189977 *
  36 H       6.8548942    5.1430316    3.3533803    4.9616881    4.8389384  
  37 H       7.0150932    5.7080309    2.5263649 *  4.7854761    4.4851961  
  38 H       7.0714247    5.9989186    3.7499754    5.6164572    4.9444404  
  39 H       6.2507549    5.3405991    4.8909587    5.8478665    5.0564184  
  40 H       1.0965802 *  2.5668169 *  5.6263282    3.4605136    3.4722311  
  41 H       1.0967716 *  3.7592975    6.1499820    4.4509944    3.7117828  
  42 H       1.0961544 *  3.1722776    4.7285317    2.9715562 *  2.2883756 *

               21 H         22 H         23 H         24 H         25 H     

   1 O       2.6267117 *  3.9025108    4.8146865    4.0432527    4.3592684  
   2 C       2.1612799 *  2.1632431 *  3.2179587    3.3932280    2.7491320 *
   3 C       2.7517458 *  3.4984174    4.0116756    3.6488773    3.4036966  
   4 C       3.4744447    2.8305389 *  3.1615380    3.9683430    2.1458155 *
   5 C       3.1556615    3.9477524    3.4980550    2.8887462 *  4.5483016  
   6 C       3.1690262    3.3246228    2.1577956 *  2.1913747 *  4.5434581  
   7 C       3.9142881    3.4733969    2.6205883 *  3.4431391    3.5105329  
   8 C       1.0954061 *  1.0972219 *  2.1936674 *  2.1936250 *  4.1426613  
   9 C       2.1935563 *  2.1914951 *  1.0972831 *  1.0940567 *  4.9505222  
  10 C       4.7230960    4.2104366    4.6839459    5.4164591    1.0977276 *
  11 C       4.2117982    4.7073865    5.2563015    5.1265083    2.8742051 *
  12 C       5.0674381    5.0655967    5.3731206    5.6990037    2.1485133 *
  13 C       2.7246520 *  2.6074097 *  4.4275673    4.6145042    2.6096809 *
  14 C       4.6961842    5.4065567    4.6905072    4.1985751    5.1159578  
  15 C       3.1292955    4.4097593    3.9559033    2.6509164 *  5.8899490  
  16 C       6.0207294    5.2327951    5.3417079    6.3800639    2.1290594 *
  17 H       3.7132942    2.5441265 *  3.0766836    4.2357602    2.4429427 *
  18 H       4.0537952    4.2278626    2.5321027 *  2.4766814 *  5.4920948  
  19 H       4.4420714    3.6565390    2.3876508 *  3.6601263    4.1150268  
  20 H       4.8208299    4.5233533    3.6361026    4.3088225    3.6584812  
  21 H       0.0000000    1.7548145 *  2.9866742 *  2.3478951 *  4.8361542  
  22 H       1.7548145 *  0.0000000    2.3415275 *  2.8390753 *  4.2736708  
  23 H       2.9866742 *  2.3415275 *  0.0000000    1.7519886 *  5.2465772  
  24 H       2.3478951 *  2.8390753 *  1.7519886 *  0.0000000    5.9467061  
  25 H       4.8361542    4.2736708    5.2465772    5.9467061    0.0000000  
  26 H       4.3848465    4.8946359    5.8775468    5.7332709    2.8140721 *
  27 H       4.8939208    5.6117385    5.9407965    5.5984519    3.8831948  
  28 H       5.5225270    5.5362477    5.3754484    5.7107269    3.0442945  
  29 H       5.9909994    5.9810596    6.4401830    6.7761729    2.4176633 *
  30 H       3.6983679    3.6702018    5.3307018    5.5193243    2.1623158 *
  31 H       3.1760342    2.4375168 *  4.4431077    4.9544137    2.7154172 *
  32 H       2.4262326 *  2.7980280 *  4.7944072    4.6499953    3.6612898  
  33 H       5.1375150    6.0664596    5.6193407    4.9397249    5.5162552  
  34 H       5.2136041    5.9263590    4.8126227    4.2237477    6.0672502  
  35 H       5.2460199    5.6626394    4.9332272    4.8123207    4.6584679  
  36 H       2.3511816 *  3.8490378    3.7504841    2.2512959 *  6.0015944  
  37 H       3.8302631    4.9459031    3.9769676    2.6158056 *  6.6640271  
  38 H       3.8583839    5.2868902    5.0374629    3.7137516    6.3381890  
  39 H       3.4970190    4.8407732    5.5498784    4.6448585    4.9380341  
  40 H       6.1725621    5.0971625    5.2949508    6.5516256    2.4752228 *
  41 H       6.8808641    6.1766436    6.4158538    7.3785177    2.4670554 *
  42 H       6.2970588    5.5711759    5.2059853    6.2580803    3.0637113  

               26 H         27 H         28 H         29 H         30 H     

   1 O       2.4326674 *  2.7305751 *  4.3505213    4.5115176    3.0340288  
   2 C       2.8175735 *  3.5030406    3.6157174    3.9452089    2.2223331 *
   3 C       2.1271355 *  2.1826175 *  3.0726934    3.5477803    2.8157451 *
   4 C       3.4049647    3.8615688    2.9046493 *  3.4745361    2.9468410 *
   5 C       3.5573258    2.8564476 *  3.3087540    4.4239400    4.3630756  
   6 C       4.5057396    4.0865154    3.6443336    4.9442608    4.7564891  
   7 C       4.3063325    4.1228037    2.8644081 *  4.1169364    4.3695298  
   8 C       4.2391850    4.7273383    4.8715343    5.4506759    3.4741223  
   9 C       5.0852672    5.0790694    4.8927956    5.9191702    4.7586135  
  10 C       2.9320744 *  3.5005845    2.1641751 *  2.1710210 *  2.8325571 *
  11 C       1.0950302 *  1.0972654 *  2.1824696 *  2.1609927 *  2.7497898 *
  12 C       2.1564803 *  2.1701482 *  1.0959144 *  1.0979342 *  3.2023596  
  13 C       2.7767059 *  4.1074319    4.5007017    4.2201053    1.0919694 *
  14 C       3.9630216    2.6216812 *  2.8965381 *  4.2540728    5.3010593  
  15 C       4.5227980    3.8248144    4.7967418    5.8064556    5.2666499  
  16 C       4.3410790    4.6931442    2.6927370 *  2.8316976 *  4.2228045  
  17 H       4.2643330    4.9228272    3.8691487    4.2878048    3.2872394  
  18 H       5.4312781    4.7485026    4.1660430    5.6692643    5.8396056  
  19 H       5.3252988    5.2114667    3.7432110    4.9775425    5.1297883  
  20 H       4.3356301    3.8489751    2.1419304 *  3.6582560    4.8088001  
  21 H       4.3848465    4.8939208    5.5225270    5.9909994    3.6983679  
  22 H       4.8946359    5.6117385    5.5362477    5.9810596    3.6702018  
  23 H       5.8775468    5.9407965    5.3754484    6.4401830    5.3307018  
  24 H       5.7332709    5.5984519    5.7107269    6.7761729    5.5193243  
  25 H       2.8140721 *  3.8831948    3.0442945    2.4176633 *  2.1623158 *
  26 H       0.0000000    1.7480321 *  3.0532986    2.3850372 *  2.1392886 *
  27 H       1.7480321 *  0.0000000    2.4304707 *  2.5507179 *  3.7405969  
  28 H       3.0532986    2.4304707 *  0.0000000    1.7448283 *  4.2234804  
  29 H       2.3850372 *  2.5507179 *  1.7448283 *  0.0000000    3.5477395  
  30 H       2.1392886 *  3.7405969    4.2234804    3.5477395    0.0000000  
  31 H       3.7272014    5.0746864    5.0848510    4.7897708    1.7663603 *
  32 H       3.1888771    4.4900607    5.3245825    5.0434791    1.7589690 *
  33 H       3.8186298    2.2401808 *  3.2850800    4.3325863    5.4718336  
  34 H       5.0511443    3.6888923    3.7624569    5.2561200    6.3003239  
  35 H       3.9142124    2.5982108 *  2.0301502 *  3.5842564    5.2685663  
  36 H       4.7244604    4.4042734    5.4478423    6.2832673    5.0805998  
  37 H       5.5093982    4.6584530    5.3234917    6.5467645    6.2379647  
  38 H       4.5081610    3.6296258    5.0643168    5.9301901    5.5736224  
  39 H       2.5807936 *  2.4426491 *  4.4748825    4.6271269    3.7158494  
  40 H       5.0664234    5.6140460    3.7302572    3.8136373    4.4965648  
  41 H       4.5391704    4.9195599    2.9750001 *  2.6271581 *  4.5945662  
  42 H       4.8610776    4.8351367    2.5353163 *  3.2514771    5.0199394  

               31 H         32 H         33 H         34 H         35 H     

   1 O       3.8547189    2.5635252 *  3.4564568    4.3897398    4.1217073  
   2 C       2.1728571 *  2.1762315 *  4.3500738    4.6474770    3.9735016  
   3 C       3.5225472    2.9032970 *  2.9107800 *  3.5859972    2.9805705 *
   4 C       2.7532853 *  3.5181735    4.6470080    4.6613403    3.6606882  
   5 C       4.7533318    4.2575395    2.2007329 *  2.1683737 *  2.2285702 *
   6 C       4.6218290    4.6205955    3.5140334    2.7801293 *  2.8175537 *
   7 C       4.1986164    4.7154218    4.1348643    3.6114644    2.8820895 *
   8 C       2.7678703 *  2.6422132 *  5.0182613    4.9266013    4.7585898  
   9 C       4.1519115    4.1408918    4.7313315    4.1114284    4.3019797  
  10 C       3.2748242    4.0868134    4.8087132    5.1682168    3.7268406  
  11 C       4.0140084    3.6239540    2.9186268 *  4.0215830    2.8264546 *
  12 C       4.2280443    4.4640927    3.6723873    4.4008976    2.7953655 *
  13 C       1.0972663 *  1.0933075 *  5.4639130    6.0507857    5.2463707  
  14 C       5.9664617    5.5397824    1.0961154 *  1.0963853 *  1.0915111 *
  15 C       5.5702956    4.6932109    2.7241243 *  2.6188431 *  3.4557794  
  16 C       4.4132076    5.5113191    5.7901634    5.9009754    4.3786388  
  17 H       2.5072811 *  3.7248810    5.7180548    5.6045365    4.6903746  
  18 H       5.6961282    5.6940107    3.6871104    2.4374412 *  2.9410677 *
  19 H       4.6399189    5.4001437    5.1171758    4.3404613    3.7780646  
  20 H       4.9466199    5.4209014    3.7870311    3.2851691    2.2189977 *
  21 H       3.1760342    2.4262326 *  5.1375150    5.2136041    5.2460199  
  22 H       2.4375168 *  2.7980280 *  6.0664596    5.9263590    5.6626394  
  23 H       4.4431077    4.7944072    5.6193407    4.8126227    4.9332272  
  24 H       4.9544137    4.6499953    4.9397249    4.2237477    4.8123207  
  25 H       2.7154172 *  3.6612898    5.5162552    6.0672502    4.6584679  
  26 H       3.7272014    3.1888771    3.8186298    5.0511443    3.9142124  
  27 H       5.0746864    4.4900607    2.2401808 *  3.6888923    2.5982108 *
  28 H       5.0848510    5.3245825    3.2850800    3.7624569    2.0301502 *
  29 H       4.7897708    5.0434791    4.3325863    5.2561200    3.5842564  
  30 H       1.7663603 *  1.7589690 *  5.4718336    6.3003239    5.2685663  
  31 H       0.0000000    1.7732377 *  6.3932267    6.8096229    5.9728823  
  32 H       1.7732377 *  0.0000000    5.7334434    6.3987271    5.8198908  
  33 H       6.3932267    5.7334434    0.0000000    1.7604036 *  1.7662202 *
  34 H       6.8096229    6.3987271    1.7604036 *  0.0000000    1.7607539 *
  35 H       5.9728823    5.8198908    1.7662202 *  1.7607539 *  0.0000000  
  36 H       5.1761991    4.1660008    3.7050942    3.6751614    4.3695479  
  37 H       6.3978159    5.6594080    3.1393665    2.4224233 *  3.7131311  
  38 H       6.1527007    5.0657072    2.4243569 *  2.8314180 *  3.6794577  
  39 H       4.7488018    3.4326155    3.0284511    4.2379823    4.0583487  
  40 H       4.2922580    5.6670358    6.6855610    6.6708941    5.2751828  
  41 H       5.0443822    6.0912598    6.2335634    6.5385800    4.8860506  
  42 H       5.1774969    6.1623071    5.5312503    5.3899600    3.9262526  

               36 H         37 H         38 H         39 H         40 H     

   1 O       2.5334343 *  3.7769569    2.6987429 *  0.9662300 *  6.3195113  
   2 C       3.4013395    4.3532564    4.1944597    3.2601529    4.2409498  
   3 C       2.7983599 *  3.5494592    2.9587615 *  1.9804784 *  5.0713811  
   4 C       4.4971236    4.9675212    5.1123041    4.4553635    2.8217181 *
   5 C       2.2228436 *  2.1737274 *  2.1969324 *  2.7451843 *  5.6161130  
   6 C       2.9058974 *  2.6856185 *  3.4987861    4.1403429    4.9772166  
   7 C       4.2617511    4.1733725    4.7427564    4.8226024    3.4847236  
   8 C       2.8450398 *  3.9371151    4.2027465    3.8895701    5.1870453  
   9 C       2.6959000 *  3.0988661    3.9843041    4.4941711    5.4605369  
  10 C       5.5799377    5.9807959    5.8246029    4.7873043    2.1863022 *
  11 C       4.2368964    4.7295011    3.9149377    2.5183252 *  4.7444557  
  12 C       5.3310068    5.5645120    5.1099669    4.0390100    3.5023913  
  13 C       4.4159274    5.6666377    5.2172778    3.6689775    4.5788578  
  14 C       3.4475890    2.7245596 *  2.6206499 *  3.4091703    5.9853965  
  15 C       1.0898816 *  1.0970068 *  1.0958211 *  2.7406041 *  7.0791875  
  16 C       6.8548942    7.0150932    7.0714247    6.2507549    1.0965802 *
  17 H       5.1430316    5.7080309    5.9989186    5.3405991    2.5668169 *
  18 H       3.3533803    2.5263649 *  3.7499754    4.8909587    5.6263282  
  19 H       4.9616881    4.7854761    5.6164572    5.8478665    3.4605136  
  20 H       4.8389384    4.4851961    4.9444404    5.0564184    3.4722311  
  21 H       2.3511816 *  3.8302631    3.8583839    3.4970190    6.1725621  
  22 H       3.8490378    4.9459031    5.2868902    4.8407732    5.0971625  
  23 H       3.7504841    3.9769676    5.0374629    5.5498784    5.2949508  
  24 H       2.2512959 *  2.6158056 *  3.7137516    4.6448585    6.5516256  
  25 H       6.0015944    6.6640271    6.3381890    4.9380341    2.4752228 *
  26 H       4.7244604    5.5093982    4.5081610    2.5807936 *  5.0664234  
  27 H       4.4042734    4.6584530    3.6296258    2.4426491 *  5.6140460  
  28 H       5.4478423    5.3234917    5.0643168    4.4748825    3.7302572  
  29 H       6.2832673    6.5467645    5.9301901    4.6271269    3.8136373  
  30 H       5.0805998    6.2379647    5.5736224    3.7158494    4.4965648  
  31 H       5.1761991    6.3978159    6.1527007    4.7488018    4.2922580  
  32 H       4.1660008    5.6594080    5.0657072    3.4326155    5.6670358  
  33 H       3.7050942    3.1393665    2.4243569 *  3.0284511    6.6855610  
  34 H       3.6751614    2.4224233 *  2.8314180 *  4.2379823    6.6708941  
  35 H       4.3695479    3.7131311    3.6794577    4.0583487    5.2751828  
  36 H       0.0000000    1.7754825 *  1.7589661 *  2.8190288 *  7.2996550  
  37 H       1.7754825 *  0.0000000    1.7618637 *  3.8100912    7.5574270  
  38 H       1.7589661 *  1.7618637 *  0.0000000    2.3711115 *  7.7407875  
  39 H       2.8190288 *  3.8100912    2.3711115 *  0.0000000    6.9221996  
  40 H       7.2996550    7.5574270    7.7407875    6.9221996    0.0000000  
  41 H       7.6628818    7.8287917    7.7203236    6.7166504    1.7712154 *
  42 H       6.8428563    6.7263986    6.9647695    6.4955618    1.7713691 *

               41 H         42 H     

   1 O       6.3211762    6.0727567  
   2 C       4.7483181    4.3396858  
   3 C       5.1027767    4.6752643  
   4 C       3.5206206    2.8711894 *
   5 C       5.7440344    4.8428107  
   6 C       5.5227196    4.3002383  
   7 C       4.1259748    2.8286758 *
   8 C       6.0198382    5.3325720  
   9 C       6.3338957    5.2397123  
  10 C       2.1801587 *  2.1944606 *
  11 C       4.2566249    4.2219194  
  12 C       2.7815364 *  2.8314962 *
  13 C       5.0273046    5.1199905  
  14 C       5.7489655    4.8056148  
  15 C       7.2739888    6.3744198  
  16 C       1.0967716 *  1.0961544 *
  17 H       3.7592975    3.1722776  
  18 H       6.1499820    4.7285317  
  19 H       4.4509944    2.9715562 *
  20 H       3.7117828    2.2883756 *
  21 H       6.8808641    6.2970588  
  22 H       6.1766436    5.5711759  
  23 H       6.4158538    5.2059853  
  24 H       7.3785177    6.2580803  
  25 H       2.4670554 *  3.0637113  
  26 H       4.5391704    4.8610776  
  27 H       4.9195599    4.8351367  
  28 H       2.9750001 *  2.5353163 *
  29 H       2.6271581 *  3.2514771  
  30 H       4.5945662    5.0199394  
  31 H       5.0443822    5.1774969  
  32 H       6.0912598    6.1623071  
  33 H       6.2335634    5.5312503  
  34 H       6.5385800    5.3899600  
  35 H       4.8860506    3.9262526  
  36 H       7.6628818    6.8428563  
  37 H       7.8287917    6.7263986  
  38 H       7.7203236    6.9647695  
  39 H       6.7166504    6.4955618  
  40 H       1.7712154 *  1.7713691 *
  41 H       0.0000000    1.7668939 *
  42 H       1.7668939 *  0.0000000  

  * ... LESS THAN  3.000


     ATOMIC BASIS SET
     ----------------
 THE CONTRACTED PRIMITIVE FUNCTIONS HAVE BEEN UNNORMALIZED
 THE CONTRACTED BASIS FUNCTIONS ARE NOW NORMALIZED TO UNITY

  SHELL TYPE  PRIMITIVE        EXPONENT          CONTRACTION COEFFICIENT(S)

 O         

      1   S       1           322.0370000    0.059239393389
      1   S       2            48.4308000    0.351499960776
      1   S       3            10.4206000    0.707657921031

      2   L       4             7.4029400   -0.404453583190    0.244586106967
      2   L       5             1.5762000    1.221561761397    0.853955373466

      3   L       6             0.3736840    1.000000000000    1.000000000000

 C         

      4   S       7           172.2560000    0.061766907377
      4   S       8            25.9109000    0.358794042852
      4   S       9             5.5333500    0.700713083689

      5   L      10             3.6649800   -0.395895162119    0.236459946619
      5   L      11             0.7705450    1.215834355681    0.860618805716

      6   L      12             0.1958570    1.000000000000    1.000000000000

 C         

      7   S      13           172.2560000    0.061766907377
      7   S      14            25.9109000    0.358794042852
      7   S      15             5.5333500    0.700713083689

      8   L      16             3.6649800   -0.395895162119    0.236459946619
      8   L      17             0.7705450    1.215834355681    0.860618805716

      9   L      18             0.1958570    1.000000000000    1.000000000000

 C         

     10   S      19           172.2560000    0.061766907377
     10   S      20            25.9109000    0.358794042852
     10   S      21             5.5333500    0.700713083689

     11   L      22             3.6649800   -0.395895162119    0.236459946619
     11   L      23             0.7705450    1.215834355681    0.860618805716

     12   L      24             0.1958570    1.000000000000    1.000000000000

 C         

     13   S      25           172.2560000    0.061766907377
     13   S      26            25.9109000    0.358794042852
     13   S      27             5.5333500    0.700713083689

     14   L      28             3.6649800   -0.395895162119    0.236459946619
     14   L      29             0.7705450    1.215834355681    0.860618805716

     15   L      30             0.1958570    1.000000000000    1.000000000000

 C         

     16   S      31           172.2560000    0.061766907377
     16   S      32            25.9109000    0.358794042852
     16   S      33             5.5333500    0.700713083689

     17   L      34             3.6649800   -0.395895162119    0.236459946619
     17   L      35             0.7705450    1.215834355681    0.860618805716

     18   L      36             0.1958570    1.000000000000    1.000000000000

 C         

     19   S      37           172.2560000    0.061766907377
     19   S      38            25.9109000    0.358794042852
     19   S      39             5.5333500    0.700713083689

     20   L      40             3.6649800   -0.395895162119    0.236459946619
     20   L      41             0.7705450    1.215834355681    0.860618805716

     21   L      42             0.1958570    1.000000000000    1.000000000000

 C         

     22   S      43           172.2560000    0.061766907377
     22   S      44            25.9109000    0.358794042852
     22   S      45             5.5333500    0.700713083689

     23   L      46             3.6649800   -0.395895162119    0.236459946619
     23   L      47             0.7705450    1.215834355681    0.860618805716

     24   L      48             0.1958570    1.000000000000    1.000000000000

 C         

     25   S      49           172.2560000    0.061766907377
     25   S      50            25.9109000    0.358794042852
     25   S      51             5.5333500    0.700713083689

     26   L      52             3.6649800   -0.395895162119    0.236459946619
     26   L      53             0.7705450    1.215834355681    0.860618805716

     27   L      54             0.1958570    1.000000000000    1.000000000000

 C         

     28   S      55           172.2560000    0.061766907377
     28   S      56            25.9109000    0.358794042852
     28   S      57             5.5333500    0.700713083689

     29   L      58             3.6649800   -0.395895162119    0.236459946619
     29   L      59             0.7705450    1.215834355681    0.860618805716

     30   L      60             0.1958570    1.000000000000    1.000000000000

 C         

     31   S      61           172.2560000    0.061766907377
     31   S      62            25.9109000    0.358794042852
     31   S      63             5.5333500    0.700713083689

     32   L      64             3.6649800   -0.395895162119    0.236459946619
     32   L      65             0.7705450    1.215834355681    0.860618805716

     33   L      66             0.1958570    1.000000000000    1.000000000000

 C         

     34   S      67           172.2560000    0.061766907377
     34   S      68            25.9109000    0.358794042852
     34   S      69             5.5333500    0.700713083689

     35   L      70             3.6649800   -0.395895162119    0.236459946619
     35   L      71             0.7705450    1.215834355681    0.860618805716

     36   L      72             0.1958570    1.000000000000    1.000000000000

 C         

     37   S      73           172.2560000    0.061766907377
     37   S      74            25.9109000    0.358794042852
     37   S      75             5.5333500    0.700713083689

     38   L      76             3.6649800   -0.395895162119    0.236459946619
     38   L      77             0.7705450    1.215834355681    0.860618805716

     39   L      78             0.1958570    1.000000000000    1.000000000000

 C         

     40   S      79           172.2560000    0.061766907377
     40   S      80            25.9109000    0.358794042852
     40   S      81             5.5333500    0.700713083689

     41   L      82             3.6649800   -0.395895162119    0.236459946619
     41   L      83             0.7705450    1.215834355681    0.860618805716

     42   L      84             0.1958570    1.000000000000    1.000000000000

 C         

     43   S      85           172.2560000    0.061766907377
     43   S      86            25.9109000    0.358794042852
     43   S      87             5.5333500    0.700713083689

     44   L      88             3.6649800   -0.395895162119    0.236459946619
     44   L      89             0.7705450    1.215834355681    0.860618805716

     45   L      90             0.1958570    1.000000000000    1.000000000000

 C         

     46   S      91           172.2560000    0.061766907377
     46   S      92            25.9109000    0.358794042852
     46   S      93             5.5333500    0.700713083689

     47   L      94             3.6649800   -0.395895162119    0.236459946619
     47   L      95             0.7705450    1.215834355681    0.860618805716

     48   L      96             0.1958570    1.000000000000    1.000000000000

 H         

     49   S      97             5.4471780    0.156284978695
     49   S      98             0.8245472    0.904690876670

     50   S      99             0.1831916    1.000000000000

 H         

     51   S     100             5.4471780    0.156284978695
     51   S     101             0.8245472    0.904690876670

     52   S     102             0.1831916    1.000000000000

 H         

     53   S     103             5.4471780    0.156284978695
     53   S     104             0.8245472    0.904690876670

     54   S     105             0.1831916    1.000000000000

 H         

     55   S     106             5.4471780    0.156284978695
     55   S     107             0.8245472    0.904690876670

     56   S     108             0.1831916    1.000000000000

 H         

     57   S     109             5.4471780    0.156284978695
     57   S     110             0.8245472    0.904690876670

     58   S     111             0.1831916    1.000000000000

 H         

     59   S     112             5.4471780    0.156284978695
     59   S     113             0.8245472    0.904690876670

     60   S     114             0.1831916    1.000000000000

 H         

     61   S     115             5.4471780    0.156284978695
     61   S     116             0.8245472    0.904690876670

     62   S     117             0.1831916    1.000000000000

 H         

     63   S     118             5.4471780    0.156284978695
     63   S     119             0.8245472    0.904690876670

     64   S     120             0.1831916    1.000000000000

 H         

     65   S     121             5.4471780    0.156284978695
     65   S     122             0.8245472    0.904690876670

     66   S     123             0.1831916    1.000000000000

 H         

     67   S     124             5.4471780    0.156284978695
     67   S     125             0.8245472    0.904690876670

     68   S     126             0.1831916    1.000000000000

 H         

     69   S     127             5.4471780    0.156284978695
     69   S     128             0.8245472    0.904690876670

     70   S     129             0.1831916    1.000000000000

 H         

     71   S     130             5.4471780    0.156284978695
     71   S     131             0.8245472    0.904690876670

     72   S     132             0.1831916    1.000000000000

 H         

     73   S     133             5.4471780    0.156284978695
     73   S     134             0.8245472    0.904690876670

     74   S     135             0.1831916    1.000000000000

 H         

     75   S     136             5.4471780    0.156284978695
     75   S     137             0.8245472    0.904690876670

     76   S     138             0.1831916    1.000000000000

 H         

     77   S     139             5.4471780    0.156284978695
     77   S     140             0.8245472    0.904690876670

     78   S     141             0.1831916    1.000000000000

 H         

     79   S     142             5.4471780    0.156284978695
     79   S     143             0.8245472    0.904690876670

     80   S     144             0.1831916    1.000000000000

 H         

     81   S     145             5.4471780    0.156284978695
     81   S     146             0.8245472    0.904690876670

     82   S     147             0.1831916    1.000000000000

 H         

     83   S     148             5.4471780    0.156284978695
     83   S     149             0.8245472    0.904690876670

     84   S     150             0.1831916    1.000000000000

 H         

     85   S     151             5.4471780    0.156284978695
     85   S     152             0.8245472    0.904690876670

     86   S     153             0.1831916    1.000000000000

 H         

     87   S     154             5.4471780    0.156284978695
     87   S     155             0.8245472    0.904690876670

     88   S     156             0.1831916    1.000000000000

 H         

     89   S     157             5.4471780    0.156284978695
     89   S     158             0.8245472    0.904690876670

     90   S     159             0.1831916    1.000000000000

 H         

     91   S     160             5.4471780    0.156284978695
     91   S     161             0.8245472    0.904690876670

     92   S     162             0.1831916    1.000000000000

 H         

     93   S     163             5.4471780    0.156284978695
     93   S     164             0.8245472    0.904690876670

     94   S     165             0.1831916    1.000000000000

 H         

     95   S     166             5.4471780    0.156284978695
     95   S     167             0.8245472    0.904690876670

     96   S     168             0.1831916    1.000000000000

 H         

     97   S     169             5.4471780    0.156284978695
     97   S     170             0.8245472    0.904690876670

     98   S     171             0.1831916    1.000000000000

 H         

     99   S     172             5.4471780    0.156284978695
     99   S     173             0.8245472    0.904690876670

    100   S     174             0.1831916    1.000000000000

 TOTAL NUMBER OF BASIS SET SHELLS             =  100
 NUMBER OF CARTESIAN GAUSSIAN BASIS FUNCTIONS =  196
 NUMBER OF ELECTRONS                          =  124
 CHARGE OF MOLECULE                           =    0
 SPIN MULTIPLICITY                            =    1
 NUMBER OF OCCUPIED ORBITALS (ALPHA)          =   62
 NUMBER OF OCCUPIED ORBITALS (BETA )          =   62
 TOTAL NUMBER OF ATOMS                        =   42
 THE NUCLEAR REPULSION ENERGY IS     1326.9880346118

 SELECTED MURRAY-HANDY-LAMING RADIAL GRID

 LEGACY BECKE'S FUZZY CELL METHOD

 SELECTED ORIGINAL BECKE'S PARTITION FUNCTION

     LEBEDEV GRID-BASED DFT OPTIONS
     ------------------------------
     DFTTYP=B3LYP   
     NRAD  =      96     NLEB  =     302
     NRAD0 =      24     NLEB0 =     110
     SWOFF =    5.00E-03 (PURE SCF -> DFT)
     SWITCH=    3.00E-04 (COARSE -> TIGHT GRID)
     THRESH=    0.00E+00 GTHRE=    1.00E+00

 GRIMME'S EMPIRICAL DISPERSION CORRECTION= F

     $CONTRL OPTIONS
     ---------------
 SCFTYP=RHF          RUNTYP=ENERGY       EXETYP=RUN     
 MPLEVL=       0     CITYP =NONE         CCTYP =NONE         VBTYP =NONE    
 DFTTYP=B3LYP        TDDFT =NONE    
 MULT  =       1     ICHARG=       0     NZVAR =       0     COORD =UNIQUE  
 PP    =NONE         RELWFN=NONE         LOCAL =NONE         NUMGRD=       F
 ISPHER=      -1     NOSYM =       0     MAXIT =      60     UNITS =ANGS    
 PLTORB=       F     MOLPLT=       F     AIMPAC=       F     FRIEND=        
 NPRINT=       7     IREST =       0     GEOM  =INPUT   
 NORMF =       0     NORMP =       0     ITOL  =      20     ICUT  =       9
 INTTYP=BEST         GRDTYP=BEST         QMTTOL= 1.0E-06

     $SYSTEM OPTIONS
     ---------------
  REPLICATED MEMORY=    30000000 WORDS (ON EVERY NODE).
 DISTRIBUTED MEMDDI=        1000 MILLION WORDS IN AGGREGATE,
 MEMDDI DISTRIBUTED OVER   6 PROCESSORS IS   166666666 WORDS/PROCESSOR.
 TOTAL MEMORY REQUESTED ON EACH PROCESSOR=   196666666 WORDS.
 TIMLIM=      525600.00 MINUTES, OR     365.0 DAYS.
 PARALL= T  BALTYP=  DLB     KDIAG=    0  COREFL= F
 MXSEQ2=     300 MXSEQ3=     150  mem10=         0

     INPUT FOR POTENTIAL-DERIVED CHARGES 
     -----------------------------------
     VDWSCL=    1.00   RMAX=    3.00   DELR=    0.80
     VDWINC=    0.20 PTDENS=    0.28
     LAYER =       4  NFREQ=      30 MAXPDC=   10000
     CONSTR=CHARGE    UNITS=ANGS      PTSEL=CHELPG  
     CENTER=  0.0000  0.0000  0.0000
     DPOLE =  0.0000  0.0000  0.0000
     QPOLE =  0.0000  0.0000  0.0000  0.0000  0.0000  0.0000


          ----------------
          PROPERTIES INPUT
          ----------------

     MOMENTS            FIELD           POTENTIAL          DENSITY
 IEMOM =       1   IEFLD =       0   IEPOT =       1   IEDEN =       0
 WHERE =COMASS     WHERE =NUCLEI     WHERE =PDC        WHERE =NUCLEI  
 OUTPUT=BOTH       OUTPUT=BOTH       OUTPUT=BOTH       OUTPUT=BOTH    
 IEMINT=       0   IEFINT=       0                     IEDINT=       0
                                                       MORB  =       0
          EXTRAPOLATION IN EFFECT
          DIIS IN EFFECT
 ORBITAL PRINTING OPTION: NPREO=     1   196     2     1

     -------------------------------
     INTEGRAL TRANSFORMATION OPTIONS
     -------------------------------
     NWORD  =            0
     CUTOFF = 1.0E-09     MPTRAN =       0
     DIRTRF =       T     AOINTS =DUP     

          ----------------------
          INTEGRAL INPUT OPTIONS
          ----------------------
 NOPK  =       1 NORDER=       0 SCHWRZ=       T

     ------------------------------------------
     THE POINT GROUP IS C1 , NAXIS= 0, ORDER= 1
     ------------------------------------------

     DIMENSIONS OF THE SYMMETRY SUBSPACES ARE
 A   =  196

 ..... DONE SETTING UP THE RUN .....
 CPU     0: STEP CPU TIME=     0.02 TOTAL CPU TIME=          0.0 (      0.0 MIN)
 TOTAL WALL CLOCK TIME=          0.0 SECONDS, CPU UTILIZATION IS    66.67%

          ********************
          1 ELECTRON INTEGRALS
          ********************
 ...... END OF ONE-ELECTRON INTEGRALS ......
 CPU     0: STEP CPU TIME=     0.02 TOTAL CPU TIME=          0.0 (      0.0 MIN)
 TOTAL WALL CLOCK TIME=          0.0 SECONDS, CPU UTILIZATION IS    80.00%

          -------------
          GUESS OPTIONS
          -------------
          GUESS =HUCKEL            NORB  =       0          NORDER=       0
          MIX   =       F          PRTMO =       F          PUNMO =       F
          TOLZ  = 1.0E-08          TOLE  = 1.0E-05
          SYMDEN=       F          PURIFY=       F

 INITIAL GUESS ORBITALS GENERATED BY HUCKEL   ROUTINE.
 HUCKEL GUESS REQUIRES    353998 WORDS.

 SYMMETRIES FOR INITIAL GUESS ORBITALS FOLLOW.   BOTH SET(S).
    62 ORBITALS ARE OCCUPIED (   16 CORE ORBITALS).
    17=A       18=A       19=A       20=A       21=A       22=A       23=A   
    24=A       25=A       26=A       27=A       28=A       29=A       30=A   
    31=A       32=A       33=A       34=A       35=A       36=A       37=A   
    38=A       39=A       40=A       41=A       42=A       43=A       44=A   
    45=A       46=A       47=A       48=A       49=A       50=A       51=A   
    52=A       53=A       54=A       55=A       56=A       57=A       58=A   
    59=A       60=A       61=A       62=A       63=A       64=A       65=A   
    66=A       67=A       68=A       69=A       70=A       71=A       72=A   
 ...... END OF INITIAL ORBITAL SELECTION ......
 CPU     0: STEP CPU TIME=     0.07 TOTAL CPU TIME=          0.1 (      0.0 MIN)
 TOTAL WALL CLOCK TIME=          0.2 SECONDS, CPU UTILIZATION IS    68.75%

                    ----------------------
                    AO INTEGRAL TECHNOLOGY
                    ----------------------
     S,P,L SHELL ROTATED AXIS INTEGRALS, REPROGRAMMED BY
        KAZUYA ISHIMURA (IMS) AND JOSE SIERRA (SYNSTAR).
     S,P,D,L SHELL ROTATED AXIS INTEGRALS PROGRAMMED BY
        KAZUYA ISHIMURA (INSTITUTE FOR MOLECULAR SCIENCE).
     S,P,D,F,G SHELL TO TOTAL QUARTET ANGULAR MOMENTUM SUM 5,
        ERIC PROGRAM BY GRAHAM FLETCHER (ELORET AND NASA ADVANCED
        SUPERCOMPUTING DIVISION, AMES RESEARCH CENTER).
     S,P,D,F,G,L SHELL GENERAL RYS QUADRATURE PROGRAMMED BY
        MICHEL DUPUIS (PACIFIC NORTHWEST NATIONAL LABORATORY).

          --------------------
          2 ELECTRON INTEGRALS
          --------------------

 DIRECT SCF METHOD SKIPS INTEGRAL STORAGE ON DISK.
 DIRECT TRANSFORMATION SKIPS AO INTEGRAL STORAGE ON DISK.
  ...... END OF TWO-ELECTRON INTEGRALS .....
 CPU     0: STEP CPU TIME=     0.01 TOTAL CPU TIME=          0.1 (      0.0 MIN)
 TOTAL WALL CLOCK TIME=          0.2 SECONDS, CPU UTILIZATION IS    66.67%

          --------------------------
             R-B3LYP SCF CALCULATION
          --------------------------

     NUCLEAR ENERGY =      1326.9880346118
     MAXIT =   60     NPUNCH=    2
     EXTRAP=T  DAMP=F  SHIFT=F  RSTRCT=F  DIIS=T  DEM=F  SOSCF=F
         DENSITY MATRIX CONVERGENCE THRESHOLD=  2.00E-05
     COARSE -> FINE DFT GRID SWITCH THRESHOLD=  3.00E-04 (SWITCH IN $DFT)
                   HF -> DFT SWITCH THRESHOLD=  5.00E-03 (SWOFF IN $DFT)
     MEMORY REQUIRED FOR RHF ITERS=   1672509 WORDS.

 DIRECT SCF CALCULATION, SCHWRZ=T   FDIFF=T,  DIRTHR=  0.00E+00 NITDIR=10
 SCHWARZ INEQUALITY OVERHEAD:     18343 INTEGRALS, T=        0.00

 DFT CODE IS SWITCHING FROM THE FINE GRID NRAD= 96,  NLEB=  302
                      TO THE COARSE GRID NRAD0= 24, NLEB0=  110

     EXCHANGE FUNCTIONAL   =B88&HFX   
     CORRELATION FUNCTIONAL=LYP88&VWN5
     DFT THRESHOLD         =.328E-08
     GRID CHANGE THRESHOLD =.300E-03
 FOR AN EULER-MACLAURIN QUADRATURE USING  96 RADIAL POINTS:
 SMALLEST GAUSSIAN PRIMITIVE EXPONENT=        0.1831915800 OF TYPE -S-
 ON ATOM NUMBER  17 HAS RADIAL NORMALIZATION=  1.000000
  LARGEST GAUSSIAN PRIMITIVE EXPONENT=      322.0370000000 OF TYPE -S-
 ON ATOM NUMBER   1 HAS RADIAL NORMALIZATION=  1.000000
 DFT IS SWITCHED OFF, PERFORMING PURE SCF UNTIL SWOFF THRESHOLD IS REACHED.

                                                                                   NONZERO     BLOCKS
 ITER EX DEM     TOTAL ENERGY        E CHANGE  DENSITY CHANGE    DIIS ERROR      INTEGRALS    SKIPPED
          * * *   INITIATING DIIS PROCEDURE   * * *
   1  0  0     -653.0723179522  -653.0723179522   0.840551728   0.390739650      113327479    7049207
   2  1  0     -654.3266084638    -1.2542905116   0.146184483   0.046299369      112764674    7196982
   3  2  0     -654.3821626932    -0.0555542294   0.106961966   0.026172002      110720780    7514859
   4  3  0     -654.3979758605    -0.0158131673   0.020947602   0.005608838      107773172    7878391
   5  4  0     -654.3987356768    -0.0007598163   0.004039119   0.002269980      102000839    8316990
 CONVERGED TO SWOFF, SO DFT CALCULATION IS NOW SWITCHED ON.
          * * *   INITIATING DIIS PROCEDURE   * * *
   6  5  0     -658.3810050243    -3.9822693476   0.069007793   0.056787723      113564564    6987724
   7  6  0     -658.4232523175    -0.0422472932   0.095205208   0.020006563      111245431    7481940
   8  7  0     -658.4238601455    -0.0006078280   0.061218137   0.018559771      108969923    7711075
   9  8  0     -658.4357154480    -0.0118553025   0.008699061   0.004674421      107168822    7905337
  10  9  0     -658.4359337336    -0.0002182856   0.000831815   0.000786895       98141575    8623496
  11 10  0     -658.4359409669    -0.0000072333   0.000314174   0.000161133       89568614    9149530
  12 11  0     -658.4359412888    -0.0000003218   0.000103342   0.000050773       80884278    9672161
 DFT CODE IS SWITCHING BACK TO THE FINE GRID
          * * *   INITIATING DIIS PROCEDURE   * * *
  13 12  0     -658.4456638160    -0.0097225272   0.004653541   0.003509340      113737695    6937821
  14 13  0     -658.4458628632    -0.0001990472   0.003094513   0.000452060      102027682    8340903
  15 14  0     -658.4458630643    -0.0000002011   0.001936587   0.000671578       92722461    8960496
  16 15  0     -658.4458682534    -0.0000051891   0.000192979   0.000131178       87428585    9297607
  17 16  0     -658.4458683876    -0.0000001342   0.000066464   0.000036847       78917474    9770127
  18 17  0     -658.4458684044    -0.0000000168   0.000012353   0.000005607       70012080   10207212
  19 18  0     -658.4458684047    -0.0000000003   0.000003685   0.000001218       60508218   10660517

          -----------------
          DENSITY CONVERGED
          -----------------
     TIME TO FORM FOCK OPERATORS=     154.8 SECONDS (       8.1 SEC/ITER)
     FOCK TIME ON FIRST ITERATION=       1.9, LAST ITERATION=      17.3
     TIME TO SOLVE SCF EQUATIONS=       0.6 SECONDS (       0.0 SEC/ITER)

 FINAL R-B3LYP ENERGY IS     -658.4458684047 AFTER  19 ITERATIONS
 DFT EXCHANGE + CORRELATION ENERGY =       -80.1509365833
 TOTAL ELECTRON NUMBER             =       123.9996040370

          ------------
          EIGENVECTORS
          ------------

                      1          2          3          4          5
                  -19.0117   -10.1647   -10.1227   -10.1153   -10.1103
                     A          A          A          A          A   
    1  O  1  S    0.982671  -0.000256   0.000103   0.000107   0.000045
    2  O  1  S    0.106601  -0.001566   0.000643   0.000573   0.000378
    3  O  1  X   -0.001386  -0.000156   0.000285   0.000248  -0.000049
    4  O  1  Y    0.003077   0.000273  -0.000000   0.000155   0.000020
    5  O  1  Z   -0.001790  -0.000093  -0.000136   0.000243  -0.000086
    6  O  1  S   -0.057330   0.013440  -0.003088  -0.003844  -0.001874
    7  O  1  X    0.007083  -0.004004  -0.000718   0.000469   0.000499
    8  O  1  Y   -0.007554   0.000206  -0.000968   0.000049  -0.000196
    9  O  1  Z    0.008494  -0.004778   0.002798   0.001098   0.000779
   10  C  2  S    0.000341  -0.006594  -0.005905   0.984803   0.025140
   11  C  2  S    0.001599  -0.003608  -0.000347   0.126134   0.002473
   12  C  2  X   -0.000085   0.000501  -0.000295   0.000404   0.001385
   13  C  2  Y   -0.000585   0.000959  -0.000571   0.000609  -0.000442
   14  C  2  Z    0.000102   0.000501  -0.000296  -0.001190   0.000038
   15  C  2  S   -0.008471   0.022884  -0.003192  -0.147334  -0.005066
   16  C  2  X   -0.003634   0.009277  -0.004140  -0.003430  -0.003001
   17  C  2  Y   -0.001125   0.016579  -0.000668  -0.005841   0.002199
   18  C  2  Z   -0.005376   0.006054   0.002106   0.010374   0.002034
   19  C  3  S   -0.001262   0.987833   0.007943   0.004932  -0.002148
   20  C  3  S   -0.005674   0.121482  -0.004228  -0.003428   0.000819
   21  C  3  X    0.000320  -0.000906   0.000307  -0.000732  -0.000455
   22  C  3  Y    0.000112  -0.000483  -0.000117  -0.001015   0.000106
   23  C  3  Z    0.000152  -0.000462  -0.000392  -0.000703  -0.000533
   24  C  3  S    0.031746  -0.125464   0.033802   0.035734  -0.001677
   25  C  3  X    0.013010   0.008876   0.011861  -0.003137   0.003742
   26  C  3  Y   -0.005126   0.000999   0.007700  -0.019211  -0.000739
   27  C  3  Z    0.016291   0.007055  -0.016432  -0.009546   0.002737
   28  C  4  S   -0.000225  -0.006768   0.005378  -0.036704  -0.117456
   29  C  4  S   -0.001545  -0.004014   0.001499  -0.008340  -0.016692
   30  C  4  X   -0.000445  -0.001528   0.000252   0.001255  -0.000625
   31  C  4  Y   -0.000771  -0.001076   0.000021  -0.000373   0.000095
   32  C  4  Z   -0.000324  -0.001120   0.000184   0.000566   0.000047
   33  C  4  S    0.004003   0.007787  -0.002819   0.041038   0.037476
   34  C  4  X    0.001075   0.003382  -0.001771   0.017300  -0.012712
   35  C  4  Y    0.006447   0.004840  -0.001317  -0.003256   0.010206
   36  C  4  Z    0.000824   0.006211  -0.001026   0.010558   0.007723
   37  C  5  S    0.000352  -0.009794   0.987788   0.005005   0.000090
   38  C  5  S    0.001771  -0.005628   0.124259   0.001836  -0.000319
   39  C  5  X    0.001106  -0.000013   0.000382   0.000566  -0.000269
   40  C  5  Y    0.000096  -0.000177  -0.000108   0.000205  -0.000103
   41  C  5  Z    0.000308   0.000331  -0.000315  -0.000064   0.000130
   42  C  5  S   -0.007821   0.028047  -0.138946  -0.014556   0.002976
   43  C  5  X   -0.009090  -0.013994  -0.000831   0.005033  -0.000286
   44  C  5  Y    0.002413  -0.007112   0.003137   0.009942  -0.000180
   45  C  5  Z   -0.007539   0.014786  -0.000354   0.002482  -0.000913
   46  C  6  S   -0.000053  -0.001358  -0.020287  -0.066435  -0.000744
   47  C  6  S   -0.000393  -0.000394  -0.005944  -0.013940  -0.000203
   48  C  6  X   -0.000005  -0.000303   0.000655   0.000918  -0.000116
   49  C  6  Y    0.000152  -0.000819   0.001131   0.001213   0.000210
   50  C  6  Z   -0.000391  -0.000882   0.000805  -0.001655   0.000154
   51  C  6  S   -0.000908  -0.001196   0.031408   0.033193   0.000394
   52  C  6  X    0.000110   0.003377   0.006124  -0.006149  -0.000336
   53  C  6  Y   -0.003128   0.001477   0.006369  -0.009060  -0.001686
   54  C  6  Z    0.001344  -0.001463   0.015243   0.013517  -0.001241
   55  C  7  S    0.000076  -0.001075  -0.009078  -0.004864  -0.013221
   56  C  7  S    0.000307  -0.000430  -0.002494   0.000232  -0.002284
   57  C  7  X    0.000057   0.000150  -0.001144  -0.000761   0.000774
   58  C  7  Y    0.000190   0.000192  -0.000544   0.000518   0.000220
   59  C  7  Z   -0.000129  -0.000640  -0.000748  -0.000896  -0.001087
   60  C  7  S   -0.002814   0.000924   0.002133  -0.014790  -0.001925
   61  C  7  X    0.000429   0.000721   0.001224  -0.005964  -0.000011
   62  C  7  Y   -0.000088  -0.001546   0.001530   0.002116  -0.000776
   63  C  7  Z   -0.002647  -0.000439   0.001779  -0.004871   0.000449
   64  C  8  S    0.000062  -0.003313  -0.002851  -0.011322  -0.006409
   65  C  8  S    0.000685  -0.002101  -0.001048  -0.004767  -0.001861
   66  C  8  X    0.000043   0.000200  -0.000428  -0.001240   0.000273
   67  C  8  Y    0.000518  -0.001269  -0.000405   0.001198  -0.000054
   68  C  8  Z    0.000166  -0.000595   0.000086   0.000790   0.000222
   69  C  8  S   -0.000293   0.003168   0.003968   0.038675   0.005494
   70  C  8  X   -0.000962  -0.000714   0.000649  -0.011586  -0.003518
   71  C  8  Y   -0.001478   0.003119   0.002427   0.012826   0.001894
   72  C  8  Z    0.001154  -0.000205   0.000495   0.004559   0.000410
   73  C  9  S   -0.000022   0.001767  -0.006557  -0.002101  -0.002113
   74  C  9  S   -0.000174   0.001383  -0.001549   0.001015  -0.000305
   75  C  9  X   -0.000037  -0.000103   0.000223   0.000512   0.000288
   76  C  9  Y   -0.000155   0.000421  -0.001017  -0.000599   0.000006
   77  C  9  Z    0.000014   0.000112  -0.000616  -0.000870  -0.000288
   78  C  9  S   -0.000017  -0.003128  -0.002659  -0.016968  -0.001640
   79  C  9  X    0.000788   0.000268   0.000500   0.005899  -0.000053
   80  C  9  Y   -0.000808  -0.001723  -0.000681  -0.005249  -0.000498
   81  C  9  Z    0.000924  -0.002354  -0.000516  -0.004346   0.000720
   82  C 10  S    0.000146   0.001578   0.000397  -0.029928   0.977727
   83  C 10  S    0.000727   0.001375  -0.000118  -0.004333   0.119112
   84  C 10  X   -0.000315   0.000209   0.000239  -0.001038   0.000177
   85  C 10  Y    0.000258  -0.000059  -0.000121   0.000440   0.000380
   86  C 10  Z   -0.000224   0.000715   0.000017  -0.000083  -0.000359
   87  C 10  S   -0.005778  -0.005183   0.002072   0.002149  -0.124284
   88  C 10  X   -0.001796  -0.005809   0.000018   0.001125  -0.005814
   89  C 10  Y   -0.002308   0.001616   0.001322   0.001050  -0.003895
   90  C 10  Z    0.002171  -0.003245   0.000361   0.001726   0.005879
   91  C 11  S    0.000187  -0.006662  -0.005451  -0.021624  -0.020773
   92  C 11  S    0.000429  -0.004635  -0.000764  -0.004178  -0.003110
   93  C 11  X   -0.000430   0.000696  -0.000507  -0.000367   0.001108
   94  C 11  Y    0.000299  -0.000485   0.000526   0.001107   0.000334
   95  C 11  Z    0.000097  -0.000005   0.000454   0.000310   0.000237
   96  C 11  S   -0.004393   0.029001  -0.000523   0.006669   0.001791
   97  C 11  X   -0.005469   0.012560  -0.001418   0.001062  -0.001255
   98  C 11  Y    0.003332  -0.011458  -0.003095  -0.002258  -0.000813
   99  C 11  Z   -0.002673  -0.008949   0.001904  -0.000331   0.000323
  100  C 12  S   -0.000067  -0.002431   0.001566   0.007315  -0.061687
  101  C 12  S   -0.000519  -0.001075   0.000434   0.001780  -0.009827
  102  C 12  X   -0.000477  -0.001261  -0.000017   0.000056  -0.000576
  103  C 12  Y    0.000109   0.000092  -0.000171   0.000216  -0.000683
  104  C 12  Z    0.000166  -0.000301   0.000175  -0.000375  -0.000481
  105  C 12  S    0.000306   0.001366  -0.001100  -0.005103   0.031863
  106  C 12  X   -0.000187   0.001065   0.001025  -0.001362  -0.005054
  107  C 12  Y   -0.002142  -0.000533   0.002022   0.001238  -0.013197
  108  C 12  Z   -0.003245   0.001347  -0.000650   0.002053  -0.007825
  109  C 13  S   -0.000004  -0.003036  -0.002255  -0.008059  -0.000047
  110  C 13  S    0.000212  -0.001966  -0.000980  -0.003351   0.000173
  111  C 13  X    0.000162  -0.000653  -0.000235   0.000444  -0.000056
  112  C 13  Y    0.000317  -0.001079  -0.000391   0.000622  -0.000187
  113  C 13  Z   -0.000238   0.000178  -0.000015  -0.001044  -0.000255
  114  C 13  S    0.002224   0.002835   0.000841   0.024905   0.000506
  115  C 13  X    0.000474   0.001077   0.001721   0.004062   0.001195
  116  C 13  Y    0.000257   0.001388   0.001625   0.007103  -0.000179
  117  C 13  Z   -0.001158  -0.000533   0.001122  -0.010463   0.001495
  118  C 14  S   -0.000016  -0.001091  -0.011165  -0.001320  -0.002641
  119  C 14  S   -0.000037  -0.000126  -0.004226  -0.000421  -0.000541
  120  C 14  X    0.000094  -0.000007   0.000541   0.000007  -0.000032
  121  C 14  Y   -0.000117   0.000751  -0.001289   0.000115  -0.000011
  122  C 14  Z    0.000049  -0.000252  -0.000074  -0.000089  -0.000032
  123  C 14  S   -0.000487  -0.001980   0.029034  -0.000932   0.000840
  124  C 14  X    0.001275   0.002341   0.000790  -0.001723  -0.000219
  125  C 14  Y    0.001171   0.000622  -0.015021  -0.000098   0.000600
  126  C 14  Z    0.001776  -0.002049   0.003142  -0.000286   0.000309
  127  C 15  S   -0.000213  -0.003001  -0.008741   0.002910   0.001885
  128  C 15  S   -0.001179  -0.001708  -0.003969   0.000627   0.000518
  129  C 15  X   -0.000443   0.001134  -0.001608  -0.000542  -0.000091
  130  C 15  Y    0.000032   0.000211   0.000337  -0.000151  -0.000034
  131  C 15  Z   -0.000498  -0.000556  -0.000359   0.000163   0.000073
  132  C 15  S    0.009014   0.002699   0.031241   0.000277  -0.001016
  133  C 15  X   -0.003946  -0.002620  -0.015793   0.000864   0.000708
  134  C 15  Y    0.000864   0.000856   0.000046  -0.001604   0.000113
  135  C 15  Z    0.001685  -0.000216  -0.001051  -0.001198  -0.000261
  136  C 16  S   -0.000046  -0.000134   0.000428  -0.005811  -0.023696
  137  C 16  S   -0.000220   0.000012   0.000194  -0.001662  -0.005291
  138  C 16  X    0.000076  -0.000198  -0.000046  -0.000362   0.000874
  139  C 16  Y   -0.000007   0.000030  -0.000007   0.000207  -0.000117
  140  C 16  Z    0.000128   0.000006  -0.000047   0.000073   0.000555
  141  C 16  S    0.001711  -0.002423  -0.000918   0.003238   0.028452
  142  C 16  X    0.001063  -0.000586  -0.000181   0.002491   0.011901
  143  C 16  Y    0.000280   0.000037  -0.000222  -0.001453  -0.001338
  144  C 16  Z   -0.000234  -0.001378  -0.000036  -0.000507   0.007044
  145  H 17  S    0.000419   0.000118  -0.000060  -0.001853  -0.001230
  146  H 17  S    0.002219   0.003993  -0.000564  -0.000688  -0.001283
  147  H 18  S    0.000307  -0.000423  -0.001352   0.000062  -0.000061
  148  H 18  S    0.001102  -0.000203   0.000179   0.003678  -0.000022
  149  H 19  S   -0.000127  -0.000339  -0.000077   0.000400   0.000472
  150  H 19  S   -0.000543   0.000159   0.002336   0.000098  -0.000650
  151  H 20  S    0.000279   0.000251  -0.000155   0.000578  -0.000426
  152  H 20  S    0.000156   0.000361  -0.001540  -0.000247   0.002228
  153  H 21  S   -0.000074  -0.000465  -0.000232  -0.001840  -0.000066
  154  H 21  S    0.000199   0.000290  -0.000996   0.000233   0.000746
  155  H 22  S   -0.000047  -0.000105  -0.000008  -0.001730  -0.000559
  156  H 22  S   -0.001116   0.002022   0.000803  -0.000603   0.000054
  157  H 23  S    0.000042   0.000045  -0.000108   0.000880   0.000031
  158  H 23  S    0.000331  -0.000963   0.001449  -0.000005   0.000403
  159  H 24  S   -0.000100   0.000428   0.000469   0.000332   0.000018
  160  H 24  S   -0.000400  -0.000368  -0.001659  -0.000406   0.000617
  161  H 25  S   -0.000127   0.000910  -0.000094   0.000190   0.001768
  162  H 25  S   -0.000748   0.000731   0.000113  -0.001973   0.017027
  163  H 26  S    0.000348  -0.001787  -0.000426  -0.000180  -0.000053
  164  H 26  S    0.001579   0.001311   0.000053  -0.002262  -0.001411
  165  H 27  S    0.000709  -0.001811   0.000757  -0.000255  -0.000168
  166  H 27  S   -0.000795   0.001398   0.000029   0.001055   0.001684
  167  H 28  S   -0.000232   0.000147  -0.000148   0.000405  -0.001665
  168  H 28  S   -0.000573  -0.000165  -0.000800   0.001496  -0.001048
  169  H 29  S    0.000297  -0.000398   0.000137  -0.000014  -0.001165
  170  H 29  S    0.000961   0.001462   0.000170  -0.000591  -0.000589
  171  H 30  S    0.000194  -0.000232  -0.000218  -0.001574   0.000278
  172  H 30  S   -0.000284  -0.000876  -0.000472   0.000305  -0.001557
  173  H 31  S   -0.000112  -0.000212   0.000169  -0.001395   0.000486
  174  H 31  S   -0.000435   0.001697   0.001124  -0.000230  -0.000381
  175  H 32  S   -0.000396  -0.000274  -0.000340  -0.001331  -0.000226
  176  H 32  S    0.000731  -0.000944  -0.000689  -0.000318  -0.000865
  177  H 33  S   -0.000106   0.000374  -0.001667   0.000007  -0.000025
  178  H 33  S   -0.001262  -0.000120  -0.000255   0.000350  -0.000589
  179  H 34  S    0.000130  -0.000324  -0.001281   0.000053  -0.000052
  180  H 34  S   -0.000098  -0.000002   0.000321   0.000430   0.000056
  181  H 35  S    0.000083   0.000551  -0.001862  -0.000226   0.000219
  182  H 35  S    0.000642   0.000224  -0.000318  -0.000660  -0.000991
  183  H 36  S   -0.000753  -0.000437  -0.001934   0.000201   0.000183
  184  H 36  S    0.000197   0.001163  -0.000739  -0.001529  -0.000155
  185  H 37  S   -0.000322  -0.000289  -0.001459  -0.000154   0.000024
  186  H 37  S    0.000490   0.001409  -0.000230  -0.000548  -0.000190
  187  H 38  S   -0.000398  -0.000039  -0.001598   0.000124   0.000038
  188  H 38  S   -0.001918  -0.000818  -0.000233   0.000613   0.000226
  189  H 39  S    0.003258  -0.000257   0.000214   0.000342   0.000123
  190  H 39  S    0.005406   0.002519  -0.000559   0.001175  -0.000498
  191  H 40  S   -0.000023   0.000076   0.000044  -0.000540  -0.001276
  192  H 40  S   -0.000077  -0.000217  -0.000017  -0.000048  -0.000455
  193  H 41  S    0.000004   0.000215   0.000057   0.000063  -0.001187
  194  H 41  S    0.000052   0.000099   0.000081   0.000971  -0.000535
  195  H 42  S   -0.000194  -0.000070  -0.000035  -0.000219  -0.001604
  196  H 42  S   -0.000392  -0.000116   0.000504  -0.000743  -0.000866

                      6          7          8          9         10
                  -10.1080   -10.1076   -10.1060   -10.1050   -10.0999
                     A          A          A          A          A   
    1  O  1  S   -0.000078  -0.000053  -0.000044  -0.000025   0.000004
    2  O  1  S   -0.000772  -0.000486  -0.000269  -0.000522   0.000006
    3  O  1  X    0.000222   0.000078   0.000119   0.000336   0.000030
    4  O  1  Y    0.000176   0.000203   0.000009  -0.000177   0.000008
    5  O  1  Z    0.000222   0.000269  -0.000005   0.000194   0.000029
    6  O  1  S    0.003170   0.001620   0.001407   0.000525  -0.000148
    7  O  1  X   -0.001254  -0.000532  -0.001325  -0.000155  -0.000045
[...]
    934    7.34372   -6.06999    0.58104       -12.950353      12.945677      -0.004676
    935    7.34372   -6.06999    2.09282       -12.622767      12.616671      -0.006096
    936    7.34372   -6.06999    3.60461       -12.070623      12.062965      -0.007658
    937    7.34372   -4.55821   -6.97786       -11.284996      11.283307      -0.001689
    938    7.34372   -4.55821   -5.46608       -12.317639      12.316190      -0.001449
    939    7.34372   -4.55821   -3.95430       -13.279213      13.278931      -0.000283
    940    7.34372   -4.55821   -2.44252       -13.990168      13.989241      -0.000928
    941    7.34372   -4.55821   -0.93074       -14.327919      14.325312      -0.002607
    942    7.34372   -4.55821    0.58104       -14.264346      14.260372      -0.003974
    943    7.34372   -4.55821    2.09282       -13.831024      13.823793      -0.007231
    944    7.34372   -4.55821    3.60461       -13.124603      13.114148      -0.010455
    945    7.34372   -3.04643   -6.97786       -11.872389      11.871073      -0.001316
    946    7.34372   -3.04643   -5.46608       -13.102868      13.102753      -0.000115
    947    7.34372   -3.04643   -3.95430       -14.294573      14.298727       0.004154
    948    7.34372   -3.04643   -2.44252       -15.198531      15.201465       0.002933
    949    7.34372   -3.04643   -0.93074       -15.642393      15.643114       0.000721
    950    7.34372   -3.04643    0.58104       -15.566252      15.566297       0.000045
    951    7.34372   -3.04643    2.09282       -15.005297      14.996848      -0.008449
    952    7.34372   -3.04643    3.60461       -14.125174      14.110941      -0.014233
    953    7.34372   -3.04643    5.11639       -13.064377      13.050472      -0.013905
    954    7.34372   -1.53465   -6.97786       -12.258121      12.257248      -0.000873
    955    7.34372   -1.53465   -5.46608       -13.629382      13.629054      -0.000328
    956    7.34372   -1.53465   -3.95430       -15.016535      15.017593       0.001058
    957    7.34372   -1.53465   -2.44252       -16.189265      16.187675      -0.001590
    958    7.34372   -1.53465    3.60461       -14.951423      14.935397      -0.016026
    959    7.34372   -1.53465    5.11639       -13.696608      13.683267      -0.013341
    960    7.34372   -1.53465    6.62817       -12.402191      12.393488      -0.008703
    961    7.34372   -0.02287   -6.97786       -12.390563      12.390509      -0.000055
    962    7.34372   -0.02287   -5.46608       -13.830259      13.830356       0.000097
    963    7.34372   -0.02287   -3.95430       -15.382404      15.383293       0.000890
    964    7.34372   -0.02287    3.60461       -15.395875      15.385149      -0.010726
    965    7.34372   -0.02287    5.11639       -13.992489      13.987353      -0.005136
    966    7.34372   -0.02287    6.62817       -12.598076      12.596061      -0.002015
    967    7.34372   -0.02287    8.13995       -11.317624      11.316477      -0.001147
    968    7.34372    1.48892   -6.97786       -12.254871      12.255980       0.001109
    969    7.34372    1.48892   -5.46608       -13.675624      13.678305       0.002681
    970    7.34372    1.48892    3.60461       -15.265375      15.268130       0.002755
    971    7.34372    1.48892    5.11639       -13.836843      13.843754       0.006911
    972    7.34372    1.48892    6.62817       -12.467152      12.473364       0.006212
    973    7.34372    1.48892    8.13995       -11.217616      11.221359       0.003743
    974    7.34372    3.00070   -6.97786       -11.871478      11.873346       0.001867
    975    7.34372    3.00070   -5.46608       -13.164619      13.168167       0.003548
    976    7.34372    3.00070    3.60461       -14.562548      14.576601       0.014053
    977    7.34372    3.00070    5.11639       -13.272898      13.286072       0.013173
    978    7.34372    3.00070    6.62817       -12.042170      12.052637       0.010466
    979    7.34372    3.00070    8.13995       -10.906763      10.913483       0.006720
    980    7.34372    4.51248   -6.97786       -11.300483      11.302522       0.002039
    981    7.34372    4.51248   -5.46608       -12.397497      12.400350       0.002853
    982    7.34372    4.51248   -3.95430       -13.531926      13.535126       0.003200
    983    7.34372    4.51248   -2.44252       -14.548945      14.549190       0.000245
    984    7.34372    4.51248   -0.93074       -15.162357      15.158642      -0.003715
    985    7.34372    4.51248    3.60461       -13.500326      13.513558       0.013232
    986    7.34372    4.51248    5.11639       -12.456101      12.468655       0.012554
    987    7.34372    4.51248    6.62817       -11.421093      11.431396       0.010303
    988    7.34372    6.02426   -5.46608       -11.508956      11.511368       0.002412
    989    7.34372    6.02426   -3.95430       -12.376974      12.379109       0.002135
    990    7.34372    6.02426   -2.44252       -13.094427      13.094759       0.000332
    991    7.34372    6.02426   -0.93074       -13.493223      13.492643      -0.000580
    992    7.34372    6.02426    0.58104       -13.463650      13.466449       0.002798
    993    7.34372    6.02426    2.09282       -13.032577      13.039939       0.007362
    994    7.34372    6.02426    3.60461       -12.343949      12.353482       0.009534
    995    7.34372    6.02426    5.11639       -11.539128      11.548839       0.009712
    996    7.34372    7.53604   -5.46608       -10.597248      10.599251       0.002004
    997    7.34372    7.53604   -3.95430       -11.250132      11.252034       0.001902
    998    7.34372    7.53604   -2.44252       -11.764054      11.765337       0.001282
    999    7.34372    7.53604   -0.93074       -12.039882      12.041183       0.001300
   1000    7.34372    7.53604    0.58104       -12.021136      12.024164       0.003028
   1001    7.34372    7.53604    2.09282       -11.726294      11.731682       0.005388
   1002    7.34372    7.53604    3.60461       -11.231111      11.237988       0.006877
   1003    7.34372    9.04782   -2.44252       -10.585661      10.587264       0.001603
   1004    8.85550   -6.06999   -3.95430       -10.946310      10.944346      -0.001965
   1005    8.85550   -6.06999   -2.44252       -11.355553      11.353129      -0.002423
   1006    8.85550   -4.55821   -5.46608       -11.061599      11.060383      -0.001216
   1007    8.85550   -4.55821   -3.95430       -11.741707      11.740481      -0.001226
   1008    8.85550   -4.55821   -2.44252       -12.249466      12.247779      -0.001687
   1009    8.85550   -4.55821   -0.93074       -12.507995      12.505496      -0.002499
   1010    8.85550   -4.55821    0.58104       -12.483589      12.479941      -0.003648
   1011    8.85550   -4.55821    2.09282       -12.191967      12.186606      -0.005361
   1012    8.85550   -3.04643   -6.97786       -10.752501      10.751628      -0.000872
   1013    8.85550   -3.04643   -5.46608       -11.630843      11.630119      -0.000723
   1014    8.85550   -3.04643   -3.95430       -12.441936      12.441326      -0.000610
   1015    8.85550   -3.04643   -2.44252       -13.066883      13.065646      -0.001237
   1016    8.85550   -3.04643   -0.93074       -13.396567      13.394703      -0.001864
   1017    8.85550   -3.04643    0.58104       -13.368992      13.366099      -0.002893
   1018    8.85550   -3.04643    2.09282       -13.003631      12.998039      -0.005592
   1019    8.85550   -3.04643    3.60461       -12.392136      12.384482      -0.007654
   1020    8.85550   -1.53465   -5.46608       -12.026395      12.025892      -0.000503
   1021    8.85550   -1.53465   -3.95430       -12.959832      12.958831      -0.001000
   1022    8.85550   -1.53465   -2.44252       -13.723586      13.720991      -0.002595
   1023    8.85550   -1.53465   -0.93074       -14.160181      14.157430      -0.002751
   1024    8.85550   -1.53465    0.58104       -14.134754      14.132376      -0.002378
   1025    8.85550   -1.53465    2.09282       -13.670626      13.664983      -0.005643
   1026    8.85550   -1.53465    3.60461       -12.936180      12.928793      -0.007387
   1027    8.85550   -0.02287   -5.46608       -12.193267      12.193372       0.000105
   1028    8.85550   -0.02287   -3.95430       -13.221473      13.220956      -0.000517
   1029    8.85550   -0.02287   -2.44252       -14.123809      14.120379      -0.003430
   1030    8.85550   -0.02287   -0.93074       -14.671257      14.665502      -0.005754
   1031    8.85550   -0.02287    0.58104       -14.634166      14.628844      -0.005322
   1032    8.85550   -0.02287    2.09282       -14.059508      14.053416      -0.006091
   1033    8.85550   -0.02287    3.60461       -13.213396      13.208423      -0.004974
   1034    8.85550   -0.02287    5.11639       -12.259018      12.255929      -0.003089
   1035    8.85550    1.48892   -6.97786       -11.076349      11.077108       0.000759
   1036    8.85550    1.48892   -5.46608       -12.097005      12.098381       0.001376
   1037    8.85550    1.48892   -3.95430       -13.147912      13.150602       0.002690
   1038    8.85550    1.48892   -0.93074       -14.686495      14.682068      -0.004427
   1039    8.85550    1.48892    0.58104       -14.635586      14.630503      -0.005083
   1040    8.85550    1.48892    2.09282       -14.018294      14.015439      -0.002855
   1041    8.85550    1.48892    3.60461       -13.132657      13.132612      -0.000045
   1042    8.85550    1.48892    5.11639       -12.166612      12.168461       0.001849
   1043    8.85550    3.00070   -6.97786       -10.793268      10.794516       0.001248
   1044    8.85550    3.00070   -5.46608       -11.738461      11.740421       0.001960
   1045    8.85550    3.00070   -3.95430       -12.696933      12.699973       0.003040
   1046    8.85550    3.00070   -2.44252       -13.547953      13.549716       0.001763
   1047    8.85550    3.00070   -0.93074       -14.053251      14.049518      -0.003732
   1048    8.85550    3.00070    0.58104       -14.025726      14.024849      -0.000877
   1049    8.85550    3.00070    2.09282       -13.491613      13.495240       0.003627
   1050    8.85550    3.00070    3.60461       -12.686552      12.691441       0.004890
   1051    8.85550    3.00070    5.11639       -11.796700      11.802245       0.005545
   1052    8.85550    4.51248   -5.46608       -11.178589      11.180335       0.001745
   1053    8.85550    4.51248   -3.95430       -11.977329      11.978932       0.001603
   1054    8.85550    4.51248   -2.44252       -12.645373      12.645308      -0.000065
   1055    8.85550    4.51248   -0.93074       -13.029894      13.028202      -0.001692
   1056    8.85550    4.51248    0.58104       -13.017609      13.018756       0.001147
   1057    8.85550    4.51248    2.09282       -12.619925      12.624952       0.005027
   1058    8.85550    4.51248    3.60461       -11.975527      11.981986       0.006459
   1059    8.85550    4.51248    5.11639       -11.222891      11.229563       0.006672
   1060    8.85550    6.02426   -3.95430       -11.144796      11.146090       0.001294
   1061    8.85550    6.02426   -2.44252       -11.652775      11.653345       0.000570
   1062    8.85550    6.02426   -0.93074       -11.933850      11.934279       0.000429
   1063    8.85550    6.02426    0.58104       -11.925195      11.927279       0.002084
   1064    8.85550    6.02426    2.09282       -11.636945      11.641366       0.004420
   1065    8.85550    6.02426    3.60461       -11.145372      11.151183       0.005811
   1066    8.85550    7.53604    0.58104       -10.883450      10.885890       0.002440
   1067    8.85550    7.53604    2.09282       -10.672635      10.676436       0.003801
   1068   10.36728   -3.04643   -2.44252       -11.402806      11.401085      -0.001721
   1069   10.36728   -3.04643   -0.93074       -11.632999      11.630673      -0.002325
   1070   10.36728   -3.04643    0.58104       -11.623960      11.620907      -0.003053
   1071   10.36728   -3.04643    2.09282       -11.384179      11.380189      -0.003990
   1072   10.36728   -1.53465   -3.95430       -11.328103      11.326960      -0.001143
   1073   10.36728   -1.53465   -2.44252       -11.827696      11.825693      -0.002003
   1074   10.36728   -1.53465   -0.93074       -12.101634      12.098874      -0.002760
   1075   10.36728   -1.53465    0.58104       -12.092712      12.089434      -0.003279
   1076   10.36728   -1.53465    2.09282       -11.811624      11.807749      -0.003875
   1077   10.36728   -1.53465    3.60461       -11.327344      11.323204      -0.004139
   1078   10.36728   -0.02287   -5.46608       -10.811678      10.811443      -0.000235
   1079   10.36728   -0.02287   -3.95430       -11.496894      11.496057      -0.000837
   1080   10.36728   -0.02287   -2.44252       -12.048415      12.046245      -0.002170
   1081   10.36728   -0.02287   -0.93074       -12.358086      12.354660      -0.003426
   1082   10.36728   -0.02287    0.58104       -12.347622      12.343905      -0.003716
   1083   10.36728   -0.02287    2.09282       -12.031861      12.028460      -0.003402
   1084   10.36728   -0.02287    3.60461       -11.502062      11.499300      -0.002762
   1085   10.36728    1.48892   -5.46608       -10.744892      10.745264       0.000372
   1086   10.36728    1.48892   -3.95430       -11.434526      11.434484      -0.000042
   1087   10.36728    1.48892   -2.44252       -11.997573      11.996086      -0.001487
   1088   10.36728    1.48892   -0.93074       -12.315862      12.312752      -0.003110
   1089   10.36728    1.48892    0.58104       -12.304352      12.301237      -0.003115
   1090   10.36728    1.48892    2.09282       -11.979753      11.977882      -0.001871
   1091   10.36728    1.48892    3.60461       -11.441056      11.440526      -0.000530
   1092   10.36728    3.00070   -5.46608       -10.491161      10.491965       0.000804
   1093   10.36728    3.00070   -3.95430       -11.134346      11.134883       0.000538
   1094   10.36728    3.00070   -2.44252       -11.654727      11.654120      -0.000606
   1095   10.36728    3.00070   -0.93074       -11.947529      11.945713      -0.001816
   1096   10.36728    3.00070    0.58104       -11.939735      11.938449      -0.001285
   1097   10.36728    3.00070    2.09282       -11.643205      11.643610       0.000405
   1098   10.36728    3.00070    3.60461       -11.143200      11.144965       0.001765
   1099   10.36728    4.51248   -3.95430       -10.647514      10.648235       0.000720
   1100   10.36728    4.51248   -2.44252       -11.090797      11.090849       0.000052
   1101   10.36728    4.51248   -0.93074       -11.336909      11.336549      -0.000360
   1102   10.36728    4.51248    0.58104       -11.333389      11.333863       0.000474
   1103   10.36728    4.51248    2.09282       -11.087142      11.089139       0.001997
   1104   10.36728    4.51248    3.60461       -10.659075      10.662172       0.003097
   1105   10.36728    6.02426    0.58104       -10.610104      10.611558       0.001453
   1106   10.36728    6.02426    2.09282       -10.414930      10.417500       0.002570
   1107   11.87906    1.48892   -2.44252       -10.451225      10.450238      -0.000987
   1108   11.87906    1.48892   -0.93074       -10.649918      10.648414      -0.001504
   1109   11.87906    3.00070   -2.44252       -10.222088      10.221664      -0.000425

 NET CHARGES:
 -------------------------------------
 ATOM                CHARGE    E.S.D.
 -------------------------------------
 O                  -0.6737    0.0624
 C                   0.3444    1.3610
 C                   0.1629    1.7047
 C                   0.2393    1.3916
 C                   0.4312    1.3201
 C                   0.0285    1.2012
 C                  -0.2564    1.3425
 C                  -0.0205    0.7346
 C                  -0.1393    0.7961
 C                   0.0775    0.8827
 C                  -0.2161    1.4754
 C                  -0.1149    0.9006
 C                  -0.4223    0.5358
 C                  -0.3595    0.6619
 C                  -0.3856    0.6165
 C                  -0.4255    0.4976
 H                  -0.0728    0.0640
 H                  -0.0083    0.0775
 H                   0.0538    0.0652
 H                   0.0363    0.1116
 H                   0.0050    0.0438
 H                  -0.0144    0.0393
 H                   0.0322    0.0482
 H                   0.0217    0.0451
 H                   0.0025    0.0827
 H                   0.0658    0.1118
 H                   0.0459    0.1006
 H                   0.0344    0.0801
 H                   0.0560    0.0465
 H                   0.1016    0.0559
 H                   0.0640    0.0416
 H                   0.1088    0.0410
 H                   0.0701    0.0484
 H                   0.0657    0.0439
 H                   0.0850    0.0768
 H                   0.1104    0.0537
 H                   0.0743    0.0509
 H                   0.0608    0.0482
 H                   0.4163    0.0141
 H                   0.1001    0.0334
 H                   0.1105    0.0335
 H                   0.1041    0.0355
 -------------------------------------

 RMS DEVIATION IS            0.689 KCAL/MOLE
 RELATIVE RMS DEVIATION IS  15.000 %

 MULTIPOLE MOMENTS:
 ---------------------------------------------------------
 STATUS  ACTUAL VALUE       QUANTITY        FITTED VALUE 
 ---------------------------------------------------------
 FIXED       0.0000       TOTAL CHARGE        -0.0000
             1.2946 D    DIPOLE MOMENT         1.3339 D
 FREE       -0.2563 D          DX             -0.2509 D
 FREE        1.2610 D          DY              1.3031 D
 FREE       -0.1415 D          DZ             -0.1346 D
 FREE        0.0000 BU         QXX            -0.3236 BU
 FREE        0.0000 BU         QYY             0.8485 BU
 FREE        0.0000 BU         QZZ            -0.5249 BU
 FREE        0.0000 BU         QXY             3.5193 BU
 FREE        0.0000 BU         QXZ            -0.3187 BU
 FREE        0.0000 BU         QYZ             5.0660 BU
 ---------------------------------------------------------
 ...... END OF PROPERTY EVALUATION ......
 CPU     0: STEP CPU TIME=     1.65 TOTAL CPU TIME=        163.7 (      2.7 MIN)
 TOTAL WALL CLOCK TIME=        243.8 SECONDS, CPU UTILIZATION IS    67.13%
              1673097  WORDS OF DYNAMIC MEMORY USED
 EXECUTION OF GAMESS TERMINATED NORMALLY Mon May 25 19:28:12 2020
 DDI: 263640 bytes (0.3 MB / 0 MWords) used by master data server.
Note: The following floating-point exceptions are signalling: IEEE_UNDERFLOW_FLAGNote: The following floating-point exceptions are signalling:
 ----------------------------------------
 CPU timing information for all processes
 ========================================
 0: 163.102 + 0.615 = 163.717
 1: 159.560 + 0.333 = 159.893
 2: 159.883 + 0.254 = 160.138
 3: 161.362 + 0.301 = 161.664
 4: 158.818 + 0.305 = 159.124
 5: 157.741 + 0.240 = 157.982
 ----------------------------------------
Note: The following floating-point exceptions are signalling: IEEE_DENORMAL
Note: The following floating-point exceptions are signalling: IEEE_UNDERFLOW_FLAGNote: The following floating-point exceptions are signalling: IEEE_UNDERFLOW_FLAG IEEE_UNDERFLOW_FLAG IEEE_DENORMALNote: The following floating-point exceptions are signalling: IEEE_UNDERFLOW_FLAG IEEE_UNDERFLOW_FLAG IEEE_DENORMAL IEEE_DENORMAL
 IEEE_DENORMAL

 IEEE_DENORMAL

 ddikick.x: exited gracefully.
unset echo
----- accounting info -----
Files used on the master node pietdev were:
-rwxr-xr-x 1 piet piet     1818 mei 25 19:24 /home/piet/scr/patchoulol_charge_chelpg.F05*
-rw-r--r-- 1 piet piet 45875200 mei 25 19:28 /home/piet/scr/patchoulol_charge_chelpg.F10
ls: No match.
ls: No match.
ls: No match.
ma 25 mei 2020 19:28:15 CEST
0.113u 0.020s 4:07.12 0.0%	0+0k 0+8io 0pf+0w
