----- GAMESS execution script 'rungms' -----
This job is running on host pietdev
under operating system Linux at zo 17 mei 2020 14:19:04 CEST
Available scratch disk space (Kbyte units) at beginning of the job is
Filesystem     1K-blocks     Used Available Use% Mounted on
/dev/sda2      244568380 30379732 201695592  14% /
GAMESS temporary binary files will be written to /home/piet/scr
GAMESS supplementary output files will be written to /home/piet/gamess/scr
Copying input file histidine_fukui_acid.inp to your run's scratch directory...
cp histidine_fukui_acid.inp /home/piet/scr/histidine_fukui_acid.F05
unset echo
 
Assuming a single but multicore node.
 
/home/piet/gamess/ddikick.x /home/piet/gamess/gamess.03.x histidine_fukui_acid -ddi 1 6 pietdev:cpus=6 -scr /home/piet/scr

 Distributed Data Interface kickoff program.
 Initiating 6 compute processes on 1 nodes to run the following command:
 /home/piet/gamess/gamess.03.x histidine_fukui_acid 

          ******************************************************
          *         GAMESS VERSION = 30 SEP 2019 (R2)          *
          *             FROM IOWA STATE UNIVERSITY             *
          * M.W.SCHMIDT, K.K.BALDRIDGE, J.A.BOATZ, S.T.ELBERT, *
          *   M.S.GORDON, J.H.JENSEN, S.KOSEKI, N.MATSUNAGA,   *
          *          K.A.NGUYEN, S.J.SU, T.L.WINDUS,           *
          *       TOGETHER WITH M.DUPUIS, J.A.MONTGOMERY       *
          *         J.COMPUT.CHEM.  14, 1347-1363(1993)        *
          **************** 64 BIT LINUX VERSION ****************

  SINCE 1993, STUDENTS AND POSTDOCS WORKING AT IOWA STATE UNIVERSITY
  AND ALSO IN THEIR VARIOUS JOBS AFTER LEAVING ISU HAVE MADE IMPORTANT
  CONTRIBUTIONS TO THE CODE:
     IVANA ADAMOVIC, CHRISTINE AIKENS, YURI ALEXEEV, POOJA ARORA,
     ANDREY ASADCHEV, ROB BELL, PRADIPTA BANDYOPADHYAY, JONATHAN BENTZ,
     COLLEEN BERTONI, BRETT BODE, KURT BRORSEN, CALEB CARLIN, GALINA CHABAN,
     WEI CHEN, CHEOL HO CHOI, PAUL DAY, ALBERT DEFUSCO, NUWAN DESILVA,
     TIM DUDLEY, DMITRI FEDOROV, ALEX FINDLATER, GRAHAM FLETCHER, 
     MARK FREITAG, KURT GLAESEMANN, EMILIE B GUIDEZ, ANASTASIA GUNINA, 
     DAN KEMP, SAROM SOK LEANG, GRANT MERRILL,
     NORIYUKI MINEZAWA, JONATHAN MULLIN,
     TAKESHI NAGATA, SEAN NEDD, HEATHER NETZLOFF, BOSILJKA NJEGIC, RYAN OLSON,
     MIKE PAK, BUU PHAM, DAVID POOLE,
     SPENCER PRUITT, LUKE ROSKOP, TOSAPORN SATTASATHUCHANA,
     JIM SHOEMAKER, LYUDMILA SLIPCHENKO,
     TONY SMITH, JIE SONG, TETSUYA TAKETSUGU, SIMON WEBB,
     JORGE LUIS GALVEZ VALLEJO, PENG XU, SOOHAENG YOO,
     FEDERICO ZAHARIEV

  ADDITIONAL CODE HAS BEEN PROVIDED BY COLLABORATORS IN OTHER GROUPS:
     IOWA STATE UNIVERSITY:
          JOE IVANIC, AARON WEST, LAIMUTIS BYTAUTAS, KLAUS RUEDENBERG
     UNIVERSITY OF TOKYO: KIMIHIKO HIRAO, TAKAHITO NAKAJIMA,
          TAKAO TSUNEDA, MUNEAKI KAMIYA, SUSUMU YANAGISAWA,
          KIYOSHI YAGI, MAHITO CHIBA, SEIKEN TOKURA, NAOAKI KAWAKAMI
     UNIVERSITY OF AARHUS: FRANK JENSEN
     UNIVERSITY OF IOWA: VISVALDAS KAIRYS, HUI LI
     NATIONAL INST. OF STANDARDS AND TECHNOLOGY: WALT STEVENS, DAVID GARMER
     UNIVERSITY OF PISA: BENEDETTA MENNUCCI, JACOPO TOMASI
     UNIVERSITY OF MEMPHIS: HENRY KURTZ, PRAKASHAN KORAMBATH
     UNIVERSITY OF ALBERTA: TOBY ZENG, MARIUSZ KLOBUKOWSKI
     UNIVERSITY OF NEW ENGLAND: MARK SPACKMAN
     MIE UNIVERSITY: HIROAKI UMEDA
     NAT. INST. OF ADVANCED INDUSTRIAL SCIENCE AND TECHNOLOGY: KAZUO KITAURA
     MICHIGAN STATE UNIVERSITY:
          KAROL KOWALSKI, MARTA WLOCH, JEFFREY GOUR, JESSE LUTZ,
          WEI LI, JUN SHEN, J. EMILIANO DEUSTUA, PIOTR PIECUCH
     UNIVERSITY OF MINNESOTA:
          ANDREW SAND, PRACHI SHARMA, YINAN SHU
     UNIVERSITY OF SILESIA: MONIKA MUSIAL, STANISLAW KUCHARSKI
     FACULTES UNIVERSITAIRES NOTRE-DAME DE LA PAIX:
          OLIVIER QUINET, BENOIT CHAMPAGNE
     UNIVERSITY OF CALIFORNIA - SANTA BARBARA: BERNARD KIRTMAN
     INSTITUTE FOR MOLECULAR SCIENCE:
          KAZUYA ISHIMURA, MICHIO KATOUDA, AND SHIGERU NAGASE
     UNIVERSITY OF NOTRE DAME: ANNA POMOGAEVA, DAN CHIPMAN
     KYUSHU UNIVERSITY:
          HARUYUKI NAKANO,
          FENG LONG GU, JACEK KORCHOWIEC, MARCIN MAKOWSKI, AND YURIKO AOKI,
          HIROTOSHI MORI AND EISAKU MIYOSHI
     PENNSYLVANIA STATE UNIVERSITY:
          TZVETELIN IORDANOV, CHET SWALINA, JONATHAN SKONE,
          SHARON HAMMES-SCHIFFER
     WASEDA UNIVERSITY:
          MASATO KOBAYASHI, TOMOKO AKAMA, TSUGUKI TOUMA,
          TAKESHI YOSHIKAWA, YASUHIRO IKABATA, JUNJI SEINO,
          YUYA NAKAJIMA, HIROMI NAKAI
     NANJING UNIVERSITY: SHUHUA LI
     UNIVERSITY OF NEBRASKA:
          PEIFENG SU, DEJUN SI, NANDUN THELLAMUREGE, YALI WANG, HUI LI
     UNIVERSITY OF ZURICH: ROBERTO PEVERATI, KIM BALDRIDGE
     N. COPERNICUS UNIVERSITY AND JACKSON STATE UNIVERSITY:
          MARIA BARYSZ
     UNIVERSITY OF COPENHAGEN: Jimmy Kromann, CASPER STEINMANN
     TOKYO INSTITUTE OF TECHNOLOGY: HIROYA NAKATA
     NAGOYA UNIVERSITY: YOSHIO NISHIMOTO, STEPHAN IRLE
     MOSCOW STATE UNIVERSITY: VLADIMIR MIRONOV
     A.N.NESMEYANOV INSTITUTE OF ORGANOELEMENT COMPOUNDS OF RUSSIAN ACADEMY OF SCIENCES:
          IGOR S. GERASIMOV
     JOHANNES KEPLER UNIVERSITY LINZ:
          CHRISTIAN FRIEDL


 PARALLEL VERSION RUNNING ON        6 PROCESSORS IN        1 NODES.

 EXECUTION OF GAMESS BEGUN Sun May 17 14:19:04 2020

            ECHO OF THE FIRST FEW INPUT CARDS -
 INPUT CARD> $BASIS GBASIS=N21 NGAUSS=3 $END                                                
 INPUT CARD> $CONTRL SCFTYP=UHF MAXIT=60 MULT=2 ICHARG=-1 $END                              
 INPUT CARD> $SYSTEM MEMDDI=1000 MWORDS=30 $END                                             
 INPUT CARD> $SCF DIRSCF=.TRUE. $END                                                        
 INPUT CARD> $STATPT OPTTOL=0.0001 NSTEP=999 $END                                           
 INPUT CARD> $DATA                                                                          
 INPUT CARD>                                                                                
 INPUT CARD>C1                                                                              
 INPUT CARD>C 6.0000000 1.0883272071 0.0146701698 0.4314499533                              
 INPUT CARD>H 1.0000000 0.8059103419 -0.7156436338 1.1953689756                             
 INPUT CARD>C 6.0000000 0.1840415912 -0.1842002008 -0.8101238022                            
 INPUT CARD>C 6.0000000 -1.2685802949 -0.1237174832 -0.4375693807                           
 INPUT CARD>C 6.0000000 -2.2615765661 0.6951787470 -0.9236374150                            
 INPUT CARD>N 7.0000000 -3.4215719134 0.3525128992 -0.2247938092                            
 INPUT CARD>C 6.0000000 -3.0825149569 -0.6561251146 0.6575563469                            
 INPUT CARD>N 7.0000000 -1.7955122680 -0.9669974238 0.5572279049                            
 INPUT CARD>H 1.0000000 0.4008350391 0.5774109742 -1.5685104774                             
 INPUT CARD>H 1.0000000 0.4013933731 -1.1655879778 -1.2528055757                            
 INPUT CARD>H 1.0000000 -2.2437621536 1.4623123178 -1.6771520676                            
 INPUT CARD>H 1.0000000 -4.3344967221 0.7728978930 -0.3464847211                            
 INPUT CARD>H 1.0000000 -3.7945407124 -1.1093352745 1.3258018791                            
 INPUT CARD>H 1.0000000 2.1448931823 -0.1202639283 0.1740836384                             
 INPUT CARD>H 1.0000000 0.9513448526 1.0194380359 0.8457685506                              
 INPUT CARD> $END                                                                           
   30000000 WORDS OF MEMORY AVAILABLE

     BASIS OPTIONS
     -------------
     GBASIS=N21          IGAUSS=       3      POLAR=NONE    
     NDFUNC=       0     NFFUNC=       0     DIFFSP=       F
     NPFUNC=       0      DIFFS=       F     BASNAM=        


     RUN TITLE
     ---------
                                                                                 

 THE POINT GROUP OF THE MOLECULE IS C1      
 THE ORDER OF THE PRINCIPAL AXIS IS     0

 ATOM      ATOMIC                      COORDINATES (BOHR)
           CHARGE         X                   Y                   Z
 C           6.0     2.0566402064        0.0277226011        0.8153221892
 H           1.0     1.5229497169       -1.3523703727        2.2589198181
 C           6.0     0.3477881777       -0.3480879064       -1.5309120023
 C           6.0    -2.3972691508       -0.2337921431       -0.8268862301
 C           6.0    -4.2737600102        1.3136973443       -1.7454216264
 N           7.0    -6.4658333636        0.6661527866       -0.4247987031
 C           6.0    -5.8251086216       -1.2398966803        1.2426013171
 N           7.0    -3.3930261941       -1.8273601618        1.0530080530
 H           1.0     0.7574683902        1.0911485235       -2.9640550112
 H           1.0     0.7585234884       -2.2026418926       -2.3674592540
 H           1.0    -4.2400956519        2.7633695891       -3.1693578475
 H           1.0    -8.1910110994        1.4605652343       -0.6547611818
 H           1.0    -7.1706421957       -2.0963396973        2.5054022655
 H           1.0     4.0532603875       -0.2272658707        0.3289703755
 H           1.0     1.7977810912        1.9264585493        1.5982708097

          INTERNUCLEAR DISTANCES (ANGS.)
          ------------------------------

                1 C          2 H          3 C          4 C          5 C     

   1 C       0.0000000    1.0939332 *  1.5488019 *  2.5158217 *  3.6771197  
   2 H       1.0939332 *  0.0000000    2.1659072 *  2.7056193 *  3.9862368  
   3 C       1.5488019 *  2.1659072 *  0.0000000    1.5008549 *  2.6013921 *
   4 C       2.5158217 *  2.7056193 *  1.5008549 *  0.0000000    1.3758251 *
   5 C       3.6771197    3.9862368    2.6013921 *  1.3758251 *  0.0000000  
   6 N       4.5698997    4.5857853    3.6920348    2.2152746 *  1.3969221 *
   7 C       4.2304864    3.9258930    3.6120894    2.1847465 *  2.2360983 *
   8 N       3.0489378    2.6903164 *  2.5300308 *  1.4065561 *  2.2744247 *
   9 H       2.1884160 *  3.0781660    1.0964494 *  2.1348434 *  2.7419274 *
  10 H       2.1683183 *  2.5218332 *  1.0983310 *  2.1304732 *  3.2653045  
  11 H       4.2005583    4.7217975    3.0589169    2.2367466 *  1.0754513 *
  12 H       5.5305615    5.5692776    4.6420024    3.1956313    2.1531706 *
  13 H       5.0897596    4.6191077    4.6094653    3.2344082    3.2659190  
  14 H       1.0957994 *  1.7861623 *  2.1949239 *  3.4678426    4.6137744  
  15 H       1.0954371 *  1.7759167 *  2.1862019 *  2.8074594 *  3.6822283  

                6 N          7 C          8 N          9 H         10 H     

   1 C       4.5698997    4.2304864    3.0489378    2.1884160 *  2.1683183 *
   2 H       4.5857853    3.9258930    2.6903164 *  3.0781660    2.5218332 *
   3 C       3.6920348    3.6120894    2.5300308 *  1.0964494 *  1.0983310 *
   4 C       2.2152746 *  2.1847465 *  1.4065561 *  2.1348434 *  2.1304732 *
   5 C       1.3969221 *  2.2360983 *  2.2744247 *  2.7419274 *  3.2653045  
   6 N       0.0000000    1.3823357 *  2.2353379 *  4.0579488    4.2398705  
   7 C       1.3823357 *  0.0000000    1.3278115 *  4.3140134    4.0058273  
   8 N       2.2353379 *  1.3278115 *  0.0000000    3.4246025    2.8534284 *
   9 H       4.0579488    4.3140134    3.4246025    0.0000000    1.7713597 *
  10 H       4.2398705    4.0058273    2.8534284 *  1.7713597 *  0.0000000  
  11 H       2.1744505 *  3.2622303    3.3309049    2.7908328 *  3.7527027  
  12 H       1.0124050 *  2.1488750 *  3.2078613    4.8943773    5.1969029  
  13 H       2.1634354 *  1.0765371 *  2.1464111 *  5.3687368    4.9252658  
  14 H       5.6007281    5.2769962    4.0485247    2.5622497 *  2.4836479 *
  15 H       4.5511860    4.3720659    3.4021178    2.5153911 *  3.0790906  

               11 H         12 H         13 H         14 H         15 H     

   1 C       4.2005583    5.5305615    5.0897596    1.0957994 *  1.0954371 *
   2 H       4.7217975    5.5692776    4.6191077    1.7861623 *  1.7759167 *
   3 C       3.0589169    4.6420024    4.6094653    2.1949239 *  2.1862019 *
   4 C       2.2367466 *  3.1956313    3.2344082    3.4678426    2.8074594 *
   5 C       1.0754513 *  2.1531706 *  3.2659190    4.6137744    3.6822283  
   6 N       2.1744505 *  1.0124050 *  2.1634354 *  5.6007281    4.5511860  
   7 C       3.2622303    2.1488750 *  1.0765371 *  5.2769962    4.3720659  
   8 N       3.3309049    3.2078613    2.1464111 *  4.0485247    3.4021178  
   9 H       2.7908328 *  4.8943773    5.3687368    2.5622497 *  2.5153911 *
  10 H       3.7527027    5.1969029    4.9252658    2.4836479 *  3.0790906  
  11 H       0.0000000    2.5723800 *  4.2468833    5.0191550    4.0951160  
  12 H       2.5723800 *  0.0000000    2.5750527 *  6.5613431    5.4242392  
  13 H       4.2468833    2.5750527 *  0.0000000    6.1303827    5.2235560  
  14 H       5.0191550    6.5613431    6.1303827    0.0000000    1.7817516 *
  15 H       4.0951160    5.4242392    5.2235560    1.7817516 *  0.0000000  

  * ... LESS THAN  3.000


     ATOMIC BASIS SET
     ----------------
 THE CONTRACTED PRIMITIVE FUNCTIONS HAVE BEEN UNNORMALIZED
 THE CONTRACTED BASIS FUNCTIONS ARE NOW NORMALIZED TO UNITY

  SHELL TYPE  PRIMITIVE        EXPONENT          CONTRACTION COEFFICIENT(S)

 C         

      1   S       1           172.2560000    0.061766907377
      1   S       2            25.9109000    0.358794042852
      1   S       3             5.5333500    0.700713083689

      2   L       4             3.6649800   -0.395895162119    0.236459946619
      2   L       5             0.7705450    1.215834355681    0.860618805716

      3   L       6             0.1958570    1.000000000000    1.000000000000

 H         

      4   S       7             5.4471780    0.156284978695
      4   S       8             0.8245472    0.904690876670

      5   S       9             0.1831916    1.000000000000

 C         

      6   S      10           172.2560000    0.061766907377
      6   S      11            25.9109000    0.358794042852
      6   S      12             5.5333500    0.700713083689

      7   L      13             3.6649800   -0.395895162119    0.236459946619
      7   L      14             0.7705450    1.215834355681    0.860618805716

      8   L      15             0.1958570    1.000000000000    1.000000000000

 C         

      9   S      16           172.2560000    0.061766907377
      9   S      17            25.9109000    0.358794042852
      9   S      18             5.5333500    0.700713083689

     10   L      19             3.6649800   -0.395895162119    0.236459946619
     10   L      20             0.7705450    1.215834355681    0.860618805716

     11   L      21             0.1958570    1.000000000000    1.000000000000

 C         

     12   S      22           172.2560000    0.061766907377
     12   S      23            25.9109000    0.358794042852
     12   S      24             5.5333500    0.700713083689

     13   L      25             3.6649800   -0.395895162119    0.236459946619
     13   L      26             0.7705450    1.215834355681    0.860618805716

     14   L      27             0.1958570    1.000000000000    1.000000000000

 N         

     15   S      28           242.7660000    0.059865700508
     15   S      29            36.4851000    0.352955002994
     15   S      30             7.8144900    0.706513005993

     16   L      31             5.4252200   -0.413300077430    0.237972016222
     16   L      32             1.1491500    1.224417266851    0.858953058551

     17   L      33             0.2832050    1.000000000000    1.000000000000

 C         

     18   S      34           172.2560000    0.061766907377
     18   S      35            25.9109000    0.358794042852
     18   S      36             5.5333500    0.700713083689

     19   L      37             3.6649800   -0.395895162119    0.236459946619
     19   L      38             0.7705450    1.215834355681    0.860618805716

     20   L      39             0.1958570    1.000000000000    1.000000000000

 N         

     21   S      40           242.7660000    0.059865700508
     21   S      41            36.4851000    0.352955002994
     21   S      42             7.8144900    0.706513005993

     22   L      43             5.4252200   -0.413300077430    0.237972016222
     22   L      44             1.1491500    1.224417266851    0.858953058551

     23   L      45             0.2832050    1.000000000000    1.000000000000

 H         

     24   S      46             5.4471780    0.156284978695
     24   S      47             0.8245472    0.904690876670

     25   S      48             0.1831916    1.000000000000

 H         

     26   S      49             5.4471780    0.156284978695
     26   S      50             0.8245472    0.904690876670

     27   S      51             0.1831916    1.000000000000

 H         

     28   S      52             5.4471780    0.156284978695
     28   S      53             0.8245472    0.904690876670

     29   S      54             0.1831916    1.000000000000

 H         

     30   S      55             5.4471780    0.156284978695
     30   S      56             0.8245472    0.904690876670

     31   S      57             0.1831916    1.000000000000

 H         

     32   S      58             5.4471780    0.156284978695
     32   S      59             0.8245472    0.904690876670

     33   S      60             0.1831916    1.000000000000

 H         

     34   S      61             5.4471780    0.156284978695
     34   S      62             0.8245472    0.904690876670

     35   S      63             0.1831916    1.000000000000

 H         

     36   S      64             5.4471780    0.156284978695
     36   S      65             0.8245472    0.904690876670

     37   S      66             0.1831916    1.000000000000

 TOTAL NUMBER OF BASIS SET SHELLS             =   37
 NUMBER OF CARTESIAN GAUSSIAN BASIS FUNCTIONS =   79
 NUMBER OF ELECTRONS                          =   53
 CHARGE OF MOLECULE                           =   -1
 SPIN MULTIPLICITY                            =    2
 NUMBER OF OCCUPIED ORBITALS (ALPHA)          =   27
 NUMBER OF OCCUPIED ORBITALS (BETA )          =   26
 TOTAL NUMBER OF ATOMS                        =   15
 THE NUCLEAR REPULSION ENERGY IS      288.9612770366

     $CONTRL OPTIONS
     ---------------
 SCFTYP=UHF          RUNTYP=ENERGY       EXETYP=RUN     
 MPLEVL=       0     CITYP =NONE         CCTYP =NONE         VBTYP =NONE    
 DFTTYP=NONE         TDDFT =NONE    
 MULT  =       2     ICHARG=      -1     NZVAR =       0     COORD =UNIQUE  
 PP    =NONE         RELWFN=NONE         LOCAL =NONE         NUMGRD=       F
 ISPHER=      -1     NOSYM =       0     MAXIT =      60     UNITS =ANGS    
 PLTORB=       F     MOLPLT=       F     AIMPAC=       F     FRIEND=        
 NPRINT=       7     IREST =       0     GEOM  =INPUT   
 NORMF =       0     NORMP =       0     ITOL  =      20     ICUT  =       9
 INTTYP=BEST         GRDTYP=BEST         QMTTOL= 1.0E-06

     $SYSTEM OPTIONS
     ---------------
  REPLICATED MEMORY=    30000000 WORDS (ON EVERY NODE).
 DISTRIBUTED MEMDDI=        1000 MILLION WORDS IN AGGREGATE,
 MEMDDI DISTRIBUTED OVER   6 PROCESSORS IS   166666666 WORDS/PROCESSOR.
 TOTAL MEMORY REQUESTED ON EACH PROCESSOR=   196666666 WORDS.
 TIMLIM=      525600.00 MINUTES, OR     365.0 DAYS.
 PARALL= T  BALTYP=  DLB     KDIAG=    0  COREFL= F
 MXSEQ2=     300 MXSEQ3=     150  mem10=         0

          ----------------
          PROPERTIES INPUT
          ----------------

     MOMENTS            FIELD           POTENTIAL          DENSITY
 IEMOM =       1   IEFLD =       0   IEPOT =       0   IEDEN =       0
 WHERE =COMASS     WHERE =NUCLEI     WHERE =NUCLEI     WHERE =NUCLEI  
 OUTPUT=BOTH       OUTPUT=BOTH       OUTPUT=BOTH       OUTPUT=BOTH    
 IEMINT=       0   IEFINT=       0                     IEDINT=       0
                                                       MORB  =       0
          EXTRAPOLATION IN EFFECT
          SOSCF IN EFFECT
          DIIS or SOSCF will be reset if energy rises
 ORBITAL PRINTING OPTION: NPREO=     1    79     2     1

     -------------------------------
     INTEGRAL TRANSFORMATION OPTIONS
     -------------------------------
     NWORD  =            0
     CUTOFF = 1.0E-09     MPTRAN =       0
     DIRTRF =       T     AOINTS =DUP     

          ----------------------
          INTEGRAL INPUT OPTIONS
          ----------------------
 NOPK  =       1 NORDER=       0 SCHWRZ=       T

     ------------------------------------------
     THE POINT GROUP IS C1 , NAXIS= 0, ORDER= 1
     ------------------------------------------

     DIMENSIONS OF THE SYMMETRY SUBSPACES ARE
 A   =   79

 ..... DONE SETTING UP THE RUN .....
 CPU     0: STEP CPU TIME=     0.01 TOTAL CPU TIME=          0.0 (      0.0 MIN)
 TOTAL WALL CLOCK TIME=          0.0 SECONDS, CPU UTILIZATION IS    33.33%

          ********************
          1 ELECTRON INTEGRALS
          ********************
 ...... END OF ONE-ELECTRON INTEGRALS ......
 CPU     0: STEP CPU TIME=     0.01 TOTAL CPU TIME=          0.0 (      0.0 MIN)
 TOTAL WALL CLOCK TIME=          0.0 SECONDS, CPU UTILIZATION IS    50.00%

          -------------
          GUESS OPTIONS
          -------------
          GUESS =HUCKEL            NORB  =       0          NORDER=       0
          MIX   =       F          PRTMO =       F          PUNMO =       F
          TOLZ  = 1.0E-08          TOLE  = 1.0E-05
          SYMDEN=       F          PURIFY=       F

 INITIAL GUESS ORBITALS GENERATED BY HUCKEL   ROUTINE.
 HUCKEL GUESS REQUIRES     63748 WORDS.

 SYMMETRIES FOR INITIAL GUESS ORBITALS FOLLOW.  ALPHA SET(S).
    27 ORBITALS ARE OCCUPIED (    7 CORE ORBITALS).
     8=A        9=A       10=A       11=A       12=A       13=A       14=A   
    15=A       16=A       17=A       18=A       19=A       20=A       21=A   
    22=A       23=A       24=A       25=A       26=A       27=A       28=A   
    29=A       30=A       31=A       32=A       33=A       34=A       35=A   
    36=A       37=A   

 SYMMETRIES FOR INITIAL GUESS ORBITALS FOLLOW.   BETA SET(S).
    26 ORBITALS ARE OCCUPIED (    7 CORE ORBITALS).
     8=A        9=A       10=A       11=A       12=A       13=A       14=A   
    15=A       16=A       17=A       18=A       19=A       20=A       21=A   
    22=A       23=A       24=A       25=A       26=A       27=A       28=A   
    29=A       30=A       31=A       32=A       33=A       34=A       35=A   
    36=A   
 ...... END OF INITIAL ORBITAL SELECTION ......
 CPU     0: STEP CPU TIME=     0.03 TOTAL CPU TIME=          0.0 (      0.0 MIN)
 TOTAL WALL CLOCK TIME=          0.1 SECONDS, CPU UTILIZATION IS    71.43%

                    ----------------------
                    AO INTEGRAL TECHNOLOGY
                    ----------------------
     S,P,L SHELL ROTATED AXIS INTEGRALS, REPROGRAMMED BY
        KAZUYA ISHIMURA (IMS) AND JOSE SIERRA (SYNSTAR).
     S,P,D,L SHELL ROTATED AXIS INTEGRALS PROGRAMMED BY
        KAZUYA ISHIMURA (INSTITUTE FOR MOLECULAR SCIENCE).
     S,P,D,F,G SHELL TO TOTAL QUARTET ANGULAR MOMENTUM SUM 5,
        ERIC PROGRAM BY GRAHAM FLETCHER (ELORET AND NASA ADVANCED
        SUPERCOMPUTING DIVISION, AMES RESEARCH CENTER).
     S,P,D,F,G,L SHELL GENERAL RYS QUADRATURE PROGRAMMED BY
        MICHEL DUPUIS (PACIFIC NORTHWEST NATIONAL LABORATORY).

          --------------------
          2 ELECTRON INTEGRALS
          --------------------

 DIRECT SCF METHOD SKIPS INTEGRAL STORAGE ON DISK.
 DIRECT TRANSFORMATION SKIPS AO INTEGRAL STORAGE ON DISK.
  ...... END OF TWO-ELECTRON INTEGRALS .....
 CPU     0: STEP CPU TIME=     0.02 TOTAL CPU TIME=          0.1 (      0.0 MIN)
 TOTAL WALL CLOCK TIME=          0.1 SECONDS, CPU UTILIZATION IS    87.50%

          ---------------------------
                  UHF SCF CALCULATION
          ---------------------------

     NUCLEAR ENERGY =       288.9612770366
     MAXIT = 60     NPUNCH=  2     MULT=  2
     EXTRAP=T  DAMP=F  SHIFT=F  RSTRCT=F  DIIS=F  SOSCF=T
     DENSITY MATRIX CONV=  2.00E-05
     SOSCF WILL OPTIMIZE    1404 ALPHA AND    1378 BETA ROTATION ANGLES.
     SOGTOL= 2.500E-01
     MEMORY REQUIRED FOR UHF/ROHF ITERS=    128910 WORDS.

 DIRECT SCF CALCULATION, SCHWRZ=T   FDIFF=T
 SCHWARZ INEQUALITY OVERHEAD:      3089 INTEGRALS, T=        0.00

                                                                                NONZERO     BLOCKS
 ITER EX      TOTAL ENERGY        E CHANGE  DENSITY CHANGE    ORB. GRAD       INTEGRALS    SKIPPED
   1  0     -300.2731159230  -300.2731159230   0.764882704   0.000000000        3975618      86665
          ---------------START SECOND ORDER SCF---------------
   2  1     -300.9485861766    -0.6754702536   0.366476141   0.059069228        3964934      89597
   3  2     -300.9936831734    -0.0450969968   0.090031192   0.050071756        3944950      93425
   4  3     -301.0379952683    -0.0443120948   0.027834186   0.006361152        3912358      97622
   5  4     -301.0395140886    -0.0015188204   0.019364914   0.004977361        3853801     103239
   6  5     -301.0403259837    -0.0008118951   0.039172236   0.004360325        3827668     105858
   7  6     -301.0415185343    -0.0011925506   0.028955134   0.004686926        3867967     102900
   8  7     -301.0422161116    -0.0006975773   0.017263657   0.003005106        3847342     105145
   9  8     -301.0426704349    -0.0004543233   0.010433730   0.002338011        3818252     106405
  10  9     -301.0428205794    -0.0001501445   0.005994332   0.001434692        3753634     111115
  11 10     -301.0428989108    -0.0000783314   0.009981381   0.000788185        3736531     113362
  12 11     -301.0429856691    -0.0000867583   0.007928756   0.000725454        3775490     110170
  13 12     -301.0430330941    -0.0000474250   0.006007921   0.000597919        3764740     111339
  14 13     -301.0430577797    -0.0000246856   0.002221459   0.000448980        3740604     113105
  15 14     -301.0430648192    -0.0000070395   0.001130437   0.000165632        3652708     118704
  16 15     -301.0430663711    -0.0000015519   0.000357715   0.000068602        3501085     125988
  17 16     -301.0430666116    -0.0000002406   0.000129718   0.000031516        3410538     132279
  18 17     -301.0430666510    -0.0000000394   0.000064046   0.000013242        3250536     141188
  19 18     -301.0430666592    -0.0000000082   0.000034534   0.000006637        3157412     145611
  20 19     -301.0430666610    -0.0000000018   0.000013308   0.000003494        3118674     148727
  21 20     -301.0430666619    -0.0000000009   0.000008790   0.000001945        2967660     156049

          -----------------
          DENSITY CONVERGED
          -----------------
     TIME TO FORM FOCK OPERATORS=       1.1 SECONDS (       0.1 SEC/ITER)
     FOCK TIME ON FIRST ITERATION=       0.0, LAST ITERATION=       0.0
     TIME TO SOLVE SCF EQUATIONS=       0.1 SECONDS (       0.0 SEC/ITER)

 FINAL UHF ENERGY IS     -301.0430666619 AFTER  21 ITERATIONS

          --------------------
          SPIN SZ   =    0.500
          S-SQUARED =    0.870
          --------------------

  ----- ALPHA SET ----- 

          ------------
          EIGENVECTORS
          ------------

                      1          2          3          4          5
                  -15.2556   -15.1916   -10.9986   -10.9964   -10.9520
                     A          A          A          A          A   
    1  C  1  S   -0.000014   0.000047   0.987049   0.029899   0.004044
    2  C  1  S   -0.000046   0.000324   0.101515   0.000874  -0.001409
    3  C  1  X   -0.000120  -0.000272  -0.000054  -0.000712   0.001215
    4  C  1  Y    0.000073   0.000253   0.000108  -0.000035  -0.000041
    5  C  1  Z   -0.000113   0.000066  -0.000010  -0.000509   0.000083
    6  C  1  S    0.001071   0.000124  -0.079872   0.019596   0.004622
    7  C  1  X    0.000116   0.001454   0.003499  -0.007408  -0.004927
    8  C  1  Y   -0.000774  -0.002298   0.000186  -0.001983  -0.001271
    9  C  1  Z   -0.000192  -0.000995   0.003323  -0.009639  -0.001446
   10  H  2  S   -0.000025  -0.000166   0.000214  -0.001421  -0.000709
   11  H  2  S   -0.000481  -0.000006   0.014407   0.000903  -0.001057
   12  C  3  S    0.000065  -0.000149  -0.030590   0.987690   0.002146
   13  C  3  S    0.000242  -0.000893  -0.004613   0.105529  -0.000734
   14  C  3  X    0.000593   0.000003   0.000413   0.000536   0.000621
   15  C  3  Y   -0.000212  -0.000237  -0.000054  -0.000051  -0.000424
   16  C  3  Z    0.000015   0.000133   0.000165   0.000193   0.000008
   17  C  3  S   -0.006811   0.010247   0.016159  -0.102485   0.009218
   18  C  3  X    0.001750  -0.005911   0.008707   0.008073  -0.010562
   19  C  3  Y    0.000976   0.005144   0.002391  -0.000302   0.004308
   20  C  3  Z   -0.001275  -0.002432   0.007829  -0.007857  -0.002576
   21  C  4  S    0.000217  -0.000305  -0.004346  -0.002588   0.986989
   22  C  4  S    0.000947  -0.000691  -0.001943  -0.001890   0.097954
   23  C  4  X   -0.000128  -0.000394  -0.001329  -0.001252  -0.000260
   24  C  4  Y   -0.000826  -0.000682   0.000067   0.000027   0.000476
   25  C  4  Z    0.000833   0.000660  -0.000376   0.000463  -0.000034
   26  C  4  S   -0.014159   0.024352   0.002578   0.020124  -0.072636
   27  C  4  X    0.015416  -0.021496   0.005759   0.028423   0.004623
   28  C  4  Y   -0.001688  -0.011346  -0.002460  -0.001853  -0.009538
   29  C  4  Z   -0.003158   0.018147   0.001622  -0.005792   0.006794
   30  C  5  S   -0.000423   0.000199  -0.000035  -0.001583  -0.019410
   31  C  5  S   -0.001659   0.000885  -0.000099  -0.000651  -0.005292
   32  C  5  X   -0.001434  -0.001218   0.000175  -0.000370  -0.001562
   33  C  5  Y   -0.000099   0.000112   0.000116  -0.000021   0.000795
   34  C  5  Z    0.000553   0.000307   0.000165   0.000040  -0.000361
   35  C  5  S    0.029098  -0.009318   0.003283   0.007792   0.029298
   36  C  5  X   -0.007598   0.005046   0.000664  -0.000414   0.012975
   37  C  5  Y   -0.014432   0.009828  -0.001972  -0.005182  -0.008015
   38  C  5  Z    0.016436  -0.011362   0.000411   0.005116   0.004245
   39  N  6  S    0.986091   0.000890   0.000008   0.000036   0.000101
   40  N  6  S    0.104195   0.000061   0.000035   0.000104   0.000523
   41  N  6  X    0.001902   0.000189  -0.000074  -0.000256   0.000036
   42  N  6  Y   -0.000797   0.000279  -0.000054   0.000140  -0.000157
   43  N  6  Z    0.000199  -0.000348  -0.000025  -0.000020   0.000165
   44  N  6  S   -0.075026  -0.000519  -0.000631  -0.003316  -0.005991
   45  N  6  X   -0.016140  -0.001734   0.000127  -0.000091  -0.002960
   46  N  6  Y    0.006650   0.003490   0.000310  -0.000435   0.002879
   47  N  6  Z   -0.001465  -0.002800   0.000150   0.000331  -0.002035
   48  C  7  S   -0.000281  -0.000038  -0.000309  -0.001146  -0.004195
   49  C  7  S   -0.001080  -0.000200  -0.000206  -0.001006  -0.001794
   50  C  7  X   -0.000930   0.001912  -0.000217  -0.000277  -0.000406
   51  C  7  Y    0.001318  -0.000596   0.000067  -0.000078  -0.000161
   52  C  7  Z   -0.000995  -0.000016   0.000048   0.000190   0.000259
   53  C  7  S    0.020903   0.024519  -0.000807   0.002472   0.008350
   54  C  7  X    0.004969   0.018036  -0.000297   0.003066   0.007532
   55  C  7  Y    0.011280   0.002970   0.000520   0.001549   0.004766
   56  C  7  Z   -0.012640  -0.008616  -0.000648  -0.002392  -0.006938
   57  N  8  S   -0.000808   0.986554   0.000037   0.000001   0.000164
   58  N  8  S   -0.000047   0.104649   0.000313  -0.000384   0.001379
   59  N  8  X    0.000593  -0.002717   0.000331  -0.000300  -0.000207
   60  N  8  Y    0.000001   0.003811  -0.000116  -0.000001   0.000286
   61  N  8  Z   -0.000191  -0.002891  -0.000102   0.000261  -0.000183
   62  N  8  S   -0.001778  -0.082734  -0.001134   0.001290  -0.001141
   63  N  8  X    0.002173   0.010763  -0.002505  -0.000429   0.003686
   64  N  8  Y   -0.000839  -0.017423   0.000093   0.000926  -0.001279
   65  N  8  Z    0.000135   0.013732   0.000719  -0.001389   0.000161
   66  H  9  S   -0.000228  -0.001214  -0.001159   0.001133  -0.001143
   67  H  9  S    0.000448  -0.001591   0.000092   0.014335  -0.001252
   68  H 10  S    0.000347   0.000307  -0.000882   0.001492  -0.000750
   69  H 10  S    0.000369   0.000535   0.000617   0.014706   0.003276
   70  H 11  S    0.000622  -0.001429   0.000007   0.000696  -0.001173
   71  H 11  S    0.005968  -0.005256   0.000465   0.001834   0.000058
   72  H 12  S   -0.000676  -0.001016   0.000059   0.000282  -0.000565
   73  H 12  S    0.004639   0.000299   0.000048   0.000395   0.000119
   74  H 13  S    0.000284   0.000403   0.000108   0.000310   0.000838
   75  H 13  S    0.004320   0.004982   0.000363   0.001759   0.004369
   76  H 14  S   -0.000091  -0.000270   0.000093  -0.001077  -0.000124
   77  H 14  S   -0.000349  -0.000629   0.013538  -0.000064   0.002553
   78  H 15  S    0.000049   0.000488   0.000310  -0.001342  -0.000858
   79  H 15  S    0.000242   0.001029   0.014426   0.001311   0.000848

                      6          7          8          9         10
                  -10.9441   -10.9371    -1.0685    -0.9068    -0.8580
                     A          A          A          A          A   
    1  C  1  S    0.000117   0.000329  -0.004859   0.056432  -0.129206
    2  C  1  S   -0.000121  -0.000107   0.006483  -0.057313   0.127163
    3  C  1  X    0.000060   0.000017  -0.002931   0.017582  -0.021741
    4  C  1  Y    0.000048   0.000114  -0.001194   0.004323  -0.003951
    5  C  1  Z    0.000022   0.000079  -0.001866   0.017775  -0.032625
    6  C  1  S    0.000046   0.000379  -0.002542  -0.126767   0.332521
    7  C  1  X   -0.000449   0.000403   0.001097  -0.001930   0.012512
    8  C  1  Y    0.000288  -0.001033   0.008367  -0.005656  -0.003420
    9  C  1  Z   -0.000002  -0.000138   0.003311  -0.002769  -0.001272
   10  H  2  S   -0.000069   0.000105   0.002757  -0.028708   0.065137
   11  H  2  S    0.000243  -0.000704   0.006719  -0.006297  -0.004305
   12  C  3  S    0.001614   0.000810  -0.015250   0.081594  -0.133859
   13  C  3  S   -0.000083  -0.001061   0.012509  -0.077267   0.123716
   14  C  3  X    0.000558  -0.000308  -0.013286   0.016303   0.018180
   15  C  3  Y   -0.000140  -0.000250   0.001688  -0.000028   0.009638
   16  C  3  Z   -0.000024   0.000257   0.003592  -0.021197   0.028649
   17  C  3  S    0.000515   0.009956   0.048054  -0.198767   0.404042
   18  C  3  X   -0.000867  -0.005266  -0.000503  -0.002971  -0.018641
   19  C  3  Y   -0.001904   0.002151  -0.014765   0.013885   0.010413
   20  C  3  Z    0.001799  -0.000204   0.014634  -0.017360   0.009064
   21  C  4  S    0.018965   0.003947  -0.070216   0.089337  -0.021390
   22  C  4  S   -0.001396  -0.000717   0.074957  -0.097185   0.028201
   23  C  4  X    0.001217   0.001453  -0.050796  -0.009592   0.067762
   24  C  4  Y   -0.001544  -0.000455  -0.003951   0.042511   0.036205
   25  C  4  Z    0.001160  -0.000053   0.020369  -0.042232  -0.049448
   26  C  4  S    0.026482  -0.001522   0.105550  -0.118243   0.031544
   27  C  4  X   -0.012972  -0.012485  -0.030073  -0.029094  -0.062225
   28  C  4  Y    0.010876  -0.002330   0.022577  -0.020646   0.004565
   29  C  4  Z   -0.006601   0.006199  -0.012492   0.030373   0.012460
   30  C  5  S    0.986426   0.011359  -0.082474  -0.026530  -0.041247
   31  C  5  S    0.097466  -0.000400   0.092943   0.028854   0.045572
   32  C  5  X   -0.000701  -0.000890  -0.025733  -0.077183  -0.012397
   33  C  5  Y   -0.000878   0.000755  -0.040976   0.012173   0.000678
   34  C  5  Z    0.001054  -0.000447   0.048128   0.011981   0.003942
   35  C  5  S   -0.067067   0.001710   0.079190   0.031216   0.056217
   36  C  5  X   -0.007531   0.001135   0.001756   0.015684   0.006757
   37  C  5  Y    0.010915  -0.004341   0.018130   0.033644   0.027591
   38  C  5  Z   -0.008224   0.003852  -0.018249  -0.038966  -0.026344
   39  N  6  S    0.000137   0.000196  -0.153254  -0.135509  -0.053172
   40  N  6  S    0.000693   0.000951   0.133810   0.118685   0.046035
   41  N  6  X    0.000490   0.000932   0.042152  -0.014532  -0.006519
   42  N  6  Y   -0.000121  -0.000088  -0.023274   0.016144   0.027291
   43  N  6  Z   -0.000031  -0.000213   0.009667  -0.011218  -0.024369
   44  N  6  S    0.003421   0.002621   0.475415   0.450266   0.190408
   45  N  6  X   -0.002023  -0.006349   0.084992   0.016532   0.000794
   46  N  6  Y    0.002588   0.001807  -0.042507   0.006573   0.015291
   47  N  6  Z   -0.001924   0.000258   0.015097  -0.011237  -0.015448
   48  C  7  S   -0.011998   0.986103  -0.103244   0.017799   0.053963
   49  C  7  S   -0.002856   0.095188   0.117411  -0.019409  -0.055762
   50  C  7  X   -0.000342   0.000749   0.044617  -0.092290  -0.070622
   51  C  7  Y   -0.000578   0.000865   0.039140   0.054220   0.029122
   52  C  7  Z    0.000669  -0.001081  -0.052496  -0.024124  -0.006119
   53  C  7  S    0.009281  -0.043232   0.083807  -0.020954  -0.104702
   54  C  7  X    0.009800   0.000926  -0.047611   0.003838  -0.009567
   55  C  7  Y    0.005053  -0.000296  -0.030429   0.005567  -0.003048
   56  C  7  Z   -0.008001  -0.000026   0.044844  -0.006710   0.006075
   57  N  8  S    0.000155   0.000315  -0.100183   0.131965   0.092690
   58  N  8  S    0.000765   0.001394   0.082837  -0.111127  -0.080618
   59  N  8  X   -0.000175   0.000725  -0.046595   0.018292   0.055516
   60  N  8  Y   -0.000142   0.000224   0.047436  -0.044813  -0.024603
   61  N  8  Z    0.000207  -0.000469  -0.031801   0.037490   0.008512
   62  N  8  S   -0.008080  -0.002387   0.314705  -0.432711  -0.299871
   63  N  8  X    0.004679   0.000688  -0.048684   0.025189   0.042988
   64  N  8  Y   -0.002200  -0.003784   0.062167  -0.062992  -0.039599
   65  N  8  Z    0.000652   0.003562  -0.045683   0.052745   0.028372
   66  H  9  S    0.000006  -0.000780   0.007273  -0.036641   0.067317
   67  H  9  S    0.001630  -0.000813   0.001905  -0.004997   0.001534
   68  H 10  S   -0.000092  -0.000197   0.003517  -0.036191   0.063823
   69  H 10  S   -0.000012   0.000312  -0.006309   0.004669   0.000812
   70  H 11  S   -0.002758   0.000429   0.020707   0.010211   0.020691
   71  H 11  S    0.008374   0.003043  -0.013936  -0.017998  -0.006187
   72  H 12  S   -0.001543  -0.002421   0.064285   0.083808   0.038502
   73  H 12  S   -0.000221  -0.000529   0.021510   0.033066   0.015453
   74  H 13  S    0.001057  -0.002625   0.022426  -0.001583  -0.019595
   75  H 13  S    0.005423   0.011949  -0.034149   0.006765  -0.005657
   76  H 14  S    0.000049  -0.000149   0.002144  -0.026033   0.066489
   77  H 14  S    0.000239   0.000056   0.001293  -0.000410   0.004348
   78  H 15  S   -0.000049   0.000114   0.002066  -0.027256   0.066834
   79  H 15  S   -0.000218   0.000419  -0.003274   0.002257   0.006637

                     11         12         13         14         15
                   -0.7607    -0.6777    -0.5787    -0.5161    -0.4959
                     A          A          A          A          A   
    1  C  1  S    0.100322   0.114199  -0.001322  -0.008902   0.007559
    2  C  1  S   -0.092096  -0.102041   0.001704   0.008383  -0.007397
    3  C  1  X   -0.018125  -0.057388   0.018388  -0.022756   0.040545
    4  C  1  Y    0.000047  -0.014262   0.015872   0.015791  -0.028244
    5  C  1  Z   -0.010053  -0.078813  -0.020429   0.060284  -0.080602
    6  C  1  S   -0.311925  -0.405158   0.002417   0.042000  -0.038851
    7  C  1  X   -0.001742  -0.021255   0.016470  -0.007814   0.023925
    8  C  1  Y   -0.001458  -0.005103   0.007685   0.010124  -0.017186
    9  C  1  Z    0.000747  -0.024741  -0.011886   0.043530  -0.053722
   10  H  2  S   -0.058342  -0.085686  -0.017722   0.029454  -0.035889
   11  H  2  S   -0.012693  -0.029516  -0.018980   0.011062  -0.027832
   12  C  3  S   -0.015426  -0.128444  -0.015197   0.027512  -0.028289
   13  C  3  S    0.012005   0.115741   0.013558  -0.024644   0.020033
   14  C  3  X   -0.078651  -0.042458   0.037603  -0.111936   0.139493
   15  C  3  Y    0.004427  -0.016245   0.039130   0.016197  -0.041740
   16  C  3  Z   -0.033671  -0.071584  -0.049510   0.063851  -0.068042
   17  C  3  S    0.070798   0.448371   0.054567  -0.092772   0.140739
   18  C  3  X   -0.024415  -0.006115   0.023761  -0.075378   0.084318
   19  C  3  Y    0.007705  -0.005722   0.030653   0.006397  -0.032803
   20  C  3  Z   -0.006851  -0.022188  -0.034485   0.051047  -0.044522
   21  C  4  S   -0.107944  -0.001798   0.032517  -0.098732   0.055210
   22  C  4  S    0.115242   0.001629  -0.026129   0.103615  -0.056982
   23  C  4  X   -0.043315   0.124492  -0.038349  -0.009450  -0.086589
   24  C  4  Y    0.057221  -0.034807   0.125988   0.024205  -0.033322
   25  C  4  Z   -0.049514  -0.019297  -0.112828  -0.007686   0.039553
   26  C  4  S    0.217315   0.000232  -0.117039   0.303318  -0.153733
   27  C  4  X   -0.011910   0.027872  -0.006059  -0.030337  -0.099750
   28  C  4  Y    0.008093  -0.004357   0.044526   0.040740  -0.010427
   29  C  4  Z   -0.003498  -0.010562  -0.043253  -0.021826   0.029543
   30  C  5  S   -0.133587   0.084976  -0.069277   0.055546   0.016893
   31  C  5  S    0.140391  -0.087492   0.071130  -0.049684  -0.014880
   32  C  5  X    0.058780  -0.002002   0.074254   0.124132  -0.115654
   33  C  5  Y   -0.032350   0.010450  -0.003432  -0.141235  -0.085309
   34  C  5  Z    0.011919  -0.012758  -0.020397   0.104541   0.110513
   35  C  5  S    0.332310  -0.230166   0.223558  -0.221222  -0.122137
   36  C  5  X    0.022779  -0.010373   0.047016   0.035014  -0.041132
   37  C  5  Y   -0.024348   0.010855   0.000972  -0.067216  -0.030197
   38  C  5  Z    0.013372  -0.010925  -0.015844   0.058838   0.034907
   39  N  6  S    0.033838  -0.028334   0.055187  -0.010560  -0.018658
   40  N  6  S   -0.030428   0.025849  -0.046647   0.007892   0.010597
   41  N  6  X    0.067645  -0.081087   0.130043   0.021975   0.216298
   42  N  6  Y    0.054057  -0.032970  -0.115217  -0.145476  -0.057172
   43  N  6  Z   -0.074725   0.056644   0.071588   0.138475  -0.018657
   44  N  6  S   -0.118874   0.104854  -0.236596   0.056630   0.114042
   45  N  6  X    0.042043  -0.065418   0.113765   0.030249   0.229056
   46  N  6  Y    0.032358  -0.020965  -0.092248  -0.143337  -0.062832
   47  N  6  Z   -0.044537   0.040842   0.054207   0.133374  -0.016203
   48  C  7  S    0.099231  -0.042547  -0.123270  -0.007812   0.036061
   49  C  7  S   -0.104142   0.044785   0.130884   0.008430  -0.033728
   50  C  7  X   -0.002620  -0.046890  -0.040358  -0.131417   0.109982
   51  C  7  Y   -0.003393   0.012967  -0.018439   0.121992   0.081409
   52  C  7  Z    0.004003   0.000895   0.030201  -0.075714  -0.119598
   53  C  7  S   -0.240188   0.113925   0.365129  -0.010070  -0.161941
   54  C  7  X   -0.007894  -0.013065  -0.027336  -0.052151   0.058527
   55  C  7  Y   -0.007444   0.003653  -0.002203   0.039918   0.034744
   56  C  7  Z    0.009502   0.000057   0.010439  -0.021128  -0.056047
   57  N  8  S    0.030449   0.010177   0.071980   0.070703   0.006188
   58  N  8  S   -0.029578  -0.008386  -0.059555  -0.066329  -0.004473
   59  N  8  X    0.069131  -0.001010  -0.128301   0.088746  -0.038722
   60  N  8  Y    0.014001  -0.017773  -0.027631   0.053612   0.036567
   61  N  8  Z   -0.037931   0.012242   0.066715  -0.073966  -0.034555
   62  N  8  S   -0.088621  -0.041304  -0.277183  -0.254411  -0.022679
   63  N  8  X    0.028874   0.002281  -0.074844   0.066092  -0.034800
   64  N  8  Y    0.003244  -0.014267  -0.028618   0.040415   0.028031
   65  N  8  Z   -0.014971   0.007903   0.050939  -0.053915  -0.027575
   66  H  9  S    0.013648   0.095372   0.050410  -0.055999   0.048110
   67  H  9  S    0.002808   0.035332   0.033496  -0.042636   0.033902
   68  H 10  S    0.005841   0.095960   0.006645  -0.057126   0.076480
   69  H 10  S   -0.001480   0.033048   0.001857  -0.044515   0.056923
   70  H 11  S    0.075197  -0.053959   0.062934  -0.141712  -0.096302
   71  H 11  S    0.032257  -0.024799   0.030948  -0.111965  -0.087993
   72  H 12  S   -0.035895   0.046655  -0.142409  -0.050729  -0.122499
   73  H 12  S   -0.015891   0.023422  -0.094747  -0.034326  -0.086391
   74  H 13  S   -0.059230   0.039793   0.123831   0.000993  -0.129147
   75  H 13  S   -0.026886   0.022069   0.071631  -0.001481  -0.104946
   76  H 14  S   -0.066754  -0.091580   0.013122  -0.017061   0.034014
   77  H 14  S   -0.022830  -0.040128   0.008342  -0.020211   0.036595
   78  H 15  S   -0.059379  -0.090119   0.003965   0.031998  -0.045295
   79  H 15  S   -0.012203  -0.037838   0.004116   0.022711  -0.037363

                     16         17         18         19         20
                   -0.4417    -0.4133    -0.3737    -0.3499    -0.3414
                     A          A          A          A          A   
    1  C  1  S    0.002318   0.002360   0.001081   0.002095   0.002930
    2  C  1  S   -0.002004  -0.003876  -0.001884  -0.001289  -0.003249
    3  C  1  X    0.012722   0.277662   0.033989  -0.039244   0.008543
    4  C  1  Y    0.245034  -0.037852  -0.091110  -0.128890  -0.022089
    5  C  1  Z   -0.045128  -0.063276  -0.103130   0.226893   0.075850
    6  C  1  S   -0.016127  -0.006201  -0.008895   0.007108  -0.005301
    7  C  1  X    0.009456   0.204819   0.015452  -0.027323   0.005571
    8  C  1  Y    0.200182  -0.028979  -0.076900  -0.125777  -0.024359
    9  C  1  Z   -0.042716  -0.059067  -0.085549   0.202425   0.065356
   10  H  2  S   -0.133912  -0.065067  -0.014053   0.186018   0.046940
   11  H  2  S   -0.098166  -0.049976  -0.010267   0.174307   0.046395
   12  C  3  S   -0.000254   0.027046   0.000231   0.002854   0.004582
   13  C  3  S   -0.000795  -0.022417   0.000332  -0.003124  -0.004687
   14  C  3  X    0.018145   0.032937   0.058813  -0.038242  -0.013869
   15  C  3  Y    0.247079  -0.033883   0.026542   0.041255   0.012150
   16  C  3  Z   -0.056795  -0.133119   0.055432  -0.165373  -0.067094
   17  C  3  S   -0.003593  -0.124592  -0.011497  -0.010887  -0.006676
   18  C  3  X    0.009949   0.036738   0.048402  -0.018340  -0.021344
   19  C  3  Y    0.184558  -0.028609   0.019524   0.045295   0.013881
   20  C  3  Z   -0.038156  -0.107757   0.035318  -0.141359  -0.055339
   21  C  4  S    0.002101  -0.042076  -0.007744   0.006160   0.026647
   22  C  4  S   -0.000992   0.040962   0.007597  -0.000139  -0.030094
   23  C  4  X   -0.019355  -0.122968  -0.016415  -0.054206   0.038764
   24  C  4  Y    0.051941   0.010942   0.083387   0.121252  -0.036467
   25  C  4  Z    0.005374  -0.051404   0.081224  -0.107491   0.018463
   26  C  4  S   -0.027046   0.131049   0.029162  -0.073978  -0.060836
   27  C  4  X    0.000836  -0.035778   0.001387   0.011497  -0.003189
   28  C  4  Y    0.023784  -0.000738   0.073391   0.068695  -0.016419
   29  C  4  Z    0.005315  -0.039211   0.069128  -0.067341   0.016963
   30  C  5  S    0.019882   0.003820  -0.003207   0.006834   0.009938
   31  C  5  S   -0.020579  -0.001862   0.004231  -0.005510  -0.013486
   32  C  5  X    0.027041   0.136761   0.075974   0.080192   0.083800
   33  C  5  Y   -0.012872  -0.080179   0.107711  -0.092366   0.168691
   34  C  5  Z    0.036624  -0.027333   0.121212   0.083495  -0.182646
   35  C  5  S   -0.052491   0.014853   0.012937   0.002612  -0.012458
   36  C  5  X    0.023777   0.064321   0.052929   0.061991   0.041718
   37  C  5  Y   -0.017613  -0.079835   0.096977  -0.100902   0.146711
   38  C  5  Z    0.040810  -0.001129   0.111907   0.093492  -0.149770
   39  N  6  S   -0.006997   0.009819   0.004473  -0.000851  -0.003725
   40  N  6  S    0.006930  -0.005261  -0.003320   0.004203   0.002061
   41  N  6  X   -0.039976  -0.163598   0.031225  -0.049398  -0.074257
   42  N  6  Y    0.036835  -0.024120   0.204100   0.087586  -0.153073
   43  N  6  Z    0.004445   0.000591   0.219866  -0.012764   0.199972
   44  N  6  S    0.024664  -0.062698  -0.023420  -0.024434   0.032539
   45  N  6  X   -0.045741  -0.175676   0.030281  -0.071011  -0.073659
   46  N  6  Y    0.038155  -0.020430   0.207500   0.102772  -0.167887
   47  N  6  Z    0.002253   0.004289   0.224986  -0.017397   0.216214
   48  C  7  S    0.017492   0.009883   0.001772   0.003669  -0.001811
   49  C  7  S   -0.016758  -0.010819  -0.002001  -0.000313   0.005593
   50  C  7  X    0.071881  -0.041975   0.026720   0.149078   0.066020
   51  C  7  Y    0.008198  -0.032178   0.133150  -0.032842   0.179532
   52  C  7  Z   -0.011538  -0.008805   0.141576   0.025155  -0.180279
   53  C  7  S   -0.060361  -0.026309  -0.005773  -0.004705  -0.044924
   54  C  7  X    0.047198  -0.020945   0.027694   0.103323   0.075836
   55  C  7  Y    0.013105  -0.020051   0.118554   0.006806   0.110914
   56  C  7  Z   -0.013218  -0.018547   0.123687  -0.001934  -0.117089
   57  N  8  S   -0.016884  -0.002357   0.001021   0.001892  -0.014982
   58  N  8  S    0.013634  -0.000300  -0.001463  -0.000779   0.013935
   59  N  8  X   -0.038270   0.009302   0.037299  -0.143742  -0.011544
   60  N  8  Y    0.020597  -0.004323   0.094581  -0.012606   0.040188
   61  N  8  Z    0.016374  -0.058371   0.074561   0.079714  -0.029297
   62  N  8  S    0.063398   0.009247  -0.003259  -0.010064   0.049352
   63  N  8  X   -0.028817   0.004179   0.033100  -0.114694  -0.009442
   64  N  8  Y    0.024560  -0.005667   0.087684  -0.009098   0.032310
   65  N  8  Z    0.010988  -0.056371   0.069629   0.065312  -0.023201
   66  H  9  S    0.147269   0.030116  -0.005471   0.100563   0.040371
   67  H  9  S    0.138243   0.036969  -0.007361   0.105227   0.056297
   68  H 10  S   -0.129525   0.039883  -0.023622   0.013736   0.004520
   69  H 10  S   -0.112242   0.044571  -0.028750   0.016026   0.008545
   70  H 11  S   -0.039168  -0.022953   0.000020  -0.094236   0.172708
   71  H 11  S   -0.022515  -0.009750   0.000677  -0.076200   0.170335
   72  H 12  S    0.042159   0.090587   0.018753   0.068487  -0.012513
   73  H 12  S    0.034777   0.078472   0.017807   0.063865  -0.011862
   74  H 13  S   -0.050476   0.013143   0.007816  -0.049590  -0.160029
   75  H 13  S   -0.037607   0.020450   0.008951  -0.039291  -0.156159
   76  H 14  S   -0.007439   0.210580   0.053485  -0.064508  -0.009602
   77  H 14  S   -0.006630   0.225303   0.064216  -0.075876  -0.008942
   78  H 15  S    0.140273  -0.070394  -0.096068  -0.024268   0.002140
   79  H 15  S    0.124034  -0.062666  -0.093253  -0.019804   0.006103

                     21         22         23         24         25
                   -0.3349    -0.3110    -0.2923    -0.1754    -0.1621
                     A          A          A          A          A   
    1  C  1  S    0.017616   0.012788  -0.001731  -0.010937  -0.001109
    2  C  1  S   -0.015427  -0.010317   0.003669   0.011863  -0.000518
    3  C  1  X    0.117991   0.152576   0.075407  -0.037357   0.006753
    4  C  1  Y    0.186272  -0.116980   0.033147  -0.013663  -0.020416
    5  C  1  Z    0.179101   0.060761  -0.076541  -0.017584   0.030905
    6  C  1  S   -0.067647  -0.051255   0.001839   0.050331   0.027748
    7  C  1  X    0.097388   0.133966   0.083125  -0.000303   0.026982
    8  C  1  Y    0.169657  -0.111852   0.032503  -0.020095  -0.031629
    9  C  1  Z    0.148952   0.053149  -0.069114  -0.018223   0.063096
   10  H  2  S   -0.038930   0.055280  -0.081003   0.014647   0.022980
   11  H  2  S   -0.023938   0.073585  -0.101885  -0.005734  -0.052958
   12  C  3  S    0.008644  -0.001712  -0.019788  -0.000459  -0.012191
   13  C  3  S   -0.005861   0.006824   0.023952  -0.002250   0.005265
   14  C  3  X   -0.121094  -0.192451  -0.205578   0.012264  -0.052559
   15  C  3  Y   -0.169485   0.179968  -0.074672   0.031316   0.013645
   16  C  3  Z   -0.181724  -0.052827   0.147138   0.024501   0.000410
   17  C  3  S   -0.025388  -0.013562   0.050452   0.013153   0.119823
   18  C  3  X   -0.088260  -0.152827  -0.162363  -0.002715  -0.060171
   19  C  3  Y   -0.158062   0.178410  -0.065430   0.048260   0.019610
   20  C  3  Z   -0.154168  -0.049836   0.128802   0.053883   0.009112
   21  C  4  S   -0.002415  -0.005234  -0.009585   0.001184  -0.029130
   22  C  4  S   -0.001861  -0.000224   0.014503   0.000241   0.038217
   23  C  4  X    0.054527   0.197154   0.197548  -0.029801   0.014005
   24  C  4  Y   -0.065611  -0.077567   0.082866  -0.080361  -0.122064
   25  C  4  Z    0.004661   0.023000  -0.146008  -0.083925   0.116825
   26  C  4  S    0.029828   0.034931  -0.021417  -0.018390   0.071389
   27  C  4  X    0.044527   0.168036   0.201238  -0.057739  -0.058040
   28  C  4  Y   -0.036155  -0.085924   0.068487  -0.128638  -0.007665
   29  C  4  Z    0.016666   0.037000  -0.132095  -0.124179   0.027221
   30  C  5  S    0.002557   0.018791   0.013569  -0.000436   0.028759
   31  C  5  S   -0.003854  -0.022814  -0.015194   0.000302  -0.026522
   32  C  5  X   -0.067618  -0.172782   0.009493   0.023097  -0.093720
   33  C  5  Y    0.053154   0.057135   0.000647   0.066448   0.076035
   34  C  5  Z    0.037592  -0.004050   0.001529   0.070791  -0.039982
   35  C  5  S   -0.014580  -0.049716  -0.015181   0.000994  -0.202064
   36  C  5  X   -0.038129  -0.093397  -0.004371   0.035007  -0.120309
   37  C  5  Y    0.046859   0.037797  -0.033533   0.094291   0.065770
   38  C  5  Z    0.024194  -0.012645   0.037898   0.092755  -0.021380
   39  N  6  S   -0.005020  -0.020869  -0.011458  -0.000083   0.031165
   40  N  6  S    0.002791   0.013812   0.013458  -0.000284  -0.017520
   41  N  6  X    0.097885   0.142386   0.010201   0.063932  -0.031620
   42  N  6  Y    0.108092  -0.015404   0.015293   0.197817   0.082644
   43  N  6  Z    0.080112  -0.047468  -0.004017   0.203455  -0.069330
   44  N  6  S    0.031748   0.118795   0.021127   0.003283  -0.206145
   45  N  6  X    0.110013   0.163538  -0.011039   0.083023  -0.014878
   46  N  6  Y    0.114123  -0.018739   0.026139   0.255367   0.114694
   47  N  6  Z    0.086699  -0.052021  -0.005837   0.261464  -0.105187
   48  C  7  S   -0.001539  -0.000969  -0.020389   0.000614  -0.035604
   49  C  7  S   -0.000793  -0.003323   0.025968  -0.000386   0.047562
   50  C  7  X   -0.026995  -0.058840   0.215930  -0.046464   0.090798
   51  C  7  Y    0.053861   0.003936  -0.009244  -0.139427  -0.057316
   52  C  7  Z    0.083248   0.005632  -0.055712  -0.142890   0.021342
   53  C  7  S    0.010755   0.008770   0.068786  -0.001675   0.090838
   54  C  7  X   -0.015903  -0.040011   0.167279  -0.056435  -0.005544
   55  C  7  Y    0.046185  -0.013572   0.018369  -0.170594   0.029260
   56  C  7  Z    0.079469   0.017046  -0.067889  -0.171025  -0.034932
   57  N  8  S   -0.001591  -0.014383   0.017295  -0.000990   0.082141
   58  N  8  S    0.001290   0.012739  -0.011123   0.001207  -0.073974
   59  N  8  X    0.053041   0.086184  -0.215116  -0.064050  -0.181533
   60  N  8  Y    0.003472  -0.042195  -0.046178  -0.210819   0.286316
   61  N  8  Z    0.008170   0.014594   0.106270  -0.210589  -0.227050
   62  N  8  S    0.007669   0.058536  -0.076020   0.002568  -0.345482
   63  N  8  X    0.039667   0.062812  -0.188700  -0.072010  -0.230061
   64  N  8  Y   -0.001531  -0.040583  -0.037577  -0.241811   0.357734
   65  N  8  Z    0.005940   0.020805   0.086502  -0.239365  -0.281522
   66  H  9  S   -0.023151   0.105814  -0.146100   0.007721   0.014979
   67  H  9  S   -0.020508   0.115458  -0.190883   0.015851   0.008547
   68  H 10  S    0.146552  -0.138795  -0.003509  -0.037556  -0.013716
   69  H 10  S    0.157512  -0.150991  -0.018895  -0.031648  -0.041496
   70  H 11  S    0.002619   0.004545  -0.023060  -0.000986   0.041832
   71  H 11  S    0.000017   0.008375  -0.011917  -0.002918   0.088578
   72  H 12  S   -0.038822  -0.088768   0.013831   0.000015   0.042734
   73  H 12  S   -0.038359  -0.091971   0.007773   0.000376   0.058574
   74  H 13  S    0.033475   0.026985  -0.106832  -0.000236   0.055103
   75  H 13  S    0.030030   0.020353  -0.108429  -0.001459   0.080368
   76  H 14  S    0.021856   0.115717   0.081818  -0.019150   0.003413
   77  H 14  S    0.035650   0.146316   0.097603  -0.052750   0.001040
   78  H 15  S    0.161166  -0.101263  -0.004439  -0.003358  -0.008942
   79  H 15  S    0.185417  -0.112496  -0.008650  -0.015136  -0.016908

                     26         27         28         29         30
                   -0.1330     0.1064     0.4240     0.4587     0.4651
                     A          A          A          A          A   
    1  C  1  S    0.016150  -0.012545  -0.108868   0.037055  -0.007532
    2  C  1  S   -0.010474   0.015115   0.025529  -0.005347   0.002680
    3  C  1  X    0.043854  -0.021213   0.075919  -0.060095   0.008043
    4  C  1  Y    0.007452  -0.008216   0.030172  -0.050778   0.034336
    5  C  1  Z    0.041598  -0.008605  -0.026942  -0.109405   0.042041
    6  C  1  S   -0.107898   0.074270   1.457150  -0.608403   0.129775
    7  C  1  X    0.033760   0.059941   0.310679  -0.146108   0.010236
    8  C  1  Y   -0.000008  -0.025564   0.205088  -0.122306   0.162630
    9  C  1  Z    0.058679  -0.015993  -0.046277  -0.603119   0.229238
   10  H  2  S   -0.003484   0.015337   0.006492   0.005243  -0.008610
   11  H  2  S    0.002148  -0.022507  -0.218345   0.442524  -0.090300
   12  C  3  S    0.000638  -0.000569  -0.052208   0.064445  -0.038287
   13  C  3  S   -0.000746  -0.004532   0.010937  -0.009245   0.014260
   14  C  3  X   -0.012564   0.003279   0.018568  -0.052864  -0.027724
   15  C  3  Y   -0.040700   0.007251  -0.042569  -0.116827   0.021515
   16  C  3  Z   -0.037437   0.004849  -0.102578   0.065923  -0.003440
   17  C  3  S   -0.001379   0.029990   0.761539  -0.943913   0.487935
   18  C  3  X    0.011995  -0.026678  -0.074812  -0.289400  -0.037040
   19  C  3  Y   -0.024866   0.040724  -0.286074  -0.578862   0.046449
   20  C  3  Z   -0.021243   0.076125  -0.487613   0.279443   0.006380
   21  C  4  S    0.000138   0.000901  -0.000787   0.001794   0.018831
   22  C  4  S   -0.001566   0.001721   0.012575   0.000243  -0.011657
   23  C  4  X    0.046925  -0.027849  -0.040491  -0.034223  -0.008875
   24  C  4  Y    0.148390  -0.081895  -0.109025  -0.151371   0.046472
   25  C  4  Z    0.149262  -0.083214  -0.119784  -0.132308   0.031152
   26  C  4  S    0.009316  -0.036267  -0.043736  -0.150041  -0.104286
   27  C  4  X    0.063417  -0.092083  -0.151530  -0.015250  -0.105288
   28  C  4  Y    0.162294  -0.198205  -0.198842  -0.248268   0.083702
   29  C  4  Z    0.164040  -0.188109  -0.180377  -0.320878   0.095929
   30  C  5  S   -0.000506   0.000030  -0.007061   0.023416   0.008574
   31  C  5  S    0.000635  -0.000290   0.008115  -0.012143   0.016148
   32  C  5  X    0.076573   0.055923   0.024908   0.027968  -0.043471
   33  C  5  Y    0.232271   0.171332   0.085238   0.021153  -0.083604
   34  C  5  Z    0.239499   0.177051   0.073248   0.115767   0.061151
   35  C  5  S    0.004509  -0.002536   0.061008  -0.327450  -0.364184
   36  C  5  X    0.094945   0.114020   0.018545   0.161257  -0.138314
   37  C  5  Y    0.290420   0.326348   0.217646  -0.056805  -0.177206
   38  C  5  Z    0.303080   0.327486   0.110918   0.378462   0.123688
   39  N  6  S   -0.000269  -0.000438   0.000793   0.011207   0.097367
   40  N  6  S    0.000310  -0.000149  -0.001618  -0.002368  -0.030801
   41  N  6  X   -0.033597  -0.056600  -0.009121   0.050629   0.157611
   42  N  6  Y   -0.104969  -0.176001  -0.009459  -0.017974  -0.084318
   43  N  6  Z   -0.106294  -0.179670  -0.001664  -0.010916   0.034606
   44  N  6  S    0.000185   0.008371   0.005973  -0.131501  -1.006817
   45  N  6  X   -0.046628  -0.102093  -0.009567   0.150301   0.580273
   46  N  6  Y   -0.143970  -0.322120  -0.026748  -0.046425  -0.310900
   47  N  6  Z   -0.145318  -0.331317   0.009899  -0.037236   0.127701
   48  C  7  S    0.000281   0.000513   0.005909  -0.002989   0.013818
   49  C  7  S   -0.000581  -0.000019  -0.003474   0.006680   0.002703
   50  C  7  X   -0.055364   0.075138  -0.034416   0.019858   0.016898
   51  C  7  Y   -0.170357   0.233218  -0.050549  -0.051510   0.069699
   52  C  7  Z   -0.173713   0.238484  -0.059440  -0.053843  -0.048764
   53  C  7  S   -0.000738  -0.003502  -0.063854   0.007170  -0.339004
   54  C  7  X   -0.064971   0.120443  -0.090445   0.067260   0.047976
   55  C  7  Y   -0.205723   0.383598  -0.118578  -0.124399   0.090989
   56  C  7  Z   -0.211195   0.396970  -0.104004  -0.109193  -0.050525
   57  N  8  S   -0.000499  -0.000317  -0.013577   0.021702   0.000915
   58  N  8  S    0.000524   0.000808   0.010503  -0.019511  -0.004174
   59  N  8  X    0.005174  -0.046850   0.053818   0.021211   0.018597
   60  N  8  Y    0.009540  -0.147265   0.118038   0.098392  -0.073855
   61  N  8  Z    0.014829  -0.149908   0.121248   0.126713   0.007842
   62  N  8  S    0.001835  -0.000927   0.087259  -0.111857   0.020932
   63  N  8  X    0.009002  -0.080953   0.067162   0.106623   0.004180
   64  N  8  Y    0.024004  -0.256561   0.234982   0.202119  -0.144185
   65  N  8  Z    0.031278  -0.258842   0.233506   0.229983   0.022831
   66  H  9  S   -0.006856   0.004862   0.003649   0.012204   0.005635
   67  H  9  S   -0.010089   0.027736  -0.454768   1.137156  -0.227665
   68  H 10  S    0.056124  -0.025049  -0.038417  -0.062939   0.016884
   69  H 10  S    0.092275  -0.014616  -0.854287  -0.227312  -0.064891
   70  H 11  S    0.000075  -0.000212   0.008052  -0.015877   0.007165
   71  H 11  S    0.000869  -0.000852  -0.106645   0.493670   0.468760
   72  H 12  S   -0.000206  -0.000234  -0.002380   0.016589   0.047594
   73  H 12  S   -0.000444  -0.000166  -0.015317   0.323060   1.435740
   74  H 13  S   -0.000407   0.000099   0.000248   0.000058  -0.008939
   75  H 13  S    0.000340  -0.001664  -0.005674   0.069249   0.316336
   76  H 14  S    0.017985  -0.016632  -0.009729  -0.015302   0.015269
   77  H 14  S    0.047805  -0.106800  -0.965183   0.226368   0.053079
   78  H 15  S    0.004370   0.005607   0.008191   0.027391  -0.013040
   79  H 15  S    0.039014   0.003798  -0.638289   0.679106  -0.341296

                     31         32         33         34         35
                    0.4862     0.4913     0.5033     0.5186     0.5291
                     A          A          A          A          A   
    1  C  1  S   -0.116827   0.024648   0.006959   0.035625  -0.037116
    2  C  1  S    0.017831  -0.003745   0.006290  -0.003224   0.010504
    3  C  1  X    0.026092   0.120874  -0.216424  -0.034714  -0.089189
    4  C  1  Y   -0.013265  -0.206533   0.004276   0.013960  -0.129902
    5  C  1  Z    0.088989   0.025111   0.137157  -0.019678  -0.002778
    6  C  1  S    1.693653  -0.308259  -0.105032  -0.514750   0.497231
    7  C  1  X    0.019861   0.555675  -1.065502  -0.128930  -0.490410
    8  C  1  Y   -0.072473  -0.907318   0.149329   0.049752  -0.819949
    9  C  1  Z    0.251940   0.206381   0.750685   0.025001  -0.096620
   10  H  2  S   -0.032537  -0.049088  -0.032717   0.010018  -0.023602
   11  H  2  S   -1.020826  -0.692197  -0.868197   0.247434  -0.888969
   12  C  3  S    0.078238  -0.062045  -0.040859  -0.052031   0.035046
   13  C  3  S   -0.005340   0.008023   0.014186   0.020550  -0.005013
   14  C  3  X   -0.062974   0.049255   0.018433   0.026508  -0.052850
   15  C  3  Y   -0.050896  -0.127149  -0.112725   0.020576   0.087104
   16  C  3  Z    0.089532  -0.004545  -0.006872  -0.055302  -0.041033
   17  C  3  S   -1.166071   0.882765   0.553701   0.617536  -0.483183
   18  C  3  X   -0.383601   0.215610   0.273751   0.218459  -0.359305
   19  C  3  Y   -0.199775  -0.476077  -0.607900   0.104183   0.530079
   20  C  3  Z    0.327082   0.119955  -0.258424  -0.291743  -0.368823
   21  C  4  S    0.006139  -0.003825   0.011005  -0.005296   0.040145
   22  C  4  S    0.014769   0.015602  -0.008706   0.023288  -0.044794
   23  C  4  X   -0.008354   0.032129  -0.051442  -0.058030   0.009980
   24  C  4  Y    0.050996   0.056144  -0.047835   0.027415  -0.028090
   25  C  4  Z    0.074170   0.080249  -0.005851  -0.024323  -0.080909
   26  C  4  S   -0.357240  -0.049882   0.011445  -0.166228  -0.167105
   27  C  4  X    0.130210   0.069036  -0.005472   0.211867  -0.135601
   28  C  4  Y    0.099223   0.239373  -0.057255   0.062480  -0.123184
   29  C  4  Z    0.094172   0.167490   0.019659  -0.128529  -0.067756
   30  C  5  S    0.041825  -0.004392  -0.024974   0.088825  -0.025718
   31  C  5  S   -0.023691   0.005138   0.018609  -0.039908   0.004223
   32  C  5  X    0.019736  -0.005972   0.025485   0.046616  -0.006508
   33  C  5  Y   -0.081165  -0.057191   0.012303  -0.082544   0.107532
   34  C  5  Z    0.027671  -0.034900   0.025867   0.071213  -0.057449
   35  C  5  S   -0.445058  -0.004706   0.253622  -0.952360   0.448648
   36  C  5  X    0.187871  -0.026169  -0.011991   0.072179   0.162033
   37  C  5  Y   -0.463749  -0.155016   0.012409  -0.616980   0.546352
   38  C  5  Z    0.247439  -0.075167   0.055122   0.587327  -0.452318
   39  N  6  S   -0.036917   0.000278   0.001751  -0.070639  -0.002851
   40  N  6  S    0.015294  -0.001731  -0.003972   0.043731   0.001738
   41  N  6  X    0.009741   0.006118  -0.035868  -0.012581   0.027923
   42  N  6  Y    0.012624  -0.001087  -0.007137   0.000569  -0.024811
   43  N  6  Z   -0.006650   0.012163   0.004371   0.000583   0.011716
   44  N  6  S    0.345546   0.007449   0.005767   0.556521   0.033179
   45  N  6  X   -0.034578   0.030615  -0.093071  -0.256389   0.111018
   46  N  6  Y    0.071266  -0.018727  -0.028081   0.068654  -0.047686
   47  N  6  Z   -0.031173   0.041687   0.038358   0.009087  -0.000468
   48  C  7  S    0.021510   0.003672  -0.009040   0.085429   0.064181
   49  C  7  S   -0.011680  -0.001971   0.000641  -0.040825  -0.025289
   50  C  7  X    0.016316  -0.002043  -0.017789   0.074867   0.056425
   51  C  7  Y   -0.012325   0.013114  -0.017965   0.008767   0.062899
   52  C  7  Z    0.021113   0.020677   0.023878  -0.026504  -0.106477
   53  C  7  S   -0.181753  -0.046619   0.129009  -0.949809  -0.904653
   54  C  7  X    0.084043  -0.023194  -0.086978   0.486334   0.322448
   55  C  7  Y   -0.043409   0.000164  -0.086262   0.122778   0.340542
   56  C  7  Z    0.049665   0.092864   0.101102  -0.263647  -0.504132
   57  N  8  S   -0.003119  -0.007082   0.004304  -0.011327  -0.042828
   58  N  8  S   -0.000034   0.003899  -0.002070   0.007121   0.036718
   59  N  8  X   -0.003257  -0.005601  -0.002569  -0.028360   0.011267
   60  N  8  Y   -0.035297  -0.065561  -0.015993  -0.008386   0.071417
   61  N  8  Z   -0.001758  -0.035080   0.021615   0.001701   0.009748
   62  N  8  S    0.052323   0.081818  -0.028779   0.073047   0.224421
   63  N  8  X   -0.005092  -0.040894  -0.016406  -0.015602  -0.021910
   64  N  8  Y   -0.041726  -0.106381   0.000979  -0.017513   0.089561
   65  N  8  Z   -0.064540  -0.114945   0.037130   0.005427   0.085470
   66  H  9  S    0.014049   0.037582   0.034170  -0.032769  -0.002813
   67  H  9  S    1.031169   0.197347   0.172228  -0.674291  -0.365502
   68  H 10  S    0.027812  -0.015807  -0.021325   0.009987  -0.017817
   69  H 10  S    0.509351  -0.980904  -0.978192  -0.318870   0.570021
   70  H 11  S   -0.010137  -0.001219   0.005858   0.040058  -0.003383
   71  H 11  S    0.777837   0.057380  -0.111311   1.449471  -0.966862
   72  H 12  S   -0.002812   0.002197   0.004282  -0.008902  -0.007770
   73  H 12  S   -0.200503   0.049718  -0.100945  -0.534969   0.138141
   74  H 13  S    0.011510  -0.002794  -0.007679   0.028343   0.007237
   75  H 13  S    0.135730  -0.044873  -0.252941   1.129792   1.231762
   76  H 14  S    0.028577  -0.014348   0.036908  -0.003655   0.019869
   77  H 14  S   -0.554306  -0.636471   1.517389   0.338276   0.239505
   78  H 15  S    0.000700   0.041752   0.000482  -0.003440   0.035536
   79  H 15  S   -0.692432   1.273909  -0.520573   0.115696   0.600456

                     36         37         38         39         40
                    0.5434     0.6068     0.6668     0.6767     0.7003
                     A          A          A          A          A   
    1  C  1  S    0.025475   0.066017  -0.004941  -0.020649   0.009799
    2  C  1  S   -0.006015   0.001714  -0.010731  -0.007725   0.005840
    3  C  1  X    0.060868   0.040375   0.023257   0.034481  -0.030860
    4  C  1  Y    0.122040  -0.012565  -0.001656  -0.033485   0.019432
    5  C  1  Z    0.013541   0.153610   0.070487   0.012691   0.045920
    6  C  1  S   -0.342467  -1.064087   0.098145   0.356690  -0.275914
    7  C  1  X    0.411748   0.782237  -0.207070  -0.217241   0.043251
    8  C  1  Y    0.804391  -0.098528  -0.035421  -0.015126   0.211025
    9  C  1  Z    0.089574   1.201208   0.379822  -0.148284   0.359829
   10  H  2  S    0.011417  -0.059185   0.014056   0.033094   0.007111
   11  H  2  S    0.724934  -0.420245  -0.336306  -0.087097  -0.022578
   12  C  3  S   -0.019736  -0.070067   0.080068   0.074029   0.024750
   13  C  3  S   -0.001158   0.009072  -0.016607   0.024743   0.011957
   14  C  3  X    0.009535   0.092226   0.189903  -0.040720   0.059638
   15  C  3  Y   -0.151673   0.132609   0.017179  -0.000711  -0.061104
   16  C  3  Z    0.090134   0.226858  -0.025605  -0.023197   0.069812
   17  C  3  S    0.299237   1.031700  -1.286877  -1.353777  -0.604816
   18  C  3  X    0.107686   0.526297   1.638878   0.731962   0.913995
   19  C  3  Y   -0.763528   0.671910   0.074914  -0.140388  -0.386088
   20  C  3  Z    0.532193   1.337785  -0.447481  -0.396344   0.308568
   21  C  4  S    0.031601   0.002682  -0.098002  -0.125630  -0.029684
   22  C  4  S   -0.002967   0.019966   0.024090   0.020308  -0.001360
   23  C  4  X    0.069463  -0.062817   0.226663   0.037190   0.073641
   24  C  4  Y    0.027779  -0.137087  -0.066852  -0.007470   0.143277
   25  C  4  Z    0.059825  -0.084807  -0.053527   0.009467  -0.197048
   26  C  4  S   -0.307085  -0.123327   1.426903   2.078354   0.831017
   27  C  4  X    0.080327  -0.279127   1.461314   0.533676   0.639198
   28  C  4  Y    0.080001  -0.479963  -0.209496  -0.032766   0.701267
   29  C  4  Z    0.150582  -0.335793  -0.331917  -0.030688  -0.966505
   30  C  5  S   -0.048902  -0.021707   0.049107  -0.023624   0.052888
   31  C  5  S    0.028077   0.017887  -0.043394  -0.011140  -0.021308
   32  C  5  X    0.051111   0.015756   0.096117  -0.150469  -0.017703
   33  C  5  Y    0.033393   0.005714   0.075634   0.016082   0.003619
   34  C  5  Z   -0.092475   0.043851  -0.084645   0.034805   0.009398
   35  C  5  S    0.689909   0.222470  -0.172047   0.490782  -0.907918
   36  C  5  X    0.243085  -0.034423   0.439135  -1.415575  -0.461872
   37  C  5  Y    0.254992   0.118135   0.006203  -0.006537   0.030146
   38  C  5  Z   -0.463118   0.273482  -0.103332   0.414365   0.152873
   39  N  6  S   -0.016905   0.000079  -0.051698   0.051128   0.049838
   40  N  6  S    0.004368  -0.000851   0.024071   0.006867   0.008688
   41  N  6  X   -0.006423  -0.035724   0.143101  -0.126375   0.023760
   42  N  6  Y   -0.019946  -0.017331  -0.016889  -0.083112   0.116133
   43  N  6  Z    0.025237   0.037346  -0.031814   0.118235  -0.121818
   44  N  6  S    0.188118   0.009624   0.526751  -0.839286  -0.908797
   45  N  6  X   -0.015187  -0.143123   0.471013  -0.714690  -0.046133
   46  N  6  Y   -0.040566  -0.112667  -0.078235  -0.305906   0.550876
   47  N  6  Z    0.058527   0.121096  -0.077368   0.526935  -0.530804
   48  C  7  S    0.054825   0.018675  -0.032867   0.035616  -0.028466
   49  C  7  S   -0.012865  -0.006994   0.018321  -0.030599   0.006097
   50  C  7  X    0.127587   0.003661   0.081645   0.028528  -0.079992
   51  C  7  Y    0.048211  -0.032561  -0.027481   0.023209   0.132338
   52  C  7  Z   -0.063759  -0.012829   0.000990  -0.029308  -0.104427
   53  C  7  S   -0.823741  -0.251494   0.318516  -0.627587   0.341396
   54  C  7  X    0.537180   0.009794   0.700181   0.246839  -0.773116
   55  C  7  Y    0.299041  -0.137531  -0.278403   0.115128   0.959578
   56  C  7  Z   -0.397906  -0.011402   0.038118  -0.180666  -0.707041
   57  N  8  S   -0.000783   0.004859   0.053635   0.043452  -0.094089
   58  N  8  S    0.008136   0.001900  -0.018170  -0.013142   0.005624
   59  N  8  X   -0.059259   0.011371   0.066618  -0.118082  -0.019794
   60  N  8  Y   -0.009783   0.074115  -0.002239  -0.086316   0.017610
   61  N  8  Z   -0.050951   0.125867  -0.002623   0.105544   0.001638
   62  N  8  S   -0.064794  -0.061355  -0.601777  -0.455229   1.346313
   63  N  8  X   -0.060351  -0.004618   0.230143  -0.357743  -0.171125
   64  N  8  Y   -0.083763   0.156089   0.051961  -0.287185   0.182256
   65  N  8  Z   -0.062575   0.268735  -0.083194   0.359232  -0.095342
   66  H  9  S    0.009236   0.059251  -0.060434   0.020120  -0.088689
   67  H  9  S    0.857294   0.034512  -0.240826   0.234498   0.425025
   68  H 10  S    0.021329   0.001582  -0.065662  -0.061036   0.012713
   69  H 10  S   -0.622640   0.718222   0.001388   0.032315  -0.181991
   70  H 11  S    0.006254   0.021632   0.009675   0.014823  -0.102424
   71  H 11  S   -0.908389   0.012004  -0.027559   0.046348   0.394794
   72  H 12  S    0.013283   0.008027   0.004424  -0.052858  -0.092165
   73  H 12  S   -0.034924  -0.087909   0.409746  -0.278919  -0.182420
   74  H 13  S   -0.003186  -0.009855   0.002018  -0.086253  -0.004765
   75  H 13  S    1.229026   0.086135   0.132283   0.580943   0.188311
   76  H 14  S   -0.012682  -0.059699  -0.054194  -0.002911  -0.066810
   77  H 14  S   -0.163469  -0.035212   0.057469  -0.109417   0.123897
   78  H 15  S   -0.028396  -0.034159   0.011714   0.001887   0.007190
   79  H 15  S   -0.642277   0.040808  -0.138800  -0.019039  -0.227730

                     41         42         43         44         45
                    0.8115     0.8552     0.9452     1.0894     1.1309
                     A          A          A          A          A   
    1  C  1  S   -0.005847  -0.001652  -0.002783   0.000384   0.000184
    2  C  1  S    0.002799  -0.023036   0.010008  -0.006693  -0.026147
    3  C  1  X    0.038535   0.107997  -0.036363   0.044924   0.229253
    4  C  1  Y    0.002084  -0.001370   0.060373  -0.542939   0.067472
    5  C  1  Z   -0.002776   0.028648   0.059196   0.103244  -0.500969
    6  C  1  S    0.038894   0.308007  -0.075127   0.037442   0.277014
    7  C  1  X    0.004178  -0.186585  -0.007666  -0.059508  -0.547298
    8  C  1  Y   -0.035825  -0.243386  -0.046124   0.861868  -0.113328
    9  C  1  Z    0.094025  -0.110869   0.025632  -0.103654   0.773423
   10  H  2  S   -0.073691  -0.017443   0.005904   0.402010  -0.390492
   11  H  2  S   -0.104146  -0.163024  -0.045014  -0.069756  -0.043544
   12  C  3  S   -0.019648   0.015919   0.008513  -0.002105   0.024681
   13  C  3  S   -0.013330   0.044800   0.052501  -0.004013  -0.076996
   14  C  3  X    0.027832  -0.037039  -0.172580   0.062466   0.555527
   15  C  3  Y    0.034005   0.080150   0.051549  -0.233725  -0.009126
   16  C  3  Z   -0.029769  -0.029919  -0.012011   0.041832   0.128870
   17  C  3  S    0.554360  -0.859163  -0.975460  -0.050833  -0.035963
   18  C  3  X   -0.429717   0.551750   0.813509   0.013734  -0.282914
   19  C  3  Y   -0.142995   0.524042  -0.251510   0.350319  -0.009466
   20  C  3  Z    0.296063  -0.804919   0.033177  -0.109792  -0.329768
   21  C  4  S   -0.000725   0.065769   0.110702   0.013018  -0.011602
   22  C  4  S   -0.050009  -0.037717  -0.005369  -0.087901  -0.121702
   23  C  4  X   -0.112474   0.153047   0.168974   0.003305  -0.023555
   24  C  4  Y    0.101801  -0.125567   0.080794  -0.200701  -0.069641
   25  C  4  Z   -0.060661   0.070769  -0.132093  -0.032354  -0.127440
   26  C  4  S    0.509886  -1.784326  -1.755284  -0.265638  -0.030459
   27  C  4  X   -1.033857   2.223460   2.076100   0.232451   0.231537
   28  C  4  Y    0.470493  -1.735944   0.575202  -0.103950   0.190787
   29  C  4  Z   -0.156054   1.031172  -1.212717   0.045514  -0.031978
   30  C  5  S    0.047444  -0.102000  -0.104228  -0.024520  -0.011931
   31  C  5  S   -0.029990  -0.026333  -0.005311  -0.050654  -0.096748
   32  C  5  X    0.105417   0.031220  -0.037210  -0.208991  -0.236914
   33  C  5  Y    0.007895  -0.078081  -0.096821  -0.043819   0.050443
   34  C  5  Z   -0.043339   0.076826   0.112086  -0.024845   0.148907
   35  C  5  S   -0.903397   2.687407   1.805890   0.457412   0.283601
   36  C  5  X   -0.630603   1.461266  -0.786643   0.217094  -0.051345
   37  C  5  Y    0.635699  -1.762746  -1.257112  -0.180572  -0.082987
   38  C  5  Z   -0.412909   1.243530   1.467909   0.257306  -0.058664
   39  N  6  S    0.064205   0.071715   0.043336   0.027879   0.006214
   40  N  6  S   -0.022961  -0.002212  -0.005268  -0.031550  -0.015719
   41  N  6  X   -0.075502  -0.039115  -0.116615  -0.041928  -0.037015
   42  N  6  Y    0.089777   0.110055  -0.097241  -0.001583  -0.066005
   43  N  6  Z   -0.063529  -0.097641   0.130803   0.016636   0.063391
   44  N  6  S   -0.763655  -1.212835  -0.795318  -0.193904  -0.024274
   45  N  6  X   -0.498392  -0.608510  -0.813513  -0.205707  -0.135211
   46  N  6  Y    0.540381   0.660771  -0.391154   0.031388  -0.063747
   47  N  6  Z   -0.374591  -0.452592   0.639564   0.000949   0.136752
   48  C  7  S   -0.115685  -0.048677  -0.014273  -0.015972   0.003818
   49  C  7  S   -0.031095  -0.029742   0.023784  -0.031464   0.006240
   50  C  7  X    0.036390   0.122430   0.117908  -0.048002   0.148217
   51  C  7  Y    0.162335  -0.017379  -0.081694   0.028564  -0.058426
   52  C  7  Z   -0.170817  -0.021756   0.042060  -0.030008   0.019054
   53  C  7  S    1.963461   0.659559   0.219111   0.223338  -0.013068
   54  C  7  X    1.673558  -0.241386   0.825897   0.276851  -0.058906
   55  C  7  Y    0.428559   0.994940  -0.502447   0.025759  -0.080510
   56  C  7  Z   -0.946726  -0.900226   0.232487  -0.106514   0.085928
   57  N  8  S    0.105774   0.039028  -0.057209   0.007514   0.004528
   58  N  8  S   -0.001532  -0.015488   0.021073   0.011966  -0.025977
   59  N  8  X    0.181960  -0.045344   0.173933   0.096346  -0.068954
   60  N  8  Y   -0.043736  -0.049955   0.124983  -0.011395   0.012398
   61  N  8  Z   -0.010381   0.060659  -0.174030  -0.005085  -0.063332
   62  N  8  S   -1.769052  -0.388241   0.850975  -0.212866   0.122966
   63  N  8  X    1.187117  -0.386220   0.783154   0.065891   0.114212
   64  N  8  Y   -0.452265  -0.201946   0.653037  -0.028513   0.063041
   65  N  8  Z    0.074530   0.315351  -0.890712   0.016767  -0.104771
   66  H  9  S    0.073421   0.066857  -0.048658  -0.352435   0.024374
   67  H  9  S    0.105385  -0.629134   0.131192   0.049853  -0.050042
   68  H 10  S   -0.003774  -0.097853  -0.038641   0.325791   0.026714
   69  H 10  S   -0.025870   0.183095  -0.043545  -0.081651  -0.016402
   70  H 11  S   -0.008742  -0.022541  -0.203376  -0.105745  -0.257400
   71  H 11  S   -0.282204   0.882133   0.929472   0.151000   0.141655
   72  H 12  S    0.069714   0.066656   0.031653   0.072426  -0.111913
   73  H 12  S   -0.393306  -0.359236  -0.172761  -0.099552   0.027726
   74  H 13  S   -0.079154  -0.082626   0.022980  -0.053574  -0.070601
   75  H 13  S    0.811603   0.438510   0.055064   0.142901  -0.002636
   76  H 14  S    0.044740   0.070283  -0.077880   0.085706   0.368664
   77  H 14  S   -0.015668  -0.145508   0.042625  -0.018074   0.010413
   78  H 15  S    0.004014   0.002100   0.099974  -0.516887  -0.176417
   79  H 15  S   -0.014001   0.153300  -0.069986   0.065840  -0.022438

                     46         47         48         49         50
                    1.1521     1.1824     1.1913     1.2111     1.2298
                     A          A          A          A          A   
[...]
    5             0.457952   0.227337
    6             0.075667   0.157251
    7             0.220324   0.358345
    8             0.001631   0.180633
    9             0.000123   0.000171
   10             0.012947   0.001341
   11            -0.000000  -0.000001
   12             0.000000   0.000000
   13             0.000000  -0.000001
   14             0.002235   0.003615
   15             0.001322  -0.000024

     ATOMIC MULLIKEN POPULATION IN EACH MOLECULAR ORBITAL
         BETA ORBITALS

                      1          2          3          4          5

                  1.000000   1.000000   1.000000   1.000000   1.000000

    1            -0.000000  -0.000001   0.993448   0.002686   0.000114
    2             0.000000  -0.000000   0.001434   0.000009  -0.000003
    3            -0.000000   0.000041   0.002231   0.989967   0.001581
    4            -0.000453   0.004007   0.000101   0.004346   0.994174
    5             0.003303  -0.000319  -0.000002   0.000032   0.003762
    6             0.994033  -0.000036   0.000000   0.000000  -0.000055
    7             0.002662   0.003357   0.000000   0.000001   0.000436
    8            -0.000019   0.992905   0.000000   0.000003  -0.000041
    9            -0.000000  -0.000000   0.000003   0.001452  -0.000016
   10            -0.000000   0.000001   0.000008   0.001493   0.000042
   11             0.000051  -0.000001  -0.000000   0.000001   0.000002
   12             0.000387   0.000000  -0.000000  -0.000000   0.000000
   13             0.000038   0.000046  -0.000000  -0.000000   0.000001
   14             0.000000  -0.000000   0.001341  -0.000003   0.000002
   15             0.000000   0.000000   0.001436   0.000014   0.000002

                      6          7          8          9         10

                  1.000000   1.000000   1.000000   1.000000   1.000000

    1             0.000000   0.000000   0.000062   0.098700   0.258135
    2             0.000000  -0.000000   0.000432   0.006065   0.010047
    3             0.000004   0.000006   0.012994   0.188014   0.267466
    4             0.004344   0.000453   0.134141   0.108384  -0.002175
    5             0.994157   0.000247   0.062859   0.018917   0.018661
    6             0.000279  -0.000047   0.414839   0.291114   0.102579
    7             0.000504   0.998368   0.060412   0.027289   0.045963
    8            -0.000038  -0.000147   0.300044   0.201129   0.226190
    9             0.000004  -0.000000   0.000523   0.008827   0.013119
   10            -0.000000   0.000000  -0.000432   0.006189   0.011944
   11             0.000752   0.000004  -0.000889  -0.000968  -0.000091
   12            -0.000002  -0.000005   0.020965   0.037856   0.016291
   13            -0.000004   0.001120  -0.005901   0.000210   0.001071
   14             0.000000   0.000000   0.000050   0.004118   0.015217
   15            -0.000000   0.000000  -0.000099   0.004155   0.015584

                     11         12         13         14         15

                  1.000000   1.000000   1.000000   1.000000   1.000000

    1             0.224590   0.185561   0.011554   0.030580   0.027845
    2             0.021823   0.025473   0.004753   0.004532   0.001745
    3             0.067134   0.245211   0.049942   0.109856   0.070767
    4             0.222371   0.082801   0.123877   0.124791   0.066254
    5             0.164832   0.125474   0.058590   0.174604   0.146316
    6             0.049795   0.087783   0.236893   0.193186   0.180343
    7             0.088321   0.047534   0.147601   0.103819   0.154358
    8             0.064601   0.006814   0.158003   0.103025   0.038462
    9             0.004211   0.038601   0.022427   0.020105   0.000603
   10             0.001455   0.044470   0.000443   0.024693   0.025958
   11             0.020813   0.020438   0.009455   0.088532   0.100306
   12             0.003373   0.013745   0.114527   0.002131   0.057225
   13             0.014304   0.015297   0.059816   0.009730   0.114474
   14             0.030548   0.029420   0.002069   0.003040   0.004072
   15             0.021828   0.031376   0.000050   0.007375   0.011271

                     16         17         18         19         20

                  1.000000   1.000000   1.000000   1.000000   1.000000

    1             0.274311   0.335056   0.333555   0.234337   0.013194
    2             0.080429   0.020187   0.061210   0.097404   0.006910
    3             0.254285   0.094180   0.250776   0.090947   0.011637
    4             0.012542   0.067136   0.073550   0.106236   0.011715
    5             0.018902   0.064287   0.025777   0.076586   0.205540
    6             0.009287   0.099146   0.018329   0.044098   0.229112
    7             0.031511   0.005342   0.031711   0.043485   0.190262
    8             0.007196   0.010606   0.044253   0.070526   0.013512
    9             0.098893   0.006426   0.021698   0.035656   0.010471
   10             0.077865   0.008316   0.039360   0.034708   0.002900
   11             0.013344   0.003004   0.008115   0.029152   0.161318
   12             0.006218   0.039335   0.001285   0.023045   0.001025
   13             0.025104   0.001254   0.011823   0.010667   0.139056
   14             0.000823   0.225693   0.016836   0.007101   0.000145
   15             0.089291   0.020035   0.061723   0.096051   0.003203

                     21         22         23         24         25

                  1.000000   1.000000   1.000000   1.000000   1.000000

    1             0.140205   0.047242   0.045374   0.006260   0.008630
    2             0.010830   0.014044   0.017273   0.001944   0.000346
    3             0.221320   0.137883   0.123061   0.010193   0.004243
    4             0.155601   0.153237   0.140427   0.051174   0.200415
    5             0.087003   0.056974   0.065708   0.049741   0.014595
    6             0.094472   0.144996   0.174533   0.043406   0.444638
    7             0.008294   0.139503   0.134179   0.029159   0.000521
    8             0.038092   0.180093   0.160472   0.772060   0.312360
    9             0.036137   0.046423   0.059259   0.000479   0.000249
   10             0.068169   0.024316   0.022217   0.002129   0.009788
   11             0.000311   0.002126   0.001402   0.009132  -0.000000
   12             0.035220   0.000537   0.000404   0.007012   0.000000
   13             0.005083   0.037989   0.029138   0.016822  -0.000000
   14             0.067933   0.005599   0.019335   0.000072   0.003417
   15             0.031330   0.009038   0.007219   0.000418   0.000799

                     26

                  1.000000

    1             0.012185
    2            -0.000071
    3             0.003272
    4             0.250777
    5             0.280067
    6             0.009371
    7             0.244738
    8             0.181889
    9             0.000029
   10             0.014704
   11             0.000000
   12             0.000000
   13             0.000000
   14             0.001518
   15             0.001520

     ATOMIC SPIN POPULATION (ALPHA MINUS BETA)
       ATOM         MULL.POP.                    LOW.POP.
    1 C            -0.014729                    -0.012706
    2 H             0.001943                     0.001228
    3 C             0.041856                     0.022239
    4 C            -0.337665                    -0.222652
    5 C             0.614857                     0.474065
    6 N             0.180074                     0.230193
    7 C             0.713943                     0.603260
    8 N            -0.016134                     0.012556
    9 H            -0.003075                    -0.001928
   10 H            -0.016881                    -0.013392
   11 H            -0.057801                    -0.032678
   12 H            -0.028352                    -0.019012
   13 H            -0.082967                    -0.044981
   14 H             0.004476                     0.003218
   15 H             0.000455                     0.000589


          ********* ALL ELECTRONS ********

               ----- POPULATIONS IN EACH AO -----
                             MULLIKEN      LOWDIN
              1  C  1  S      1.98828     1.97659
              2  C  1  S      0.35410     0.41854
              3  C  1  X      0.52339     0.49246
              4  C  1  Y      0.54038     0.50784
              5  C  1  Z      0.53561     0.51236
              6  C  1  S      1.10526     0.58478
              7  C  1  X      0.45340     0.56308
              8  C  1  Y      0.56542     0.60828
              9  C  1  Z      0.48667     0.58924
             10  H  2  S      0.46333     0.46550
             11  H  2  S      0.31225     0.43362
             12  C  3  S      1.98958     1.97608
             13  C  3  S      0.34617     0.40773
             14  C  3  X      0.55071     0.53421
             15  C  3  Y      0.53261     0.49812
             16  C  3  Z      0.51821     0.49227
             17  C  3  S      1.15181     0.55591
             18  C  3  X      0.37867     0.54331
             19  C  3  Y      0.53588     0.57797
             20  C  3  Z      0.45225     0.55592
             21  C  4  S      1.98746     1.97586
             22  C  4  S      0.38696     0.40836
             23  C  4  X      0.56263     0.54931
             24  C  4  Y      0.51885     0.50654
             25  C  4  Z      0.50645     0.49638
             26  C  4  S      0.73688     0.51735
             27  C  4  X      0.30488     0.48781
             28  C  4  Y      0.42166     0.55951
             29  C  4  Z      0.41701     0.55605
             30  C  5  S      1.98664     1.97557
             31  C  5  S      0.37890     0.40084
             32  C  5  X      0.51685     0.50629
             33  C  5  Y      0.55837     0.54618
             34  C  5  Z      0.53907     0.52981
             35  C  5  S      0.72572     0.54007
             36  C  5  X      0.22253     0.45148
             37  C  5  Y      0.56985     0.64474
             38  C  5  Z      0.55015     0.63784
             39  N  6  S      1.98786     1.97726
             40  N  6  S      0.34723     0.45472
             41  N  6  X      0.55420     0.53758
             42  N  6  Y      0.66386     0.66936
             43  N  6  Z      0.66922     0.67638
             44  N  6  S      1.33461     0.71031
             45  N  6  X      0.69525     0.66151
             46  N  6  Y      0.82679     0.81339
             47  N  6  Z      0.82521     0.82394
             48  C  7  S      1.98563     1.97505
             49  C  7  S      0.38204     0.39826
             50  C  7  X      0.55675     0.53936
             51  C  7  Y      0.52644     0.52525
             52  C  7  Z      0.53931     0.53485
             53  C  7  S      0.63228     0.53302
             54  C  7  X      0.24324     0.47224
             55  C  7  Y      0.44499     0.58447
             56  C  7  Z      0.48195     0.60932
             57  N  8  S      1.98985     1.98056
             58  N  8  S      0.36797     0.49763
             59  N  8  X      0.58097     0.56765
             60  N  8  Y      0.60489     0.61117
             61  N  8  Z      0.56605     0.56487
             62  N  8  S      1.45732     0.83352
             63  N  8  X      0.59074     0.69356
             64  N  8  Y      0.83931     0.84932
             65  N  8  Z      0.75073     0.78792
             66  H  9  S      0.47398     0.48579
             67  H  9  S      0.37410     0.45960
             68  H 10  S      0.47031     0.48434
             69  H 10  S      0.35427     0.45151
             70  H 11  S      0.47622     0.47338
             71  H 11  S      0.39859     0.48266
             72  H 12  S      0.44855     0.45732
             73  H 12  S      0.28424     0.38185
             74  H 13  S      0.47980     0.47758
             75  H 13  S      0.41151     0.49266
             76  H 14  S      0.47648     0.48201
             77  H 14  S      0.40469     0.47768
             78  H 15  S      0.46979     0.47345
             79  H 15  S      0.35791     0.45395

          ----- MULLIKEN ATOMIC OVERLAP POPULATIONS -----
          (OFF-DIAGONAL ELEMENTS NEED TO BE MULTIPLIED BY 2)

             1           2           3           4           5

    1    5.3937055
    2    0.3745678   0.4864976
    3    0.2654374  -0.0444547   5.3988255
    4   -0.0955298  -0.0017485   0.2625787   5.1754859
    5   -0.0006492   0.0002963  -0.0629467   0.4148197   5.3801649
    6   -0.0000084   0.0000156   0.0024900  -0.0431928   0.1385896
    7   -0.0000153  -0.0001989   0.0050413  -0.2179283  -0.0696780
    8   -0.0009663   0.0100845  -0.0506600   0.4649774  -0.1156181
    9   -0.0421995   0.0030275   0.3841424  -0.0521693   0.0005106
   10   -0.0557862  -0.0009058   0.3820658  -0.0536832   0.0007338
   11   -0.0000906  -0.0000062   0.0013785  -0.0267120   0.3819633
   12    0.0000011  -0.0000003  -0.0000577   0.0038971  -0.0231018
   13    0.0000001  -0.0000061  -0.0000486   0.0047325   0.0023738
   14    0.3442509  -0.0278965  -0.0458267   0.0060624  -0.0000420
   15    0.3697862  -0.0236950  -0.0420791   0.0011905   0.0006695

             6           7           8           9          10

    6    7.5143663
    7    0.1172093   5.2068477
    8   -0.0809647   0.3683708   7.1772424
    9    0.0000266  -0.0001893   0.0016493   0.5869606
   10   -0.0000161   0.0001458   0.0003899  -0.0308056   0.5791233
   11   -0.0364123   0.0038731   0.0029353   0.0007914  -0.0000591
   12    0.3419956  -0.0190153   0.0030148  -0.0000009   0.0000008
   13   -0.0498438   0.3982142  -0.0328015   0.0000009  -0.0000011
   14    0.0000002  -0.0000036   0.0001135  -0.0017342  -0.0001209
   15   -0.0000091  -0.0000447   0.0000688  -0.0019270   0.0035065

            11          12          13          14          15

   11    0.5469073
   12    0.0002722   0.4251951
   13   -0.0000250   0.0005980   0.5681122
   14    0.0000011  -0.0000000   0.0000000   0.6371192
   15   -0.0000043   0.0000000  -0.0000001  -0.0307511   0.5509844

          TOTAL MULLIKEN AND LOWDIN ATOMIC POPULATIONS
       ATOM         MULL.POP.    CHARGE          LOW.POP.     CHARGE
    1 C             6.552504   -0.552504         6.253167   -0.253167
    2 H             0.775577    0.224423         0.899119    0.100881
    3 C             6.455886   -0.455886         6.141523   -0.141523
    4 C             5.842780    0.157220         6.057161   -0.057161
    5 C             6.048086   -0.048086         6.232818   -0.232818
    6 N             7.904246   -0.904246         7.324442   -0.324442
    7 C             5.792629    0.207371         6.171827   -0.171827
    8 N             7.747836   -0.747836         7.386187   -0.386187
    9 H             0.848083    0.151917         0.945388    0.054612
   10 H             0.824588    0.175412         0.935847    0.064153
   11 H             0.874813    0.125187         0.956034    0.043966
   12 H             0.732799    0.267201         0.839161    0.160839
   13 H             0.891306    0.108694         0.970246    0.029754
   14 H             0.881172    0.118828         0.959681    0.040319
   15 H             0.827695    0.172305         0.927400    0.072600

          -------------------------------
          BOND ORDER AND VALENCE ANALYSIS     BOND ORDER THRESHOLD=0.050
          -------------------------------

                   BOND                       BOND                       BOND
  ATOM PAIR DIST  ORDER      ATOM PAIR DIST  ORDER      ATOM PAIR DIST  ORDER
    1   2  1.094  0.916        1   3  1.549  0.917        1  14  1.096  0.937
    1  15  1.095  0.938        3   4  1.501  0.913        3   9  1.096  0.941
    3  10  1.098  0.928        4   5  1.376  1.355        4   8  1.407  1.342
    5   6  1.397  0.843        5   8  2.274  0.077        5  11  1.075  0.955
    6   7  1.382  0.822        6  12  1.012  0.892        7   8  1.328  1.202
    7  13  1.077  0.948

                       TOTAL       BONDED        FREE
      ATOM            VALENCE     VALENCE     VALENCE
    1 C                 3.681       3.680       0.000
    2 H                 0.919       0.919       0.000
    3 C                 3.649       3.649       0.001
    4 C                 3.664       3.615       0.049
    5 C                 3.469       3.246       0.223
    6 N                 2.667       2.612       0.055
    7 C                 3.355       3.016       0.339
    8 N                 2.682       2.679       0.003
    9 H                 0.927       0.927       0.000
   10 H                 0.916       0.916       0.000
   11 H                 0.954       0.951       0.003
   12 H                 0.907       0.906       0.001
   13 H                 0.955       0.948       0.007
   14 H                 0.935       0.935       0.000
   15 H                 0.927       0.927       0.000

          -----------------------------------------
          ATOMIC SPIN DENSITY AT THE NUCLEUS (A.U.)
          -----------------------------------------
                            SPIN DENS    ALPHA DENS     BETA DENS
    1  C            6.0    -0.0096683      46.99201      47.00168
    2  H            1.0     0.0005560       0.18187       0.18132
    3  C            6.0     0.0133307      47.04043      47.02710
    4  C            6.0    -0.0695656      46.93287      47.00244
    5  C            6.0     0.1127062      46.96843      46.85573
    6  N            7.0     0.0777269      76.61304      76.53531
    7  C            6.0     0.1323764      46.93797      46.80559
    8  N            7.0     0.0012685      76.85511      76.85384
    9  H            1.0    -0.0008207       0.18627       0.18709
   10  H            1.0    -0.0044175       0.18318       0.18760
   11  H            1.0    -0.0148912       0.17875       0.19364
   12  H            1.0    -0.0090234       0.17281       0.18184
   13  H            1.0    -0.0203749       0.17728       0.19765
   14  H            1.0     0.0006791       0.18742       0.18674
   15  H            1.0     0.0004335       0.18445       0.18402

          ---------------------
          ELECTROSTATIC MOMENTS
          ---------------------

 POINT   1           X           Y           Z (BOHR)    CHARGE
                -2.809971   -0.214962   -0.189760       -1.00 (A.U.)
         DX          DY          DZ         /D/  (DEBYE)
     1.097238    2.126615   -1.495225    2.821723
 ...... END OF PROPERTY EVALUATION ......
 CPU     0: STEP CPU TIME=     0.03 TOTAL CPU TIME=          1.3 (      0.0 MIN)
 TOTAL WALL CLOCK TIME=          1.7 SECONDS, CPU UTILIZATION IS    78.18%
               580000  WORDS OF DYNAMIC MEMORY USED
 EXECUTION OF GAMESS TERMINATED NORMALLY Sun May 17 14:19:06 2020
 DDI: 263640 bytes (0.3 MB / 0 MWords) used by master data server.
Note: The following floating-point exceptions are signalling:Note: The following floating-point exceptions are signalling:Note: The following floating-point exceptions are signalling: IEEE_DENORMAL
Note: The following floating-point exceptions are signalling: IEEE_DENORMAL IEEE_DENORMAL

 ----------------------------------------
 CPU timing information for all processes
 ========================================
 0: 1.166 + 0.135 = 1.301
 1: 1.125 + 0.15 = 1.141
 2: 1.197 + 0.04 = 1.201
 3: 1.195 + 0.15 = 1.211
 4: 1.128 + 0.20 = 1.148
 5: 1.112 + 0.16 = 1.128
 ----------------------------------------
 IEEE_DENORMAL
Note: The following floating-point exceptions are signalling: IEEE_DENORMALNote: The following floating-point exceptions are signalling: IEEE_DENORMAL


 ddikick.x: exited gracefully.
unset echo
----- accounting info -----
Files used on the master node pietdev were:
-rwxr-xr-x 1 piet piet      989 mei 17 14:19 /home/piet/scr/histidine_fukui_acid.F05*
-rw-r--r-- 1 piet piet 68812800 mei 17 14:19 /home/piet/scr/histidine_fukui_acid.F10
ls: No match.
ls: No match.
ls: No match.
zo 17 mei 2020 14:19:09 CEST
0.101u 0.026s 0:04.79 2.5%	0+0k 0+8io 0pf+0w
