----- GAMESS execution script 'rungms' -----
This job is running on host pietdev
under operating system Linux at zo 17 mei 2020 14:18:12 CEST
Available scratch disk space (Kbyte units) at beginning of the job is
Filesystem     1K-blocks     Used Available Use% Mounted on
/dev/sda2      244568380 30379732 201695592  14% /
GAMESS temporary binary files will be written to /home/piet/scr
GAMESS supplementary output files will be written to /home/piet/gamess/scr
Copying input file histidine_charge_geodisk.inp to your run's scratch directory...
cp histidine_charge_geodisk.inp /home/piet/scr/histidine_charge_geodisk.F05
unset echo
 
Assuming a single but multicore node.
 
/home/piet/gamess/ddikick.x /home/piet/gamess/gamess.03.x histidine_charge_geodisk -ddi 1 6 pietdev:cpus=6 -scr /home/piet/scr

 Distributed Data Interface kickoff program.
 Initiating 6 compute processes on 1 nodes to run the following command:
 /home/piet/gamess/gamess.03.x histidine_charge_geodisk 

          ******************************************************
          *         GAMESS VERSION = 30 SEP 2019 (R2)          *
          *             FROM IOWA STATE UNIVERSITY             *
          * M.W.SCHMIDT, K.K.BALDRIDGE, J.A.BOATZ, S.T.ELBERT, *
          *   M.S.GORDON, J.H.JENSEN, S.KOSEKI, N.MATSUNAGA,   *
          *          K.A.NGUYEN, S.J.SU, T.L.WINDUS,           *
          *       TOGETHER WITH M.DUPUIS, J.A.MONTGOMERY       *
          *         J.COMPUT.CHEM.  14, 1347-1363(1993)        *
          **************** 64 BIT LINUX VERSION ****************

  SINCE 1993, STUDENTS AND POSTDOCS WORKING AT IOWA STATE UNIVERSITY
  AND ALSO IN THEIR VARIOUS JOBS AFTER LEAVING ISU HAVE MADE IMPORTANT
  CONTRIBUTIONS TO THE CODE:
     IVANA ADAMOVIC, CHRISTINE AIKENS, YURI ALEXEEV, POOJA ARORA,
     ANDREY ASADCHEV, ROB BELL, PRADIPTA BANDYOPADHYAY, JONATHAN BENTZ,
     COLLEEN BERTONI, BRETT BODE, KURT BRORSEN, CALEB CARLIN, GALINA CHABAN,
     WEI CHEN, CHEOL HO CHOI, PAUL DAY, ALBERT DEFUSCO, NUWAN DESILVA,
     TIM DUDLEY, DMITRI FEDOROV, ALEX FINDLATER, GRAHAM FLETCHER, 
     MARK FREITAG, KURT GLAESEMANN, EMILIE B GUIDEZ, ANASTASIA GUNINA, 
     DAN KEMP, SAROM SOK LEANG, GRANT MERRILL,
     NORIYUKI MINEZAWA, JONATHAN MULLIN,
     TAKESHI NAGATA, SEAN NEDD, HEATHER NETZLOFF, BOSILJKA NJEGIC, RYAN OLSON,
     MIKE PAK, BUU PHAM, DAVID POOLE,
     SPENCER PRUITT, LUKE ROSKOP, TOSAPORN SATTASATHUCHANA,
     JIM SHOEMAKER, LYUDMILA SLIPCHENKO,
     TONY SMITH, JIE SONG, TETSUYA TAKETSUGU, SIMON WEBB,
     JORGE LUIS GALVEZ VALLEJO, PENG XU, SOOHAENG YOO,
     FEDERICO ZAHARIEV

  ADDITIONAL CODE HAS BEEN PROVIDED BY COLLABORATORS IN OTHER GROUPS:
     IOWA STATE UNIVERSITY:
          JOE IVANIC, AARON WEST, LAIMUTIS BYTAUTAS, KLAUS RUEDENBERG
     UNIVERSITY OF TOKYO: KIMIHIKO HIRAO, TAKAHITO NAKAJIMA,
          TAKAO TSUNEDA, MUNEAKI KAMIYA, SUSUMU YANAGISAWA,
          KIYOSHI YAGI, MAHITO CHIBA, SEIKEN TOKURA, NAOAKI KAWAKAMI
     UNIVERSITY OF AARHUS: FRANK JENSEN
     UNIVERSITY OF IOWA: VISVALDAS KAIRYS, HUI LI
     NATIONAL INST. OF STANDARDS AND TECHNOLOGY: WALT STEVENS, DAVID GARMER
     UNIVERSITY OF PISA: BENEDETTA MENNUCCI, JACOPO TOMASI
     UNIVERSITY OF MEMPHIS: HENRY KURTZ, PRAKASHAN KORAMBATH
     UNIVERSITY OF ALBERTA: TOBY ZENG, MARIUSZ KLOBUKOWSKI
     UNIVERSITY OF NEW ENGLAND: MARK SPACKMAN
     MIE UNIVERSITY: HIROAKI UMEDA
     NAT. INST. OF ADVANCED INDUSTRIAL SCIENCE AND TECHNOLOGY: KAZUO KITAURA
     MICHIGAN STATE UNIVERSITY:
          KAROL KOWALSKI, MARTA WLOCH, JEFFREY GOUR, JESSE LUTZ,
          WEI LI, JUN SHEN, J. EMILIANO DEUSTUA, PIOTR PIECUCH
     UNIVERSITY OF MINNESOTA:
          ANDREW SAND, PRACHI SHARMA, YINAN SHU
     UNIVERSITY OF SILESIA: MONIKA MUSIAL, STANISLAW KUCHARSKI
     FACULTES UNIVERSITAIRES NOTRE-DAME DE LA PAIX:
          OLIVIER QUINET, BENOIT CHAMPAGNE
     UNIVERSITY OF CALIFORNIA - SANTA BARBARA: BERNARD KIRTMAN
     INSTITUTE FOR MOLECULAR SCIENCE:
          KAZUYA ISHIMURA, MICHIO KATOUDA, AND SHIGERU NAGASE
     UNIVERSITY OF NOTRE DAME: ANNA POMOGAEVA, DAN CHIPMAN
     KYUSHU UNIVERSITY:
          HARUYUKI NAKANO,
          FENG LONG GU, JACEK KORCHOWIEC, MARCIN MAKOWSKI, AND YURIKO AOKI,
          HIROTOSHI MORI AND EISAKU MIYOSHI
     PENNSYLVANIA STATE UNIVERSITY:
          TZVETELIN IORDANOV, CHET SWALINA, JONATHAN SKONE,
          SHARON HAMMES-SCHIFFER
     WASEDA UNIVERSITY:
          MASATO KOBAYASHI, TOMOKO AKAMA, TSUGUKI TOUMA,
          TAKESHI YOSHIKAWA, YASUHIRO IKABATA, JUNJI SEINO,
          YUYA NAKAJIMA, HIROMI NAKAI
     NANJING UNIVERSITY: SHUHUA LI
     UNIVERSITY OF NEBRASKA:
          PEIFENG SU, DEJUN SI, NANDUN THELLAMUREGE, YALI WANG, HUI LI
     UNIVERSITY OF ZURICH: ROBERTO PEVERATI, KIM BALDRIDGE
     N. COPERNICUS UNIVERSITY AND JACKSON STATE UNIVERSITY:
          MARIA BARYSZ
     UNIVERSITY OF COPENHAGEN: Jimmy Kromann, CASPER STEINMANN
     TOKYO INSTITUTE OF TECHNOLOGY: HIROYA NAKATA
     NAGOYA UNIVERSITY: YOSHIO NISHIMOTO, STEPHAN IRLE
     MOSCOW STATE UNIVERSITY: VLADIMIR MIRONOV
     A.N.NESMEYANOV INSTITUTE OF ORGANOELEMENT COMPOUNDS OF RUSSIAN ACADEMY OF SCIENCES:
          IGOR S. GERASIMOV
     JOHANNES KEPLER UNIVERSITY LINZ:
          CHRISTIAN FRIEDL


 PARALLEL VERSION RUNNING ON        6 PROCESSORS IN        1 NODES.

 EXECUTION OF GAMESS BEGUN Sun May 17 14:18:12 2020

            ECHO OF THE FIRST FEW INPUT CARDS -
 INPUT CARD> $BASIS GBASIS=N21 NGAUSS=3 $END                                                
 INPUT CARD> $CONTRL SCFTYP=RHF DFTTYP=B3LYP MAXIT=60 MULT=1 ICHARG=0 $END                  
 INPUT CARD> $SYSTEM MEMDDI=1000 MWORDS=30 $END                                             
 INPUT CARD> $SCF DIRSCF=.TRUE. $END                                                        
 INPUT CARD> $ELPOT  IEPOT=1 WHERE=PDC $END                                                 
 INPUT CARD> $PDC PTSEL=GEODESIC CONSTR=CHARGE $END                                         
 INPUT CARD> $DATA                                                                          
 INPUT CARD>                                                                                
 INPUT CARD>C1                                                                              
 INPUT CARD>C 6.0000000 1.0883272071 0.0146701698 0.4314499533                              
 INPUT CARD>H 1.0000000 0.8059103419 -0.7156436338 1.1953689756                             
 INPUT CARD>C 6.0000000 0.1840415912 -0.1842002008 -0.8101238022                            
 INPUT CARD>C 6.0000000 -1.2685802949 -0.1237174832 -0.4375693807                           
 INPUT CARD>C 6.0000000 -2.2615765661 0.6951787470 -0.9236374150                            
 INPUT CARD>N 7.0000000 -3.4215719134 0.3525128992 -0.2247938092                            
 INPUT CARD>C 6.0000000 -3.0825149569 -0.6561251146 0.6575563469                            
 INPUT CARD>N 7.0000000 -1.7955122680 -0.9669974238 0.5572279049                            
 INPUT CARD>H 1.0000000 0.4008350391 0.5774109742 -1.5685104774                             
 INPUT CARD>H 1.0000000 0.4013933731 -1.1655879778 -1.2528055757                            
 INPUT CARD>H 1.0000000 -2.2437621536 1.4623123178 -1.6771520676                            
 INPUT CARD>H 1.0000000 -4.3344967221 0.7728978930 -0.3464847211                            
 INPUT CARD>H 1.0000000 -3.7945407124 -1.1093352745 1.3258018791                            
 INPUT CARD>H 1.0000000 2.1448931823 -0.1202639283 0.1740836384                             
 INPUT CARD>H 1.0000000 0.9513448526 1.0194380359 0.8457685506                              
 INPUT CARD> $END                                                                           
   30000000 WORDS OF MEMORY AVAILABLE

     BASIS OPTIONS
     -------------
     GBASIS=N21          IGAUSS=       3      POLAR=NONE    
     NDFUNC=       0     NFFUNC=       0     DIFFSP=       F
     NPFUNC=       0      DIFFS=       F     BASNAM=        


     RUN TITLE
     ---------
                                                                                 

 THE POINT GROUP OF THE MOLECULE IS C1      
 THE ORDER OF THE PRINCIPAL AXIS IS     0

 ATOM      ATOMIC                      COORDINATES (BOHR)
           CHARGE         X                   Y                   Z
 C           6.0     2.0566402064        0.0277226011        0.8153221892
 H           1.0     1.5229497169       -1.3523703727        2.2589198181
 C           6.0     0.3477881777       -0.3480879064       -1.5309120023
 C           6.0    -2.3972691508       -0.2337921431       -0.8268862301
 C           6.0    -4.2737600102        1.3136973443       -1.7454216264
 N           7.0    -6.4658333636        0.6661527866       -0.4247987031
 C           6.0    -5.8251086216       -1.2398966803        1.2426013171
 N           7.0    -3.3930261941       -1.8273601618        1.0530080530
 H           1.0     0.7574683902        1.0911485235       -2.9640550112
 H           1.0     0.7585234884       -2.2026418926       -2.3674592540
 H           1.0    -4.2400956519        2.7633695891       -3.1693578475
 H           1.0    -8.1910110994        1.4605652343       -0.6547611818
 H           1.0    -7.1706421957       -2.0963396973        2.5054022655
 H           1.0     4.0532603875       -0.2272658707        0.3289703755
 H           1.0     1.7977810912        1.9264585493        1.5982708097

          INTERNUCLEAR DISTANCES (ANGS.)
          ------------------------------

                1 C          2 H          3 C          4 C          5 C     

   1 C       0.0000000    1.0939332 *  1.5488019 *  2.5158217 *  3.6771197  
   2 H       1.0939332 *  0.0000000    2.1659072 *  2.7056193 *  3.9862368  
   3 C       1.5488019 *  2.1659072 *  0.0000000    1.5008549 *  2.6013921 *
   4 C       2.5158217 *  2.7056193 *  1.5008549 *  0.0000000    1.3758251 *
   5 C       3.6771197    3.9862368    2.6013921 *  1.3758251 *  0.0000000  
   6 N       4.5698997    4.5857853    3.6920348    2.2152746 *  1.3969221 *
   7 C       4.2304864    3.9258930    3.6120894    2.1847465 *  2.2360983 *
   8 N       3.0489378    2.6903164 *  2.5300308 *  1.4065561 *  2.2744247 *
   9 H       2.1884160 *  3.0781660    1.0964494 *  2.1348434 *  2.7419274 *
  10 H       2.1683183 *  2.5218332 *  1.0983310 *  2.1304732 *  3.2653045  
  11 H       4.2005583    4.7217975    3.0589169    2.2367466 *  1.0754513 *
  12 H       5.5305615    5.5692776    4.6420024    3.1956313    2.1531706 *
  13 H       5.0897596    4.6191077    4.6094653    3.2344082    3.2659190  
  14 H       1.0957994 *  1.7861623 *  2.1949239 *  3.4678426    4.6137744  
  15 H       1.0954371 *  1.7759167 *  2.1862019 *  2.8074594 *  3.6822283  

                6 N          7 C          8 N          9 H         10 H     

   1 C       4.5698997    4.2304864    3.0489378    2.1884160 *  2.1683183 *
   2 H       4.5857853    3.9258930    2.6903164 *  3.0781660    2.5218332 *
   3 C       3.6920348    3.6120894    2.5300308 *  1.0964494 *  1.0983310 *
   4 C       2.2152746 *  2.1847465 *  1.4065561 *  2.1348434 *  2.1304732 *
   5 C       1.3969221 *  2.2360983 *  2.2744247 *  2.7419274 *  3.2653045  
   6 N       0.0000000    1.3823357 *  2.2353379 *  4.0579488    4.2398705  
   7 C       1.3823357 *  0.0000000    1.3278115 *  4.3140134    4.0058273  
   8 N       2.2353379 *  1.3278115 *  0.0000000    3.4246025    2.8534284 *
   9 H       4.0579488    4.3140134    3.4246025    0.0000000    1.7713597 *
  10 H       4.2398705    4.0058273    2.8534284 *  1.7713597 *  0.0000000  
  11 H       2.1744505 *  3.2622303    3.3309049    2.7908328 *  3.7527027  
  12 H       1.0124050 *  2.1488750 *  3.2078613    4.8943773    5.1969029  
  13 H       2.1634354 *  1.0765371 *  2.1464111 *  5.3687368    4.9252658  
  14 H       5.6007281    5.2769962    4.0485247    2.5622497 *  2.4836479 *
  15 H       4.5511860    4.3720659    3.4021178    2.5153911 *  3.0790906  

               11 H         12 H         13 H         14 H         15 H     

   1 C       4.2005583    5.5305615    5.0897596    1.0957994 *  1.0954371 *
   2 H       4.7217975    5.5692776    4.6191077    1.7861623 *  1.7759167 *
   3 C       3.0589169    4.6420024    4.6094653    2.1949239 *  2.1862019 *
   4 C       2.2367466 *  3.1956313    3.2344082    3.4678426    2.8074594 *
   5 C       1.0754513 *  2.1531706 *  3.2659190    4.6137744    3.6822283  
   6 N       2.1744505 *  1.0124050 *  2.1634354 *  5.6007281    4.5511860  
   7 C       3.2622303    2.1488750 *  1.0765371 *  5.2769962    4.3720659  
   8 N       3.3309049    3.2078613    2.1464111 *  4.0485247    3.4021178  
   9 H       2.7908328 *  4.8943773    5.3687368    2.5622497 *  2.5153911 *
  10 H       3.7527027    5.1969029    4.9252658    2.4836479 *  3.0790906  
  11 H       0.0000000    2.5723800 *  4.2468833    5.0191550    4.0951160  
  12 H       2.5723800 *  0.0000000    2.5750527 *  6.5613431    5.4242392  
  13 H       4.2468833    2.5750527 *  0.0000000    6.1303827    5.2235560  
  14 H       5.0191550    6.5613431    6.1303827    0.0000000    1.7817516 *
  15 H       4.0951160    5.4242392    5.2235560    1.7817516 *  0.0000000  

  * ... LESS THAN  3.000


     ATOMIC BASIS SET
     ----------------
 THE CONTRACTED PRIMITIVE FUNCTIONS HAVE BEEN UNNORMALIZED
 THE CONTRACTED BASIS FUNCTIONS ARE NOW NORMALIZED TO UNITY

  SHELL TYPE  PRIMITIVE        EXPONENT          CONTRACTION COEFFICIENT(S)

 C         

      1   S       1           172.2560000    0.061766907377
      1   S       2            25.9109000    0.358794042852
      1   S       3             5.5333500    0.700713083689

      2   L       4             3.6649800   -0.395895162119    0.236459946619
      2   L       5             0.7705450    1.215834355681    0.860618805716

      3   L       6             0.1958570    1.000000000000    1.000000000000

 H         

      4   S       7             5.4471780    0.156284978695
      4   S       8             0.8245472    0.904690876670

      5   S       9             0.1831916    1.000000000000

 C         

      6   S      10           172.2560000    0.061766907377
      6   S      11            25.9109000    0.358794042852
      6   S      12             5.5333500    0.700713083689

      7   L      13             3.6649800   -0.395895162119    0.236459946619
      7   L      14             0.7705450    1.215834355681    0.860618805716

      8   L      15             0.1958570    1.000000000000    1.000000000000

 C         

      9   S      16           172.2560000    0.061766907377
      9   S      17            25.9109000    0.358794042852
      9   S      18             5.5333500    0.700713083689

     10   L      19             3.6649800   -0.395895162119    0.236459946619
     10   L      20             0.7705450    1.215834355681    0.860618805716

     11   L      21             0.1958570    1.000000000000    1.000000000000

 C         

     12   S      22           172.2560000    0.061766907377
     12   S      23            25.9109000    0.358794042852
     12   S      24             5.5333500    0.700713083689

     13   L      25             3.6649800   -0.395895162119    0.236459946619
     13   L      26             0.7705450    1.215834355681    0.860618805716

     14   L      27             0.1958570    1.000000000000    1.000000000000

 N         

     15   S      28           242.7660000    0.059865700508
     15   S      29            36.4851000    0.352955002994
     15   S      30             7.8144900    0.706513005993

     16   L      31             5.4252200   -0.413300077430    0.237972016222
     16   L      32             1.1491500    1.224417266851    0.858953058551

     17   L      33             0.2832050    1.000000000000    1.000000000000

 C         

     18   S      34           172.2560000    0.061766907377
     18   S      35            25.9109000    0.358794042852
     18   S      36             5.5333500    0.700713083689

     19   L      37             3.6649800   -0.395895162119    0.236459946619
     19   L      38             0.7705450    1.215834355681    0.860618805716

     20   L      39             0.1958570    1.000000000000    1.000000000000

 N         

     21   S      40           242.7660000    0.059865700508
     21   S      41            36.4851000    0.352955002994
     21   S      42             7.8144900    0.706513005993

     22   L      43             5.4252200   -0.413300077430    0.237972016222
     22   L      44             1.1491500    1.224417266851    0.858953058551

     23   L      45             0.2832050    1.000000000000    1.000000000000

 H         

     24   S      46             5.4471780    0.156284978695
     24   S      47             0.8245472    0.904690876670

     25   S      48             0.1831916    1.000000000000

 H         

     26   S      49             5.4471780    0.156284978695
     26   S      50             0.8245472    0.904690876670

     27   S      51             0.1831916    1.000000000000

 H         

     28   S      52             5.4471780    0.156284978695
     28   S      53             0.8245472    0.904690876670

     29   S      54             0.1831916    1.000000000000

 H         

     30   S      55             5.4471780    0.156284978695
     30   S      56             0.8245472    0.904690876670

     31   S      57             0.1831916    1.000000000000

 H         

     32   S      58             5.4471780    0.156284978695
     32   S      59             0.8245472    0.904690876670

     33   S      60             0.1831916    1.000000000000

 H         

     34   S      61             5.4471780    0.156284978695
     34   S      62             0.8245472    0.904690876670

     35   S      63             0.1831916    1.000000000000

 H         

     36   S      64             5.4471780    0.156284978695
     36   S      65             0.8245472    0.904690876670

     37   S      66             0.1831916    1.000000000000

 TOTAL NUMBER OF BASIS SET SHELLS             =   37
 NUMBER OF CARTESIAN GAUSSIAN BASIS FUNCTIONS =   79
 NUMBER OF ELECTRONS                          =   52
 CHARGE OF MOLECULE                           =    0
 SPIN MULTIPLICITY                            =    1
 NUMBER OF OCCUPIED ORBITALS (ALPHA)          =   26
 NUMBER OF OCCUPIED ORBITALS (BETA )          =   26
 TOTAL NUMBER OF ATOMS                        =   15
 THE NUCLEAR REPULSION ENERGY IS      288.9612770366

 SELECTED MURRAY-HANDY-LAMING RADIAL GRID

 LEGACY BECKE'S FUZZY CELL METHOD

 SELECTED ORIGINAL BECKE'S PARTITION FUNCTION

     LEBEDEV GRID-BASED DFT OPTIONS
     ------------------------------
     DFTTYP=B3LYP   
     NRAD  =      96     NLEB  =     302
     NRAD0 =      24     NLEB0 =     110
     SWOFF =    5.00E-03 (PURE SCF -> DFT)
     SWITCH=    3.00E-04 (COARSE -> TIGHT GRID)
     THRESH=    0.00E+00 GTHRE=    1.00E+00

 GRIMME'S EMPIRICAL DISPERSION CORRECTION= F

     $CONTRL OPTIONS
     ---------------
 SCFTYP=RHF          RUNTYP=ENERGY       EXETYP=RUN     
 MPLEVL=       0     CITYP =NONE         CCTYP =NONE         VBTYP =NONE    
 DFTTYP=B3LYP        TDDFT =NONE    
 MULT  =       1     ICHARG=       0     NZVAR =       0     COORD =UNIQUE  
 PP    =NONE         RELWFN=NONE         LOCAL =NONE         NUMGRD=       F
 ISPHER=      -1     NOSYM =       0     MAXIT =      60     UNITS =ANGS    
 PLTORB=       F     MOLPLT=       F     AIMPAC=       F     FRIEND=        
 NPRINT=       7     IREST =       0     GEOM  =INPUT   
 NORMF =       0     NORMP =       0     ITOL  =      20     ICUT  =       9
 INTTYP=BEST         GRDTYP=BEST         QMTTOL= 1.0E-06

     $SYSTEM OPTIONS
     ---------------
  REPLICATED MEMORY=    30000000 WORDS (ON EVERY NODE).
 DISTRIBUTED MEMDDI=        1000 MILLION WORDS IN AGGREGATE,
 MEMDDI DISTRIBUTED OVER   6 PROCESSORS IS   166666666 WORDS/PROCESSOR.
 TOTAL MEMORY REQUESTED ON EACH PROCESSOR=   196666666 WORDS.
 TIMLIM=      525600.00 MINUTES, OR     365.0 DAYS.
 PARALL= T  BALTYP=  DLB     KDIAG=    0  COREFL= F
 MXSEQ2=     300 MXSEQ3=     150  mem10=         0

     INPUT FOR POTENTIAL-DERIVED CHARGES 
     -----------------------------------
     VDWSCL=    1.40   RMAX=    3.00   DELR=    0.80
     VDWINC=    0.20 PTDENS=    0.28
     LAYER =       4  NFREQ=      30 MAXPDC=   10000
     CONSTR=CHARGE    UNITS=ANGS      PTSEL=GEODESIC
     CENTER=  0.0000  0.0000  0.0000
     DPOLE =  0.0000  0.0000  0.0000
     QPOLE =  0.0000  0.0000  0.0000  0.0000  0.0000  0.0000


          ----------------
          PROPERTIES INPUT
          ----------------

     MOMENTS            FIELD           POTENTIAL          DENSITY
 IEMOM =       1   IEFLD =       0   IEPOT =       1   IEDEN =       0
 WHERE =COMASS     WHERE =NUCLEI     WHERE =PDC        WHERE =NUCLEI  
 OUTPUT=BOTH       OUTPUT=BOTH       OUTPUT=BOTH       OUTPUT=BOTH    
 IEMINT=       0   IEFINT=       0                     IEDINT=       0
                                                       MORB  =       0
          EXTRAPOLATION IN EFFECT
          DIIS IN EFFECT
 ORBITAL PRINTING OPTION: NPREO=     1    79     2     1

     -------------------------------
     INTEGRAL TRANSFORMATION OPTIONS
     -------------------------------
     NWORD  =            0
     CUTOFF = 1.0E-09     MPTRAN =       0
     DIRTRF =       T     AOINTS =DUP     

          ----------------------
          INTEGRAL INPUT OPTIONS
          ----------------------
 NOPK  =       1 NORDER=       0 SCHWRZ=       T

     ------------------------------------------
     THE POINT GROUP IS C1 , NAXIS= 0, ORDER= 1
     ------------------------------------------

     DIMENSIONS OF THE SYMMETRY SUBSPACES ARE
 A   =   79

 ..... DONE SETTING UP THE RUN .....
 CPU     0: STEP CPU TIME=     0.02 TOTAL CPU TIME=          0.0 (      0.0 MIN)
 TOTAL WALL CLOCK TIME=          0.0 SECONDS, CPU UTILIZATION IS    50.00%

          ********************
          1 ELECTRON INTEGRALS
          ********************
 ...... END OF ONE-ELECTRON INTEGRALS ......
 CPU     0: STEP CPU TIME=     0.01 TOTAL CPU TIME=          0.0 (      0.0 MIN)
 TOTAL WALL CLOCK TIME=          0.1 SECONDS, CPU UTILIZATION IS    60.00%

          -------------
          GUESS OPTIONS
          -------------
          GUESS =HUCKEL            NORB  =       0          NORDER=       0
          MIX   =       F          PRTMO =       F          PUNMO =       F
          TOLZ  = 1.0E-08          TOLE  = 1.0E-05
          SYMDEN=       F          PURIFY=       F

 INITIAL GUESS ORBITALS GENERATED BY HUCKEL   ROUTINE.
 HUCKEL GUESS REQUIRES     63748 WORDS.

 SYMMETRIES FOR INITIAL GUESS ORBITALS FOLLOW.   BOTH SET(S).
    26 ORBITALS ARE OCCUPIED (    7 CORE ORBITALS).
     8=A        9=A       10=A       11=A       12=A       13=A       14=A   
    15=A       16=A       17=A       18=A       19=A       20=A       21=A   
    22=A       23=A       24=A       25=A       26=A       27=A       28=A   
    29=A       30=A       31=A       32=A       33=A       34=A       35=A   
    36=A   
 ...... END OF INITIAL ORBITAL SELECTION ......
 CPU     0: STEP CPU TIME=     0.03 TOTAL CPU TIME=          0.1 (      0.0 MIN)
 TOTAL WALL CLOCK TIME=          0.1 SECONDS, CPU UTILIZATION IS    85.71%

                    ----------------------
                    AO INTEGRAL TECHNOLOGY
                    ----------------------
     S,P,L SHELL ROTATED AXIS INTEGRALS, REPROGRAMMED BY
        KAZUYA ISHIMURA (IMS) AND JOSE SIERRA (SYNSTAR).
     S,P,D,L SHELL ROTATED AXIS INTEGRALS PROGRAMMED BY
        KAZUYA ISHIMURA (INSTITUTE FOR MOLECULAR SCIENCE).
     S,P,D,F,G SHELL TO TOTAL QUARTET ANGULAR MOMENTUM SUM 5,
        ERIC PROGRAM BY GRAHAM FLETCHER (ELORET AND NASA ADVANCED
        SUPERCOMPUTING DIVISION, AMES RESEARCH CENTER).
     S,P,D,F,G,L SHELL GENERAL RYS QUADRATURE PROGRAMMED BY
        MICHEL DUPUIS (PACIFIC NORTHWEST NATIONAL LABORATORY).

          --------------------
          2 ELECTRON INTEGRALS
          --------------------

 DIRECT SCF METHOD SKIPS INTEGRAL STORAGE ON DISK.
 DIRECT TRANSFORMATION SKIPS AO INTEGRAL STORAGE ON DISK.
  ...... END OF TWO-ELECTRON INTEGRALS .....
 CPU     0: STEP CPU TIME=     0.01 TOTAL CPU TIME=          0.1 (      0.0 MIN)
 TOTAL WALL CLOCK TIME=          0.1 SECONDS, CPU UTILIZATION IS    87.50%

          --------------------------
             R-B3LYP SCF CALCULATION
          --------------------------

     NUCLEAR ENERGY =       288.9612770366
     MAXIT =   60     NPUNCH=    2
     EXTRAP=T  DAMP=F  SHIFT=F  RSTRCT=F  DIIS=T  DEM=F  SOSCF=F
         DENSITY MATRIX CONVERGENCE THRESHOLD=  2.00E-05
     COARSE -> FINE DFT GRID SWITCH THRESHOLD=  3.00E-04 (SWITCH IN $DFT)
                   HF -> DFT SWITCH THRESHOLD=  5.00E-03 (SWOFF IN $DFT)
     MEMORY REQUIRED FOR RHF ITERS=    593913 WORDS.

 DIRECT SCF CALCULATION, SCHWRZ=T   FDIFF=T,  DIRTHR=  0.00E+00 NITDIR=10
 SCHWARZ INEQUALITY OVERHEAD:      3089 INTEGRALS, T=        0.00

 DFT CODE IS SWITCHING FROM THE FINE GRID NRAD= 96,  NLEB=  302
                      TO THE COARSE GRID NRAD0= 24, NLEB0=  110

     EXCHANGE FUNCTIONAL   =B88&HFX   
     CORRELATION FUNCTIONAL=LYP88&VWN5
     DFT THRESHOLD         =.920E-08
     GRID CHANGE THRESHOLD =.300E-03
 FOR AN EULER-MACLAURIN QUADRATURE USING  96 RADIAL POINTS:
 SMALLEST GAUSSIAN PRIMITIVE EXPONENT=        0.1831915800 OF TYPE -S-
 ON ATOM NUMBER   2 HAS RADIAL NORMALIZATION=  1.000000
  LARGEST GAUSSIAN PRIMITIVE EXPONENT=      242.7660000000 OF TYPE -S-
 ON ATOM NUMBER   6 HAS RADIAL NORMALIZATION=  1.000000
 DFT IS SWITCHED OFF, PERFORMING PURE SCF UNTIL SWOFF THRESHOLD IS REACHED.

                                                                                   NONZERO     BLOCKS
 ITER EX DEM     TOTAL ENERGY        E CHANGE  DENSITY CHANGE    DIIS ERROR      INTEGRALS    SKIPPED
          * * *   INITIATING DIIS PROCEDURE   * * *
   1  0  0     -300.4326921391  -300.4326921391   0.829036451   0.446001880        3982889      84008
   2  1  0     -301.1041654325    -0.6714732933   0.232481118   0.140397743        3974547      87111
   3  2  0     -301.1540314204    -0.0498659879   0.093385906   0.109482344        3949672      92633
   4  3  0     -301.1903546009    -0.0363231805   0.027640701   0.006263721        3916036      97047
   5  4  0     -301.1909830740    -0.0006284731   0.007082352   0.003033360        3842097     104505
   6  5  0     -301.1910752860    -0.0000922120   0.001609719   0.000809217        3755102     110247
 CONVERGED TO SWOFF, SO DFT CALCULATION IS NOW SWITCHED ON.
          * * *   INITIATING DIIS PROCEDURE   * * *
   7  6  0     -302.9490149271    -1.7579396411   0.094961390   0.092071306        3984279      83332
   8  7  0     -302.9718653470    -0.0228504199   0.048093114   0.026789064        3955138      91825
   9  8  0     -302.9744133416    -0.0025479946   0.023692565   0.020693137        3912526      96539
  10  9  0     -302.9768929237    -0.0024795820   0.003521511   0.005118778        3864598     101582
  11 10  0     -302.9770516408    -0.0001587172   0.000762618   0.000555294        3746198     111230
  12 11  0     -302.9770546469    -0.0000030061   0.000293585   0.000226327        3575654     121727
 DFT CODE IS SWITCHING BACK TO THE FINE GRID
          * * *   INITIATING DIIS PROCEDURE   * * *
  13 12  0     -302.9776600099    -0.0006053630   0.002224791   0.001503612        3985097      82889
  14 13  0     -302.9776698812    -0.0000098713   0.000730104   0.000505802        3717681     113352
  15 14  0     -302.9776697292     0.0000001519   0.000420220   0.000597114        3568902     123566
  16 15  0     -302.9776713585    -0.0000016293   0.000051977   0.000023423        3502956     127822
  17 16  0     -302.9776713603    -0.0000000018   0.000020769   0.000018350        3186722     144479
  18 17  0     -302.9776713620    -0.0000000018   0.000004812   0.000002368        3030779     152796

          -----------------
          DENSITY CONVERGED
          -----------------
     TIME TO FORM FOCK OPERATORS=       8.7 SECONDS (       0.5 SEC/ITER)
     FOCK TIME ON FIRST ITERATION=       0.1, LAST ITERATION=       1.2
     TIME TO SOLVE SCF EQUATIONS=       0.2 SECONDS (       0.0 SEC/ITER)

 FINAL R-B3LYP ENERGY IS     -302.9776713620 AFTER  18 ITERATIONS
 DFT EXCHANGE + CORRELATION ENERGY =       -35.2479816490
 TOTAL ELECTRON NUMBER             =        52.0001252065

          ------------
          EIGENVECTORS
          ------------

                      1          2          3          4          5
                  -14.3054   -14.2199   -10.1732   -10.1462   -10.1335
                     A          A          A          A          A   
    1  C  1  S   -0.000015   0.000053  -0.000290   0.000071  -0.005460
    2  C  1  S   -0.000050   0.000369  -0.000173  -0.000012  -0.002617
    3  C  1  X   -0.000132  -0.000305   0.000018  -0.000009   0.001363
    4  C  1  Y    0.000081   0.000278   0.000129   0.000060  -0.000042
    5  C  1  Z   -0.000124   0.000073   0.000093   0.000026   0.000091
    6  C  1  S    0.001175   0.000116   0.000378  -0.000386   0.005701
    7  C  1  X    0.000132   0.001617   0.000507  -0.000125  -0.005461
    8  C  1  Y   -0.000856  -0.002535  -0.001156   0.000413  -0.001395
    9  C  1  Z   -0.000214  -0.001113  -0.000139   0.000138  -0.001496
   10  H  2  S   -0.000027  -0.000188   0.000123  -0.000022  -0.000778
   11  H  2  S   -0.000530   0.000022  -0.000778   0.000346  -0.001335
   12  C  3  S    0.000069  -0.000165  -0.001336  -0.002049  -0.015076
   13  C  3  S    0.000248  -0.000977  -0.001459  -0.000489  -0.002934
   14  C  3  X    0.000659   0.000006  -0.000364   0.000550   0.001029
   15  C  3  Y   -0.000236  -0.000260  -0.000276  -0.000129  -0.000496
   16  C  3  Z    0.000017   0.000146   0.000288  -0.000020  -0.000075
   17  C  3  S   -0.007427   0.011196   0.011626   0.000723   0.011596
   18  C  3  X    0.001879  -0.006482  -0.006009  -0.000450  -0.011919
   19  C  3  Y    0.001082   0.005687   0.002439  -0.002415   0.004682
   20  C  3  Z   -0.001395  -0.002700  -0.000207   0.002269  -0.002773
   21  C  4  S    0.000239  -0.000341  -0.001438  -0.043713   0.984722
   22  C  4  S    0.001045  -0.000845  -0.001410  -0.008651   0.108159
   23  C  4  X   -0.000129  -0.000387   0.001652   0.001637  -0.000669
   24  C  4  Y   -0.000921  -0.000626  -0.000485  -0.001953   0.000295
   25  C  4  Z    0.000924   0.000589  -0.000095   0.001407   0.000316
   26  C  4  S   -0.015717   0.026532  -0.001425   0.034956  -0.079548
   27  C  4  X    0.016944  -0.023387  -0.014428  -0.015561   0.004036
   28  C  4  Y   -0.001860  -0.012644  -0.002762   0.012956  -0.009910
   29  C  4  Z   -0.003465   0.020042   0.007236  -0.007757   0.007178
   30  C  5  S   -0.000477   0.000214  -0.004159   0.984654   0.043449
   31  C  5  S   -0.001923   0.000961  -0.002165   0.107093   0.000771
   32  C  5  X   -0.001488  -0.001334  -0.000970  -0.000757  -0.002133
   33  C  5  Y   -0.000092   0.000107   0.000879  -0.001145   0.001062
   34  C  5  Z    0.000565   0.000353  -0.000540   0.001339  -0.000455
   35  C  5  S    0.032295  -0.009907   0.002662  -0.078645   0.027437
   36  C  5  X   -0.008448   0.005650   0.001278  -0.009261   0.013983
   37  C  5  Y   -0.016000   0.010694  -0.004863   0.013183  -0.007954
   38  C  5  Z    0.018228  -0.012417   0.004309  -0.009923   0.003950
   39  N  6  S    0.985256   0.000692   0.000328   0.000271   0.000122
   40  N  6  S    0.112573   0.000048   0.000767   0.000536   0.000619
   41  N  6  X    0.002152   0.000219   0.000983   0.000333   0.000072
   42  N  6  Y   -0.000973   0.000301   0.000121  -0.000210  -0.000178
   43  N  6  Z    0.000287  -0.000381  -0.000436   0.000104   0.000180
   44  N  6  S   -0.084121  -0.000544   0.003575   0.004679  -0.006423
   45  N  6  X   -0.017968  -0.001955  -0.006832  -0.001966  -0.003374
   46  N  6  Y    0.007468   0.003821   0.001713   0.002732   0.003461
   47  N  6  Z   -0.001691  -0.003047   0.000507  -0.002075  -0.002498
   48  C  7  S   -0.000318  -0.000056   0.985153   0.003476   0.001000
   49  C  7  S   -0.001282  -0.000404   0.104112  -0.001471  -0.001588
   50  C  7  X   -0.000984   0.001883   0.000977  -0.000358  -0.000416
   51  C  7  Y    0.001378  -0.000603   0.000990  -0.000638  -0.000251
   52  C  7  Z   -0.001037  -0.000000  -0.001283   0.000734   0.000344
   53  C  7  S    0.023345   0.027121  -0.050351   0.009072   0.010034
   54  C  7  X    0.005472   0.020021   0.000380   0.010514   0.009411
   55  C  7  Y    0.012577   0.003173  -0.000758   0.005386   0.005936
   56  C  7  Z   -0.014073  -0.009444   0.000600  -0.008555  -0.008661
   57  N  8  S   -0.000607   0.985530   0.000523   0.000145   0.000404
   58  N  8  S   -0.000030   0.113765   0.001339   0.000747   0.001682
   59  N  8  X    0.000658  -0.002894   0.001129  -0.000163  -0.000354
   60  N  8  Y    0.000004   0.003950   0.000187  -0.000170   0.000154
   61  N  8  Z   -0.000215  -0.002984  -0.000564   0.000229  -0.000003
   62  N  8  S   -0.002011  -0.092166  -0.002272  -0.008946  -0.002700
   63  N  8  X    0.002412   0.011790   0.000484   0.005004   0.004458
   64  N  8  Y   -0.000939  -0.019033  -0.004222  -0.002402  -0.001988
   65  N  8  Z    0.000158   0.014995   0.004065   0.000743   0.000632
   66  H  9  S   -0.000260  -0.001342  -0.000887   0.000068  -0.001250
   67  H  9  S    0.000500  -0.001755  -0.000958   0.001850  -0.001537
   68  H 10  S    0.000380   0.000346  -0.000228  -0.000071  -0.000818
   69  H 10  S    0.000407   0.000591   0.000297  -0.000300   0.003407
   70  H 11  S    0.000696  -0.001581   0.000519  -0.003251  -0.001533
   71  H 11  S    0.006619  -0.005765   0.003220   0.009196   0.000622
   72  H 12  S   -0.000874  -0.001137  -0.002668  -0.001721  -0.000743
   73  H 12  S    0.005073   0.000338  -0.000491  -0.000193   0.000136
   74  H 13  S    0.000315   0.000438  -0.003175   0.001086   0.001036
   75  H 13  S    0.004793   0.005491   0.013065   0.006034   0.005537
   76  H 14  S   -0.000102  -0.000299  -0.000166   0.000067  -0.000120
   77  H 14  S   -0.000382  -0.000703   0.000045   0.000109   0.002711
   78  H 15  S    0.000055   0.000544   0.000140   0.000012  -0.000938
   79  H 15  S    0.000268   0.001140   0.000462  -0.000305   0.000767

                      6          7          8          9         10
                  -10.1102   -10.0918    -1.0081    -0.8653    -0.7706
                     A          A          A          A          A   
    1  C  1  S   -0.016281   0.986135  -0.002075  -0.012764  -0.091822
    2  C  1  S   -0.004456   0.112033   0.003559   0.013792   0.092524
    3  C  1  X   -0.000601  -0.000319  -0.001473  -0.007672  -0.030107
    4  C  1  Y   -0.000013   0.000068  -0.000944  -0.002148  -0.004223
    5  C  1  Z   -0.000354  -0.000094  -0.000553  -0.005145  -0.032409
    6  C  1  S    0.025997  -0.088869  -0.009631   0.017159   0.211500
    7  C  1  X   -0.008624   0.003613   0.001440  -0.001541   0.008536
    8  C  1  Y   -0.002245   0.000094   0.009064   0.007390  -0.001766
    9  C  1  Z   -0.010918   0.003177   0.003186   0.003687   0.001763
   10  H  2  S   -0.001598  -0.000236   0.001356   0.006565   0.044553
   11  H  2  S    0.000263   0.016214   0.007285   0.006733  -0.005047
   12  C  3  S    0.986783   0.015626  -0.009842  -0.030247  -0.141131
   13  C  3  S    0.116576   0.000298   0.005586   0.029013   0.130620
   14  C  3  X    0.000203   0.000342  -0.010903  -0.017605  -0.024344
   15  C  3  Y   -0.000091  -0.000109   0.001552  -0.002087   0.009284
   16  C  3  Z    0.000233  -0.000022   0.002362   0.010125   0.024773
   17  C  3  S   -0.115556   0.012298   0.043285   0.042945   0.408682
   18  C  3  X    0.008443   0.010152  -0.004722   0.012596  -0.029273
   19  C  3  Y   -0.000363   0.002741  -0.016559  -0.018581   0.006072
   20  C  3  Z   -0.009227   0.008228   0.017131   0.014419   0.013472
   21  C  4  S    0.014746   0.005265  -0.066842  -0.079129  -0.100946
   22  C  4  S   -0.000277  -0.001225   0.070719   0.087084   0.110586
   23  C  4  X   -0.001618  -0.001596  -0.056615  -0.020904   0.046163
   24  C  4  Y    0.000044   0.000081  -0.006274  -0.050501   0.037280
   25  C  4  Z    0.000618  -0.000407   0.024287   0.057259  -0.044468
   26  C  4  S    0.021017   0.003262   0.100774   0.092579   0.203726
   27  C  4  X    0.031111   0.008397  -0.045932   0.051719  -0.059853
   28  C  4  Y   -0.002069  -0.003052   0.026993   0.024503   0.011883
   29  C  4  Z   -0.006367   0.001664  -0.011832  -0.040315   0.007241
   30  C  5  S    0.002688   0.000165  -0.077931   0.033085  -0.082659
   31  C  5  S   -0.000337  -0.000165   0.088121  -0.038033   0.091482
   32  C  5  X   -0.000480   0.000161  -0.032806   0.082117   0.030133
   33  C  5  Y   -0.000016   0.000143  -0.044280  -0.012821  -0.020619
   34  C  5  Z    0.000039   0.000186   0.053522  -0.013175   0.011274
   35  C  5  S    0.008654   0.004604   0.049490  -0.031828   0.143948
   36  C  5  X   -0.000151   0.000891  -0.001151  -0.018799   0.008089
   37  C  5  Y   -0.005645  -0.002702   0.021712  -0.047754   0.011659
   38  C  5  Z    0.005564   0.000853  -0.020852   0.052824  -0.012548
   39  N  6  S    0.000042   0.000013  -0.155183   0.148987  -0.000721
   40  N  6  S    0.000106   0.000058   0.137103  -0.135636  -0.000573
   41  N  6  X   -0.000276  -0.000098   0.049739   0.023295   0.028173
   42  N  6  Y    0.000152  -0.000056  -0.028711  -0.024869   0.048073
   43  N  6  Z   -0.000015  -0.000028   0.012722   0.016742  -0.055737
   44  N  6  S   -0.003608  -0.001018   0.479180  -0.493359   0.016058
   45  N  6  X   -0.000153   0.000084   0.097980  -0.012691   0.019636
   46  N  6  Y   -0.000409   0.000370  -0.049926  -0.011525   0.030118
   47  N  6  Z    0.000280   0.000167   0.018303   0.014892  -0.035676
   48  C  7  S    0.000951   0.000273  -0.105153  -0.032038   0.083284
   49  C  7  S   -0.000912  -0.000242   0.120581   0.034760  -0.089716
   50  C  7  X   -0.000284  -0.000272   0.050732   0.124003  -0.039918
   51  C  7  Y   -0.000096   0.000071   0.047169  -0.065297   0.009414
   52  C  7  Z    0.000210   0.000069  -0.062232   0.024976   0.003661
   53  C  7  S    0.002986  -0.000705   0.072162   0.038771  -0.177846
   54  C  7  X    0.003647  -0.000056  -0.048506   0.001566  -0.015139
   55  C  7  Y    0.001779   0.000754  -0.028536  -0.003039  -0.008620
   56  C  7  Z   -0.002772  -0.000986   0.043287   0.002527   0.013238
   57  N  8  S    0.000005   0.000043  -0.101048  -0.153944   0.049969
   58  N  8  S   -0.000391   0.000352   0.085039   0.135290  -0.046299
   59  N  8  X   -0.000379   0.000364  -0.055426  -0.049420   0.087741
   60  N  8  Y    0.000008  -0.000125   0.055678   0.065321  -0.002190
   61  N  8  Z    0.000305  -0.000101  -0.037106  -0.048315  -0.024155
   62  N  8  S    0.001329  -0.001247   0.313724   0.497237  -0.165731
   63  N  8  X   -0.000108  -0.002850  -0.057170  -0.048519   0.052172
   64  N  8  Y    0.000949   0.000129   0.067217   0.083430  -0.017955
   65  N  8  Z   -0.001586   0.000753  -0.048063  -0.066488   0.003533
   66  H  9  S    0.000932  -0.001229   0.004662   0.012162   0.066328
   67  H  9  S    0.015972   0.000891   0.003223   0.005569  -0.001650
   68  H 10  S    0.001316  -0.000886   0.000716   0.011323   0.062575
   69  H 10  S    0.016481   0.001582  -0.006737  -0.006115  -0.006099
   70  H 11  S    0.000718   0.000036   0.017579  -0.011866   0.042080
   71  H 11  S    0.001971   0.000667  -0.015473   0.026979   0.004128
   72  H 12  S    0.000278   0.000074   0.064750  -0.096861   0.000319
   73  H 12  S    0.000448   0.000077   0.020922  -0.030580   0.000498
   74  H 13  S    0.000348   0.000152   0.021638   0.005567  -0.042199
   75  H 13  S    0.002050   0.000593  -0.035193  -0.004865  -0.016481
   76  H 14  S   -0.001173  -0.000305   0.001089   0.004881   0.040475
   77  H 14  S   -0.000659   0.015084   0.001952   0.000090  -0.004388
   78  H 15  S   -0.001521  -0.000101   0.000795   0.005187   0.044382
   79  H 15  S    0.000772   0.016246  -0.003513  -0.004164   0.000905

                     11         12         13         14         15
                   -0.7181    -0.6229    -0.6059    -0.5636    -0.5343
                     A          A          A          A          A   
    1  C  1  S    0.112111  -0.146171  -0.013024   0.014825   0.040239
    2  C  1  S   -0.108324   0.136495   0.011438  -0.013600  -0.037132
    3  C  1  X    0.012393   0.047349   0.000073  -0.000605  -0.014059
    4  C  1  Y    0.004676   0.009945  -0.006359   0.001539  -0.021114
    5  C  1  Z    0.023461   0.047553   0.016803  -0.025148  -0.083838
    6  C  1  S   -0.297753   0.476100   0.044373  -0.054617  -0.158745
    7  C  1  X    0.003655   0.008433  -0.009684   0.000578  -0.000038
    8  C  1  Y   -0.000607   0.002449   0.001177   0.000235  -0.009308
    9  C  1  Z    0.004020   0.008339   0.006549  -0.013602  -0.040425
   10  H  2  S   -0.056475   0.093196   0.016804  -0.019837  -0.048802
   11  H  2  S   -0.002920   0.020600   0.014141  -0.005749  -0.022505
   12  C  3  S    0.083456   0.089633   0.028947  -0.030887  -0.084191
   13  C  3  S   -0.080638  -0.083937  -0.026038   0.032623   0.074263
   14  C  3  X   -0.049200   0.103133  -0.002345   0.024510   0.093202
   15  C  3  Y    0.002147   0.014939  -0.024663   0.014406  -0.034561
   16  C  3  Z   -0.030750   0.066279   0.037879  -0.042984  -0.078797
   17  C  3  S   -0.224449  -0.304421  -0.109646   0.071544   0.339734
   18  C  3  X   -0.007852   0.029538   0.005485   0.026920   0.035457
   19  C  3  Y    0.005512   0.007625  -0.024191   0.012646  -0.019693
   20  C  3  Z   -0.010125   0.014853   0.022636  -0.029946  -0.036040
   21  C  4  S   -0.066545   0.064787  -0.005254   0.058228   0.092878
   22  C  4  S    0.071027  -0.067186   0.001303  -0.060683  -0.098313
   23  C  4  X   -0.112032  -0.109511   0.019475   0.046922   0.032486
   24  C  4  Y    0.049743   0.032129  -0.121968   0.048293  -0.058787
   25  C  4  Z   -0.022569   0.025386   0.116715  -0.067874   0.022352
   26  C  4  S    0.151056  -0.178752   0.027102  -0.203280  -0.303987
   27  C  4  X   -0.022128  -0.035323   0.024496   0.091845  -0.031531
   28  C  4  Y    0.003620   0.002447  -0.035856   0.002427  -0.032007
   29  C  4  Z    0.002889   0.021960   0.029707  -0.036329   0.021283
   30  C  5  S   -0.127805  -0.057791   0.046211  -0.076819   0.020404
   31  C  5  S    0.138260   0.061538  -0.051777   0.076946  -0.022502
   32  C  5  X    0.023551  -0.064046  -0.087863  -0.036450  -0.204983
   33  C  5  Y   -0.036635   0.002479   0.044193   0.139484  -0.004522
   34  C  5  Z    0.027005   0.022333  -0.014658  -0.126423   0.060600
   35  C  5  S    0.299269   0.158246  -0.121136   0.298081  -0.090635
   36  C  5  X    0.012872  -0.007603  -0.051169  -0.007357  -0.061952
   37  C  5  Y   -0.028047  -0.005172   0.011111   0.048015   0.004210
   38  C  5  Z    0.020451   0.011486   0.005910  -0.045256   0.010728
   39  N  6  S    0.035413   0.018419  -0.043704   0.026153  -0.022523
   40  N  6  S   -0.034077  -0.018236   0.043381  -0.023708   0.019178
   41  N  6  X    0.110644   0.139992  -0.175630  -0.074120   0.215248
   42  N  6  Y    0.058462   0.018023   0.182159   0.141876   0.011843
   43  N  6  Z   -0.092676  -0.059641  -0.122341  -0.116270  -0.084684
   44  N  6  S   -0.125755  -0.070382   0.166414  -0.131382   0.115069
   45  N  6  X    0.081639   0.116399  -0.147582  -0.081261   0.200588
   46  N  6  Y    0.037773   0.014084   0.144360   0.131280   0.012258
   47  N  6  Z   -0.062567  -0.049295  -0.094346  -0.103634  -0.079948
   48  C  7  S    0.086148   0.009151   0.111172  -0.048930   0.026064
   49  C  7  S   -0.095357  -0.009859  -0.126304   0.053317  -0.026017
   50  C  7  X    0.034702   0.078879   0.084833   0.070679   0.163742
   51  C  7  Y   -0.012497  -0.016381  -0.041146  -0.174582   0.021642
   52  C  7  Z    0.000814  -0.006267   0.014251   0.148034  -0.077981
   53  C  7  S   -0.208230  -0.024347  -0.302303   0.181529  -0.092762
   54  C  7  X    0.009368   0.037782   0.027877   0.005052   0.092336
   55  C  7  Y   -0.003805  -0.000231  -0.014822  -0.063142   0.011405
   56  C  7  Z    0.000423  -0.010266   0.006086   0.059765  -0.043907
   57  N  8  S    0.010859  -0.004618  -0.090858  -0.036398  -0.015336
   58  N  8  S   -0.009847   0.006792   0.082361   0.033647   0.019253
   59  N  8  X    0.043869  -0.055717   0.082309  -0.134391  -0.083211
   60  N  8  Y    0.020476   0.004040   0.032127  -0.067913  -0.007367
   61  N  8  Z   -0.036167   0.020881  -0.056109   0.106729   0.023025
   62  N  8  S   -0.034173   0.012590   0.339972   0.141574   0.047608
   63  N  8  X    0.013431  -0.028183   0.036883  -0.088567  -0.049334
   64  N  8  Y    0.008959   0.002921   0.039036  -0.037624  -0.003980
   65  N  8  Z   -0.015973   0.012840  -0.048768   0.062811   0.010641
   66  H  9  S   -0.040840  -0.061611  -0.038186   0.045686   0.083278
   67  H  9  S   -0.003850  -0.017753  -0.013225   0.025797   0.037012
   68  H 10  S   -0.044944  -0.062484  -0.015497   0.026089   0.099201
   69  H 10  S   -0.004054  -0.013743  -0.003375   0.012461   0.049775
   70  H 11  S    0.069293   0.038223  -0.018781   0.159176  -0.047919
   71  H 11  S    0.025898   0.015023   0.004093   0.103150  -0.034503
   72  H 12  S   -0.054168  -0.075442   0.176671   0.059832  -0.093505
   73  H 12  S   -0.020058  -0.038682   0.098765   0.034466  -0.062516
   74  H 13  S   -0.062474  -0.027685  -0.105387   0.100786  -0.110855
   75  H 13  S   -0.021063  -0.012201  -0.049349   0.053545  -0.071751
   76  H 14  S   -0.059067   0.104348   0.006866  -0.007358  -0.024234
   77  H 14  S   -0.008340   0.034138   0.004852  -0.002308  -0.006409
   78  H 15  S   -0.056622   0.098075   0.007651  -0.013682  -0.053551
   79  H 15  S   -0.001944   0.027884  -0.000702  -0.004341  -0.030143

                     16         17         18         19         20
                   -0.4544    -0.4344    -0.4321    -0.4098    -0.3971
                     A          A          A          A          A   
    1  C  1  S   -0.004770   0.003330   0.008061   0.003652  -0.005766
    2  C  1  S    0.004156  -0.001887  -0.007058  -0.004622   0.005961
    3  C  1  X    0.071974  -0.072501  -0.133897   0.088520  -0.114861
    4  C  1  Y    0.107376   0.060932   0.095366  -0.138962  -0.159192
    5  C  1  Z   -0.037618   0.011588   0.009568  -0.074888   0.137311
    6  C  1  S    0.017916  -0.015968  -0.035451  -0.011815   0.031441
    7  C  1  X    0.050316  -0.047451  -0.096697   0.056106  -0.076725
    8  C  1  Y    0.075055   0.045402   0.071746  -0.102739  -0.128075
    9  C  1  Z   -0.031036   0.011954   0.010547  -0.056625   0.107172
   10  H  2  S   -0.068714  -0.010894  -0.018810   0.009353   0.154647
   11  H  2  S   -0.051940  -0.008314  -0.010621   0.010563   0.115745
   12  C  3  S    0.000119  -0.006402  -0.010961   0.000951  -0.005860
   13  C  3  S   -0.002507   0.006461   0.011395  -0.001485   0.006431
   14  C  3  X    0.063635  -0.053569  -0.063150   0.123627  -0.125357
   15  C  3  Y    0.167893   0.085591   0.142454  -0.109909  -0.120252
   16  C  3  Z   -0.110522   0.051876   0.093672  -0.031426   0.066830
   17  C  3  S    0.005318   0.022088   0.038131  -0.000799   0.017242
   18  C  3  X    0.035851  -0.028706  -0.049115   0.087929  -0.088385
   19  C  3  Y    0.120492   0.063507   0.099308  -0.094944  -0.088470
   20  C  3  Z   -0.075128   0.032488   0.065433  -0.035579   0.044374
   21  C  4  S   -0.001058  -0.029234   0.021637   0.000046  -0.003437
   22  C  4  S    0.004615   0.034136  -0.025113   0.000696   0.008251
   23  C  4  X   -0.122023   0.028733   0.165244  -0.115054   0.084110
   24  C  4  Y    0.155039   0.076371   0.034383   0.073003   0.120862
   25  C  4  Z   -0.090236   0.010425   0.100341   0.079720  -0.151280
   26  C  4  S   -0.036552   0.083010  -0.062538   0.000301  -0.030811
   27  C  4  X   -0.059761   0.031006   0.089913  -0.058965   0.074354
   28  C  4  Y    0.099427   0.040993   0.050339   0.061769   0.067393
   29  C  4  Z   -0.061845   0.026980   0.074756   0.067376  -0.089094
   30  C  5  S    0.013899   0.016874   0.006642  -0.015030   0.004648
   31  C  5  S   -0.013253  -0.014144  -0.010755   0.017703  -0.005351
   32  C  5  X    0.173800  -0.084438  -0.028740   0.098595   0.081829
   33  C  5  Y   -0.087601  -0.133362   0.203192   0.058428  -0.046162
   34  C  5  Z    0.044431   0.231627  -0.032932   0.106950   0.024833
   35  C  5  S   -0.049251  -0.076923  -0.014940   0.051512   0.002483
   36  C  5  X    0.091911  -0.028255  -0.006978   0.055655   0.052860
   37  C  5  Y   -0.069532  -0.085406   0.152313   0.051756  -0.048462
   38  C  5  Z    0.050542   0.153298  -0.018468   0.096162   0.033165
   39  N  6  S    0.000383  -0.006823  -0.009579   0.012255  -0.007642
   40  N  6  S    0.002539   0.006060   0.007695  -0.010448   0.009246
   41  N  6  X   -0.147832   0.113919   0.068433  -0.003336  -0.030130
   42  N  6  Y    0.022828   0.191757   0.026372   0.174374   0.014229
   43  N  6  Z    0.038252  -0.122426   0.168888   0.184182   0.016613
   44  N  6  S   -0.022043   0.030081   0.056161  -0.065646   0.018028
   45  N  6  X   -0.140007   0.105963   0.068795   0.000297  -0.039625
   46  N  6  Y    0.023698   0.179577   0.035278   0.174445   0.021274
   47  N  6  Z    0.034229  -0.108817   0.158920   0.191729   0.014181
   48  C  7  S    0.017798  -0.006127  -0.002619   0.004660  -0.010551
   49  C  7  S   -0.016358   0.003360   0.005270  -0.006121   0.016940
   50  C  7  X    0.171343  -0.027007   0.070168  -0.000216   0.203251
   51  C  7  Y    0.009924  -0.118306   0.162248   0.110553  -0.001353
   52  C  7  Z   -0.053631   0.201344  -0.018465   0.142589  -0.044004
   53  C  7  S   -0.071321   0.046058  -0.000402  -0.019716   0.041192
   54  C  7  X    0.108394  -0.026094   0.057962   0.006008   0.145586
   55  C  7  Y    0.025600  -0.053877   0.107749   0.105775   0.013383
   56  C  7  Z   -0.050808   0.127327   0.017020   0.117592  -0.042223
   57  N  8  S   -0.000210   0.018598  -0.013434   0.003016   0.022290
   58  N  8  S    0.000380  -0.017327   0.013292  -0.003669  -0.016092
   59  N  8  X   -0.157934   0.001647   0.020468   0.048737  -0.202400
   60  N  8  Y    0.016810  -0.005059   0.069826   0.107012  -0.043003
   61  N  8  Z    0.043394   0.078020   0.076669   0.056267   0.121969
   62  N  8  S    0.005743  -0.081871   0.053395  -0.006684  -0.109012
   63  N  8  X   -0.108621  -0.002127   0.023523   0.035752  -0.135353
   64  N  8  Y    0.019396  -0.002842   0.062649   0.089794  -0.039405
   65  N  8  Z    0.023149   0.067091   0.062218   0.052089   0.097399
   66  H  9  S    0.125576   0.010117   0.025578  -0.020748  -0.102919
   67  H  9  S    0.100850  -0.005837   0.022696  -0.016554  -0.103052
   68  H 10  S   -0.056561  -0.061494  -0.103114   0.088898   0.043560
   69  H 10  S   -0.041213  -0.055761  -0.090904   0.069701   0.030808
   70  H 11  S   -0.068858  -0.194987   0.103026  -0.001105  -0.045439
   71  H 11  S   -0.036889  -0.161718   0.083923  -0.000094  -0.037791
   72  H 12  S    0.109282   0.001240  -0.047392   0.031135   0.039938
   73  H 12  S    0.089718   0.000208  -0.042839   0.030889   0.033123
   74  H 13  S   -0.113861   0.136030  -0.082720   0.025080  -0.104164
   75  H 13  S   -0.075686   0.111684  -0.074624   0.026886  -0.088972
   76  H 14  S    0.042798  -0.052670  -0.097395   0.076957  -0.079088
   77  H 14  S    0.033509  -0.045675  -0.079834   0.073214  -0.078717
   78  H 15  S    0.049890   0.041690   0.062118  -0.112814  -0.048576
   79  H 15  S    0.040684   0.034302   0.053308  -0.091786  -0.043594

                     21         22         23         24         25
                   -0.3578    -0.3386    -0.3305    -0.2608    -0.2405
                     A          A          A          A          A   
    1  C  1  S   -0.010458  -0.001675  -0.004447  -0.011951   0.002137
    2  C  1  S    0.011609   0.004469   0.005344   0.013375  -0.000582
    3  C  1  X   -0.221319   0.195915  -0.014037  -0.052966  -0.009363
    4  C  1  Y   -0.097874  -0.089389   0.248905  -0.027863   0.030571
    5  C  1  Z   -0.221534  -0.195160  -0.121032  -0.025741  -0.036615
    6  C  1  S    0.020286  -0.005231   0.012961   0.048327  -0.031111
    7  C  1  X   -0.164011   0.162039  -0.003249  -0.015380  -0.027456
    8  C  1  Y   -0.076177  -0.067779   0.201067  -0.028195   0.035288
    9  C  1  Z   -0.153880  -0.147466  -0.095839  -0.020208  -0.063586
   10  H  2  S   -0.013427  -0.093215  -0.187374   0.021084  -0.027625
   11  H  2  S   -0.028945  -0.094123  -0.201525   0.002814   0.048367
   12  C  3  S   -0.020303  -0.002158  -0.006731  -0.001253   0.013425
   13  C  3  S    0.015772   0.008989   0.007177  -0.000980  -0.005989
   14  C  3  X    0.226172  -0.154931  -0.000317   0.019956   0.065445
   15  C  3  Y    0.057856   0.075367  -0.230302   0.052719  -0.016037
   16  C  3  Z    0.234168   0.169425   0.127454   0.039131  -0.001299
   17  C  3  S    0.100923  -0.035148   0.028606   0.015558  -0.140168
   18  C  3  X    0.151451  -0.076469   0.002905   0.003068   0.072835
   19  C  3  Y    0.050014   0.061891  -0.180207   0.062212  -0.014823
   20  C  3  Z    0.190225   0.130791   0.096512   0.062467  -0.014142
   21  C  4  S    0.014540  -0.032383  -0.009976   0.001859   0.030487
   22  C  4  S   -0.010496   0.034153   0.011274  -0.000519  -0.039000
   23  C  4  X   -0.132004   0.211088   0.004716  -0.036582  -0.018892
   24  C  4  Y    0.074285   0.023550   0.001624  -0.094160   0.110085
   25  C  4  Z    0.070746  -0.044687  -0.048280  -0.095680  -0.105546
   26  C  4  S   -0.073814   0.128043   0.035090  -0.020509  -0.117262
   27  C  4  X   -0.115574   0.190286  -0.001867  -0.059034   0.100645
   28  C  4  Y    0.053521   0.017627  -0.004217  -0.124673  -0.026519
   29  C  4  Z    0.055460  -0.050021  -0.036386  -0.121199  -0.009769
   30  C  5  S   -0.018438   0.015594  -0.008033  -0.000265  -0.031920
   31  C  5  S    0.021372  -0.017830   0.008560   0.000313   0.029160
   32  C  5  X    0.069854  -0.042916   0.041330   0.025680   0.087509
   33  C  5  Y   -0.048640   0.024605  -0.004819   0.076854  -0.073626
   34  C  5  Z   -0.006800  -0.005351   0.003183   0.081060   0.040799
   35  C  5  S    0.058349  -0.041263   0.034430  -0.001534   0.258061
   36  C  5  X    0.033311  -0.031094   0.010515   0.034990   0.127741
   37  C  5  Y   -0.037005   0.008476  -0.003171   0.096742  -0.078469
   38  C  5  Z   -0.005321   0.004636   0.016745   0.094250   0.033825
   39  N  6  S    0.014143  -0.014752   0.005894   0.000172  -0.033621
   40  N  6  S   -0.011763   0.013314  -0.003040  -0.000464   0.021079
   41  N  6  X   -0.085536   0.041309  -0.016211   0.065966   0.030387
   42  N  6  Y   -0.076950  -0.019347   0.035668   0.205645  -0.073607
   43  N  6  Z   -0.067569  -0.029540   0.037535   0.210484   0.063952
   44  N  6  S   -0.078103   0.072514  -0.045798   0.002199   0.236732
   45  N  6  X   -0.086928   0.035580  -0.021960   0.080806   0.008255
   46  N  6  Y   -0.087174  -0.018747   0.039218   0.248537  -0.104587
   47  N  6  Z   -0.072376  -0.032007   0.042867   0.253284   0.101246
   48  C  7  S    0.002329  -0.009547  -0.009259   0.000592   0.040763
   49  C  7  S   -0.001549   0.011533   0.013301  -0.000461  -0.057466
   50  C  7  X   -0.020408   0.056103   0.061813  -0.031017  -0.100661
   51  C  7  Y   -0.054552  -0.012726   0.000643  -0.090812   0.039487
   52  C  7  Z   -0.039226  -0.030982   0.003471  -0.092579  -0.003799
   53  C  7  S   -0.015090   0.041882   0.029650  -0.002006  -0.128435
   54  C  7  X   -0.024568   0.045850   0.040550  -0.035696  -0.012779
   55  C  7  Y   -0.041379  -0.018252   0.013700  -0.104889  -0.066977
   56  C  7  Z   -0.044994  -0.021589  -0.003146  -0.104253   0.073743
   57  N  8  S    0.009295   0.003687   0.022350  -0.000808  -0.099287
   58  N  8  S   -0.007932  -0.002215  -0.016185   0.000735   0.085581
   59  N  8  X   -0.016337  -0.049393  -0.083342  -0.073393   0.201460
   60  N  8  Y    0.024098  -0.044729  -0.003582  -0.236601  -0.298676
   61  N  8  Z   -0.027028   0.053366   0.005122  -0.241321   0.230836
   62  N  8  S   -0.037087  -0.019981  -0.109875   0.002827   0.418000
   63  N  8  X   -0.011074  -0.040148  -0.072903  -0.075588   0.205230
   64  N  8  Y    0.018831  -0.034784  -0.009676  -0.249168  -0.315615
   65  N  8  Z   -0.019008   0.038185   0.004028  -0.252808   0.245350
   66  H  9  S   -0.036609  -0.072259  -0.193865   0.014376  -0.013026
   67  H  9  S   -0.043276  -0.086286  -0.218309   0.021618  -0.001925
   68  H 10  S   -0.054986  -0.122857   0.129097  -0.053312   0.017047
   69  H 10  S   -0.059020  -0.133602   0.130432  -0.044633   0.045789
   70  H 11  S    0.005480  -0.012033   0.003654  -0.000611  -0.039537
   71  H 11  S    0.002347  -0.011896  -0.003897  -0.001805  -0.081554
   72  H 12  S    0.034227  -0.022235   0.020005   0.000323  -0.042341
   73  H 12  S    0.038466  -0.029374   0.020390   0.000808  -0.065159
   74  H 13  S    0.009118  -0.032415  -0.018229   0.000536  -0.057826
   75  H 13  S    0.013620  -0.039331  -0.017640  -0.000208  -0.093665
   76  H 14  S   -0.099892   0.195893  -0.007191  -0.025189  -0.006156
   77  H 14  S   -0.105733   0.201679  -0.012879  -0.050844  -0.003167
   78  H 15  S   -0.095171  -0.136576   0.150382  -0.014354   0.014003
   79  H 15  S   -0.101932  -0.146998   0.157341  -0.029077   0.023087

                     26         27         28         29         30
                   -0.2174     0.0412     0.0804     0.1018     0.1460
                     A          A          A          A          A   
    1  C  1  S    0.019213  -0.013672  -0.044108   0.006863  -0.056400
    2  C  1  S   -0.014118   0.015721   0.023106  -0.002195   0.029522
    3  C  1  X    0.060433  -0.016061  -0.028345   0.004665   0.075110
    4  C  1  Y    0.012219  -0.009735   0.010573   0.009144   0.041050
    5  C  1  Z    0.061463  -0.011334  -0.076659   0.004899   0.056928
    6  C  1  S   -0.120140   0.094255   0.450307  -0.082359   0.741802
    7  C  1  X    0.049233   0.064787  -0.026716   0.012029   0.206531
    8  C  1  Y   -0.000801  -0.023734   0.079614   0.040871   0.128573
    9  C  1  Z    0.071456  -0.024819  -0.198510   0.009333   0.301530
   10  H  2  S   -0.002836   0.013155   0.007224  -0.006068   0.004632
   11  H  2  S   -0.001035  -0.021702   0.048484   0.042253  -0.249876
   12  C  3  S    0.001229  -0.000455  -0.005367  -0.015892  -0.092611
   13  C  3  S   -0.002194  -0.003668   0.004705   0.009448   0.040360
   14  C  3  X   -0.019788   0.002481  -0.000995  -0.049193   0.045030
   15  C  3  Y   -0.057708   0.003107  -0.029851  -0.000178   0.068596
   16  C  3  Z   -0.055006   0.002587  -0.033603   0.015559  -0.141501
   17  C  3  S   -0.003150   0.026989   0.082346   0.163584   1.248820
   18  C  3  X    0.007791  -0.033189  -0.090721  -0.112869   0.175910
   19  C  3  Y   -0.032474   0.020403  -0.176031  -0.033659   0.197098
   20  C  3  Z   -0.028337   0.059552  -0.178335   0.068344  -0.468557
   21  C  4  S   -0.000101   0.000827  -0.000403   0.019073   0.006447
   22  C  4  S   -0.001489   0.001626   0.004333  -0.018657  -0.007491
   23  C  4  X    0.062745  -0.029424  -0.075234   0.001236   0.022786
   24  C  4  Y    0.196497  -0.087661  -0.241422   0.000554   0.069967
   25  C  4  Z    0.198499  -0.088948  -0.249091  -0.002926   0.013378
   26  C  4  S    0.009491  -0.036069  -0.024324  -0.120675   0.167909
   27  C  4  X    0.075012  -0.082899  -0.145584  -0.089127  -0.153426
   28  C  4  Y    0.194688  -0.172723  -0.364173  -0.014529   0.130095
   29  C  4  Z    0.198533  -0.163929  -0.376209   0.035682   0.080912
   30  C  5  S   -0.000503   0.000112   0.000128   0.004848  -0.069889
   31  C  5  S    0.000465  -0.000314   0.000685   0.007126   0.059680
   32  C  5  X    0.070069   0.062499   0.052163  -0.053823  -0.073402
   33  C  5  Y    0.213081   0.190905   0.162264  -0.072543   0.076787
   34  C  5  Z    0.219423   0.197509   0.165374   0.088753  -0.079995
   35  C  5  S    0.005955  -0.003713  -0.008616  -0.251142   0.677585
   36  C  5  X    0.076481   0.114778   0.094365  -0.094170  -0.327701
   37  C  5  Y    0.235001   0.326460   0.300286  -0.124171   0.388904
   38  C  5  Z    0.246300   0.328387   0.292485   0.154526  -0.367864
   39  N  6  S   -0.000284  -0.000671  -0.000347   0.111564   0.055861
   40  N  6  S    0.000359  -0.000001  -0.000179  -0.063240  -0.035825
   41  N  6  X   -0.026541  -0.066384  -0.002794   0.205764  -0.029420
   42  N  6  Y   -0.083227  -0.206474  -0.008417  -0.106447  -0.007762
   43  N  6  Z   -0.083820  -0.211009  -0.009261   0.038188   0.018394
   44  N  6  S    0.000014   0.010257   0.007335  -1.063463  -0.503200
   45  N  6  X   -0.034108  -0.106116  -0.003194   0.525872  -0.018504
   46  N  6  Y   -0.104222  -0.334851  -0.018293  -0.273712  -0.043502
   47  N  6  Z   -0.104183  -0.344623  -0.019128   0.099337   0.060452
   48  C  7  S    0.000290   0.000622   0.000733   0.006716  -0.022219
   49  C  7  S   -0.000685  -0.000156   0.000092  -0.000545   0.015492
   50  C  7  X   -0.059528   0.077121  -0.041106   0.023869  -0.084380
   51  C  7  Y   -0.183296   0.239726  -0.125068   0.068814   0.056940
   52  C  7  Z   -0.186820   0.245329  -0.128664  -0.074826  -0.011270
   53  C  7  S   -0.001179  -0.003959  -0.007360  -0.216435   0.182964
   54  C  7  X   -0.064469   0.114501  -0.073078   0.078100  -0.309683
   55  C  7  Y   -0.204199   0.364690  -0.209560   0.081866   0.112118
   56  C  7  Z   -0.209316   0.378132  -0.208182  -0.103999   0.019696
   57  N  8  S   -0.000582  -0.000463  -0.001399   0.006412  -0.032756
   58  N  8  S    0.000658   0.000788   0.000750  -0.006856   0.023497
   59  N  8  X   -0.008952  -0.041646   0.070744   0.034118   0.014150
   60  N  8  Y   -0.034627  -0.132309   0.217419  -0.058955  -0.013387
   61  N  8  Z   -0.030099  -0.134197   0.219497   0.047873  -0.039373
   62  N  8  S    0.001761   0.000457   0.011883  -0.049935   0.261517
   63  N  8  X   -0.009990  -0.062919   0.111922   0.044952  -0.074030
   64  N  8  Y   -0.032682  -0.201416   0.345207  -0.098571  -0.014551
   65  N  8  Z   -0.026886  -0.202909   0.345642   0.083872  -0.041209
   66  H  9  S   -0.009135   0.005588   0.003632   0.008382  -0.033919
   67  H  9  S   -0.011485   0.031332  -0.013880   0.047776  -1.105706
   68  H 10  S    0.076125  -0.025734  -0.075870  -0.006137   0.005550
   69  H 10  S    0.117024  -0.029370  -0.416613  -0.043141  -0.443859
   70  H 11  S   -0.000048  -0.000271   0.000207   0.018921  -0.035826
   71  H 11  S    0.000260   0.000069  -0.006441   0.394202  -0.973593
   72  H 12  S   -0.000287  -0.000352  -0.000217   0.136898  -0.002614
   73  H 12  S   -0.000638  -0.001097  -0.001332   1.408407   0.169191
   74  H 13  S   -0.000533   0.000159   0.000590   0.003298  -0.030646
   75  H 13  S    0.000221  -0.001588  -0.000680   0.300389  -0.300027
   76  H 14  S    0.022995  -0.017782  -0.024462   0.011352  -0.014525
   77  H 14  S    0.049846  -0.121611  -0.229542   0.053616  -0.470546
   78  H 15  S    0.011423   0.004946   0.007024  -0.003136  -0.020286
   79  H 15  S    0.052074   0.004363  -0.136657  -0.019631  -0.526908

                     31         32         33         34         35
                    0.1602     0.1732     0.1898     0.1980     0.2088
                     A          A          A          A          A   
    1  C  1  S   -0.070993  -0.050596  -0.027787  -0.131326   0.034572
    2  C  1  S    0.033360   0.022419   0.007353   0.050003  -0.012636
    3  C  1  X    0.050062   0.062416  -0.073240  -0.029213  -0.255825
    4  C  1  Y    0.011381  -0.010644   0.184620   0.017212   0.084041
    5  C  1  Z    0.041666   0.081785  -0.021137   0.089546   0.161718
    6  C  1  S    0.936499   0.708500   0.354572   1.763813  -0.432694
    7  C  1  X    0.157123   0.168698  -0.291101  -0.174715  -0.930207
    8  C  1  Y    0.021612   0.045805   0.530992   0.037162   0.379762
    9  C  1  Z    0.179316   0.311619  -0.104197   0.146869   0.657645
   10  H  2  S   -0.016234  -0.029432   0.052229  -0.052815  -0.034380
   11  H  2  S   -0.412657  -0.489939   0.437988  -0.925125  -0.412590
   12  C  3  S   -0.044120  -0.036542   0.042283   0.094840  -0.048816
   13  C  3  S    0.023655   0.020413  -0.013239  -0.039381   0.029866
   14  C  3  X   -0.014209   0.020526  -0.036307  -0.094836  -0.021446
   15  C  3  Y   -0.005133  -0.103721   0.250351  -0.046941  -0.061920
   16  C  3  Z   -0.051846  -0.012934  -0.028723   0.097662   0.018341
   17  C  3  S    0.539123   0.462947  -0.571815  -1.242853   0.582967
   18  C  3  X   -0.109345   0.066798  -0.128041  -0.495518   0.160345
   19  C  3  Y   -0.000062  -0.403087   0.811602  -0.153062  -0.277495
   20  C  3  Z   -0.215743  -0.034803  -0.166665   0.199463  -0.112953
   21  C  4  S    0.022093  -0.040583  -0.021618   0.038430   0.019639
   22  C  4  S    0.009022   0.053965   0.000212  -0.027166  -0.016128
   23  C  4  X   -0.015573  -0.071035  -0.062900   0.035152  -0.084414
   24  C  4  Y    0.078283  -0.004747   0.017155   0.012737  -0.075465
   25  C  4  Z    0.015308   0.113183  -0.050606   0.036985   0.022613
   26  C  4  S   -0.399158   0.149847   0.289713  -0.460316  -0.106429
   27  C  4  X    0.011721  -0.043734  -0.116028   0.023462  -0.065201
   28  C  4  Y    0.137291   0.032446  -0.053847  -0.038577  -0.200740
   29  C  4  Z    0.019589   0.171809  -0.134909   0.084719   0.146971
   30  C  5  S    0.062897   0.044186   0.051531  -0.036157  -0.044897
   31  C  5  S   -0.038720  -0.026709  -0.035133   0.020140   0.034018
   32  C  5  X    0.068748  -0.027395  -0.036440   0.026999  -0.006833
   33  C  5  Y   -0.066281  -0.152152  -0.022059   0.044505   0.013060
   34  C  5  Z    0.015200   0.126726   0.077150  -0.053333   0.035977
   35  C  5  S   -0.630454  -0.615116  -0.615243   0.459101   0.549788
   36  C  5  X    0.199078  -0.188594  -0.197232   0.319660  -0.098139
   37  C  5  Y   -0.300798  -0.553589  -0.103912   0.148008  -0.019081
   38  C  5  Z    0.139108   0.499265   0.265147  -0.284879   0.112579
   39  N  6  S   -0.071002  -0.002663   0.001154   0.008779   0.002075
   40  N  6  S    0.051059  -0.000369   0.005470  -0.015309  -0.000538
   41  N  6  X    0.020123  -0.032620  -0.006741   0.040703  -0.080044
   42  N  6  Y   -0.018073   0.004362   0.015212   0.015257  -0.052551
   43  N  6  Z    0.017367   0.011706  -0.021493  -0.023054   0.058474
   44  N  6  S    0.611104   0.038151  -0.056817  -0.006366  -0.026692
   45  N  6  X   -0.015659  -0.097203  -0.058548   0.178509  -0.219829
   46  N  6  Y   -0.018663  -0.032062   0.041534   0.054227  -0.145150
   47  N  6  Z    0.043304   0.082499  -0.043587  -0.093570   0.185725
   48  C  7  S    0.113920  -0.049829  -0.017404  -0.017195   0.034488
   49  C  7  S   -0.078739   0.030630   0.006521   0.015290  -0.025443
   50  C  7  X    0.118429  -0.100272  -0.054058  -0.014233   0.037889
   51  C  7  Y    0.038803  -0.108364  -0.012687   0.009986  -0.011871
   52  C  7  Z   -0.067797   0.144460   0.029050  -0.014153   0.012453
   53  C  7  S   -1.262980   0.675917   0.272955   0.165000  -0.428771
   54  C  7  X    0.447278  -0.319423  -0.114226  -0.111091   0.095633
   55  C  7  Y    0.151228  -0.408068  -0.056778   0.038370  -0.027412
   56  C  7  Z   -0.273213   0.516970   0.077362  -0.018552   0.005585
   57  N  8  S   -0.036693   0.036121   0.005980  -0.015154   0.009636
   58  N  8  S    0.031404  -0.029201  -0.006860   0.010434  -0.000941
   59  N  8  X   -0.018321   0.009736   0.014458   0.031196  -0.051615
   60  N  8  Y   -0.003689  -0.086729   0.011010   0.025986  -0.026679
   61  N  8  Z   -0.020678   0.048685   0.018096  -0.013632   0.033228
   62  N  8  S    0.246591  -0.242147  -0.055315   0.137658  -0.121401
   63  N  8  X   -0.043700  -0.011394   0.035941   0.021423  -0.118513
   64  N  8  Y   -0.002611  -0.092652   0.006475   0.061339  -0.055311
   65  N  8  Z   -0.043468   0.028080   0.052499  -0.059842   0.106033
   66  H  9  S   -0.032501   0.038496  -0.070796   0.047093   0.039804
   67  H  9  S   -0.393668   0.184687  -0.680141   0.968035   0.011246
   68  H 10  S    0.017989  -0.022538   0.075462   0.032590  -0.018992
   69  H 10  S   -0.246056  -0.642192   1.187749   0.567847  -0.538210
   70  H 11  S    0.065034   0.057680   0.034281  -0.060754   0.019248
   71  H 11  S    0.716908   1.174222   0.630603  -0.594734  -0.167542
   72  H 12  S   -0.013542   0.000441  -0.014316   0.014063   0.001007
   73  H 12  S   -0.249988  -0.099144  -0.086877   0.181384  -0.136453
   74  H 13  S    0.091992  -0.056139  -0.008692  -0.002431  -0.003033
   75  H 13  S    1.339070  -1.169827  -0.322913  -0.123753   0.269694
   76  H 14  S   -0.007332  -0.002919   0.020955   0.020038   0.093743
   77  H 14  S   -0.485529  -0.382503   0.276297  -0.355518   1.567655
   78  H 15  S   -0.010489  -0.005775  -0.072469  -0.024571  -0.043954
   79  H 15  S   -0.435013  -0.351038  -0.916002  -0.850421  -0.674932

                     36         37         38         39         40
                    0.2237     0.2492     0.2704     0.2789     0.3049
                     A          A          A          A          A   
    1  C  1  S    0.023481  -0.019572   0.035194  -0.065052   0.003992
    2  C  1  S   -0.010047   0.000989  -0.007635   0.006923  -0.001541
    3  C  1  X    0.147793  -0.124923   0.038600  -0.037170   0.004422
    4  C  1  Y    0.266326   0.071566  -0.044232  -0.060963   0.018023
    5  C  1  Z   -0.021342  -0.088024   0.186812  -0.107211   0.127374
    6  C  1  S   -0.272756   0.261916  -0.475904   0.975702  -0.099658
    7  C  1  X    0.603013  -0.641468   0.251598  -0.607949  -0.059268
    8  C  1  Y    1.105687   0.288308  -0.273786  -0.229471   0.199610
    9  C  1  Z   -0.069591  -0.355207   0.895433  -0.614897   0.563911
   10  H  2  S    0.072679   0.026550  -0.048007   0.033755   0.000134
   11  H  2  S    1.223682   0.256509  -0.634561  -0.165878  -0.267493
   12  C  3  S   -0.011571   0.017624  -0.027715   0.111167   0.071785
   13  C  3  S   -0.001984  -0.012004  -0.003464  -0.033061  -0.006705
   14  C  3  X    0.052894   0.048975   0.217556   0.028076   0.228772
   15  C  3  Y   -0.111856  -0.136140   0.158940  -0.001532  -0.060260
   16  C  3  Z    0.086081  -0.178538   0.086176  -0.225522   0.067224
   17  C  3  S    0.183988  -0.179264   0.471448  -1.491347  -1.163090
   18  C  3  X    0.222137   0.084193   0.810358   0.277275   1.508064
   19  C  3  Y   -0.492559  -0.540149   0.652784  -0.025492  -0.316716
   20  C  3  Z    0.436221  -0.763739   0.369257  -1.122349   0.122534
   21  C  4  S   -0.007203   0.024955  -0.016445  -0.110615  -0.131942
   22  C  4  S    0.027178  -0.020758   0.022130   0.034057   0.050726
   23  C  4  X    0.069098   0.090175   0.081573   0.109545   0.154618
   24  C  4  Y   -0.040496   0.109478  -0.154076  -0.075743   0.075103
   25  C  4  Z    0.100399  -0.046810  -0.016288   0.121888  -0.174475
   26  C  4  S   -0.095317  -0.249674   0.083234   1.513761   2.138627
   27  C  4  X    0.177469   0.384139   0.316296   0.479976   0.885642
   28  C  4  Y   -0.188956   0.341539  -0.429035  -0.179182   0.332733
   29  C  4  Z    0.211398  -0.105029  -0.075348   0.337676  -0.687296
   30  C  5  S   -0.036388   0.064052   0.016004  -0.005679   0.062953
   31  C  5  S    0.023905  -0.037340  -0.010690  -0.019896  -0.052835
   32  C  5  X    0.060892   0.188271   0.173516  -0.093730  -0.038021
   33  C  5  Y    0.005247   0.011234   0.058859   0.081866   0.042397
   34  C  5  Z   -0.046280  -0.077885  -0.083475  -0.055353  -0.013781
   35  C  5  S    0.541151  -0.731956   0.006454   0.362115  -0.737180
   36  C  5  X    0.209382   0.683719   0.691846  -0.390384  -0.695913
   37  C  5  Y   -0.035145  -0.029508   0.133642   0.125385   0.142411
   38  C  5  Z   -0.088435  -0.318901  -0.183724  -0.120466   0.120059
   39  N  6  S   -0.014698  -0.030198  -0.063195  -0.022281   0.039120
   40  N  6  S    0.004144   0.013256   0.023240   0.012628   0.004583
   41  N  6  X   -0.008242   0.167344   0.144866   0.000121   0.012016
   42  N  6  Y   -0.033262   0.102158  -0.036954  -0.141457   0.080460
   43  N  6  Z    0.038072  -0.164907  -0.005044   0.130856  -0.084671
   44  N  6  S    0.186090   0.341608   0.797784   0.250266  -0.722410
   45  N  6  X   -0.013710   0.511533   0.470888  -0.044606  -0.162636
   46  N  6  Y   -0.098909   0.329706  -0.168804  -0.421371   0.304757
   47  N  6  Z    0.108529  -0.476140  -0.001611   0.439721  -0.254593
   48  C  7  S    0.003104  -0.067569  -0.021634   0.024013  -0.024109
   49  C  7  S    0.004888   0.048467   0.024903  -0.017385   0.001457
   50  C  7  X    0.115662  -0.014423   0.088076   0.125222  -0.015536
   51  C  7  Y   -0.040901   0.034711  -0.106571  -0.084576   0.164027
   52  C  7  Z    0.014894  -0.007695   0.064420   0.051654  -0.154713
   53  C  7  S   -0.088154   0.872058   0.247172  -0.382976   0.207031
   54  C  7  X    0.378841   0.075340   0.523926   0.657034  -0.060196
   55  C  7  Y   -0.122420   0.094467  -0.524645  -0.437005   0.638281
   56  C  7  Z    0.026959  -0.063226   0.300033   0.252698  -0.617269
   57  N  8  S    0.051053  -0.010822   0.048747   0.082895  -0.009033
   58  N  8  S   -0.027817   0.000967  -0.013194  -0.031534  -0.007944
   59  N  8  X   -0.034371   0.114224   0.126886  -0.035011  -0.052232
   60  N  8  Y   -0.020321   0.008513   0.049113  -0.087305  -0.054191
   61  N  8  Z   -0.012895  -0.147135   0.010626   0.029999   0.088653
   62  N  8  S   -0.498243   0.110928  -0.618394  -0.975358   0.220932
   63  N  8  X    0.040326   0.328833   0.304402  -0.029818  -0.135967
   64  N  8  Y   -0.084215   0.082718   0.097915  -0.233555  -0.077655
   65  N  8  Z    0.010612  -0.325881  -0.043503   0.137765   0.150120
   66  H  9  S    0.025384  -0.073189   0.005064  -0.003674  -0.024278
   67  H  9  S    0.563970  -0.206856  -0.539950  -0.244975   0.422159
   68  H 10  S    0.003229  -0.020803   0.006770  -0.059956  -0.025034
   69  H 10  S   -0.367159  -0.790231   0.459817  -0.044519  -0.127463
   70  H 11  S    0.008182  -0.018197   0.042293   0.032618  -0.049137
   71  H 11  S   -0.313893   0.118509  -0.225391  -0.332272   0.266842
   72  H 12  S    0.030119   0.027954   0.064811   0.009259  -0.085604
   73  H 12  S    0.027649   0.234143   0.368491   0.167324  -0.145632
   74  H 13  S   -0.001239   0.032370   0.020193  -0.028315  -0.039262
   75  H 13  S    0.227253  -0.309661  -0.204121   0.250217   0.527620
   76  H 14  S   -0.035086   0.027868  -0.031407   0.012854  -0.060644
   77  H 14  S   -0.452663   0.501506   0.088527  -0.070669   0.110551
   78  H 15  S   -0.065651   0.007054  -0.005899   0.022502  -0.008493
   79  H 15  S   -0.968516  -0.296578   0.086046   0.108803  -0.348824

                     41         42         43         44         45
                    0.3799     0.4471     0.4795     0.6758     0.7057
                     A          A          A          A          A   
    1  C  1  S    0.010060  -0.006487  -0.004545   0.003373  -0.002230
    2  C  1  S   -0.001686  -0.014253   0.004298  -0.008706  -0.002196
    3  C  1  X   -0.050798   0.073815  -0.005610  -0.046344   0.236450
    4  C  1  Y    0.024611  -0.023128   0.023966  -0.140176  -0.204206
    5  C  1  Z   -0.002259   0.004756   0.043927  -0.030778   0.072333
    6  C  1  S   -0.151068   0.334704   0.025062   0.076541   0.024057
    7  C  1  X   -0.017271  -0.166335  -0.097069   0.087747  -0.351307
    8  C  1  Y    0.120091  -0.253408  -0.033672   0.206220   0.364894
    9  C  1  Z   -0.009749  -0.151020   0.076806   0.039967  -0.051356
   10  H  2  S    0.062227   0.001371  -0.000727   0.106200   0.094518
   11  H  2  S    0.162356  -0.160578  -0.110430  -0.006975  -0.006413
   12  C  3  S    0.028110   0.020679   0.027492  -0.002869   0.003744
   13  C  3  S   -0.001472   0.023833   0.037748  -0.073580   0.025351
   14  C  3  X    0.042617   0.009189  -0.061203   0.385735  -0.071847
   15  C  3  Y   -0.052574   0.097969   0.035754  -0.212937  -0.113554
   16  C  3  Z    0.026460  -0.077528  -0.013266   0.071333  -0.067876
   17  C  3  S   -0.565764  -0.695624  -1.146043   0.509847  -0.338665
   18  C  3  X    0.522861   0.399012   0.925453  -0.586978   0.198821
   19  C  3  Y   -0.024725   0.574403  -0.128732   0.341827   0.112951
   20  C  3  Z   -0.132698  -0.810821  -0.156333  -0.043619  -0.042703
   21  C  4  S   -0.013701   0.040314   0.095698  -0.021669   0.011418
   22  C  4  S    0.051729  -0.022864  -0.040352  -0.060418  -0.051654
   23  C  4  X    0.141654   0.189469   0.276399   0.097836  -0.189957
   24  C  4  Y   -0.049662  -0.230929   0.099528  -0.198102  -0.323692
   25  C  4  Z   -0.007431   0.168907  -0.201710   0.066356  -0.365613
   26  C  4  S   -0.115172  -1.410819  -1.544320  -0.440389   0.169542
   27  C  4  X    0.844749   1.781271   2.233825  -0.529345   0.371553
   28  C  4  Y   -0.074395  -1.662289   0.182816   0.081119   0.160657
   29  C  4  Z   -0.181268   1.102720  -0.868168   0.120373   0.202600
   30  C  5  S   -0.017642  -0.087302  -0.105546  -0.020091   0.004190
   31  C  5  S    0.022950  -0.002563   0.013708  -0.008966  -0.036415
   32  C  5  X   -0.082399   0.064331  -0.108794  -0.734169   0.051419
   33  C  5  Y   -0.003848  -0.099299  -0.152715   0.038154  -0.349998
   34  C  5  Z    0.033383   0.084987   0.191452   0.114404  -0.384135
   35  C  5  S    0.311724   2.214306   1.885863  -0.092395   0.154063
   36  C  5  X    0.372619   1.535735  -0.434147   0.812092  -0.089820
   37  C  5  Y   -0.349258  -1.464819  -1.363848  -0.006079   0.262819
   38  C  5  Z    0.220391   0.927723   1.460642  -0.175369   0.382085
   39  N  6  S   -0.067262   0.047801   0.053932   0.046182  -0.012545
   40  N  6  S    0.040449  -0.012112  -0.016426  -0.089650   0.023637
   41  N  6  X    0.143873  -0.020126  -0.161465  -0.115260   0.008233
   42  N  6  Y   -0.122632   0.143569  -0.086384   0.004886  -0.064987
   43  N  6  Z    0.073311  -0.136068   0.133162   0.026704  -0.047653
   44  N  6  S    0.717740  -0.780363  -0.917805   0.278829  -0.147157
   45  N  6  X    0.556728  -0.329120  -0.806219   0.008879  -0.080734
   46  N  6  Y   -0.481989   0.544859  -0.193022   0.041806  -0.074884
   47  N  6  Z    0.296819  -0.426461   0.443170  -0.060862  -0.084510
   48  C  7  S    0.110579  -0.025960  -0.027723  -0.015122  -0.000527
   49  C  7  S   -0.000270  -0.016144   0.019408   0.021120  -0.027524
   50  C  7  X   -0.106899   0.081025   0.208641  -0.147876  -0.009227
   51  C  7  Y   -0.177194   0.010753  -0.120420   0.157043  -0.440522
   52  C  7  Z    0.208950  -0.037229   0.052362  -0.140048  -0.285280
   53  C  7  S   -1.673950   0.235617   0.365746   0.101229   0.054189
   54  C  7  X   -1.523523  -0.581932   0.646054   0.235119   0.055849
   55  C  7  Y   -0.381949   0.868771  -0.193400  -0.119356   0.461750
   56  C  7  Z    0.855347  -0.668983  -0.014622   0.073806   0.270475
   57  N  8  S   -0.116839   0.031312  -0.038900   0.009628   0.003185
   58  N  8  S    0.030035  -0.026424   0.018263  -0.015979   0.001230
   59  N  8  X   -0.215945  -0.119755   0.203018   0.035599   0.012269
   60  N  8  Y    0.088940  -0.085040   0.132902  -0.041555  -0.043487
   61  N  8  Z   -0.026615   0.117906  -0.194162   0.026484  -0.072825
   62  N  8  S    1.804933  -0.203690   0.610700  -0.208495   0.013453
   63  N  8  X   -0.966547  -0.617524   0.607423   0.047640  -0.030601
   64  N  8  Y    0.481908  -0.205281   0.498585  -0.054004  -0.083372
   65  N  8  Z   -0.172078   0.391322  -0.683631   0.031001  -0.072053
[...]
   1162   -1.54217    0.46043    5.89862        -7.471673       7.449884      -0.021789
   1163   -3.39303    1.15310    5.87550        -7.457882       7.440462      -0.017419
   1164   -0.41256   -6.64985    1.05301        -7.000548       6.972633      -0.027915
   1165   -1.10524   -6.67297    2.90387        -6.689482       6.659718      -0.029764
   1166   -0.11992   -5.10046    4.32611        -6.917130       6.888566      -0.028564
   1167   -2.24913   -5.96601    4.75472        -6.525110       6.497227      -0.027883
   1168   -2.24913    2.31128    4.75472        -7.986245       7.967810      -0.018436
   1169   -2.24913   -5.96601   -2.64871        -7.451537       7.430907      -0.020629
   1170   -1.10524   -6.67297   -0.79785        -7.153455       7.128890      -0.024565
   1171   -4.53692   -5.96601   -2.64871        -7.296737       7.277329      -0.019408
   1172   -5.68081   -6.67297   -0.79785        -6.951207       6.932970      -0.018237
   1173   -4.53692   -7.37993    1.05301        -6.625960       6.603575      -0.022385
   1174   -3.39303   -7.12335   -0.96988        -6.885911       6.862431      -0.023480
   1175   -2.24913   -7.37993    1.05301        -6.683107       6.655654      -0.027453
   1176   -5.68081   -6.67297    2.90387        -6.614480       6.598784      -0.015696
   1177   -4.53692   -5.96601    4.75472        -6.506755       6.487303      -0.019452
   1178   -3.39303   -7.12335    3.07590        -6.486998       6.461152      -0.025845
   1179    3.14184    4.94914   -2.96406        -6.348860       6.348591      -0.000269
   1180    4.06838    4.05252   -3.87917        -6.081570       6.081443      -0.000127
   1181    4.63396    2.57184   -4.79428        -5.962848       5.962449      -0.000399
   1182    4.61546    1.09115   -5.34843        -6.012477       6.011323      -0.001155
   1183    3.71884    0.17603   -6.27497        -6.035891       6.034529      -0.001362
   1184    0.75747    3.47552   -6.82205        -6.109862       6.114571       0.004709
   1185    2.23816    2.92138   -6.84054        -5.860939       5.863607       0.002668
   1186    3.71884    2.00626   -6.27497        -5.828081       5.828685       0.000604
   1187    0.75747    2.00626   -7.40611        -6.138694       6.141359       0.002665
   1188    2.37578    1.09115   -7.20085        -5.952282       5.952777       0.000495
   1189    0.75747    0.17603   -7.40611        -6.347774       6.347150      -0.000624
   1190    2.58770    4.96764   -4.44474        -6.078865       6.081100       0.002234
   1191    3.37595    3.70963   -5.58254        -5.842299       5.844132       0.001832
   1192    1.67258    4.40206   -5.92543        -6.001002       6.005132       0.004130
   1193    1.67258    5.53321   -2.96406        -6.565143       6.566428       0.001285
   1194   -0.15765    5.53321   -2.96406        -7.127355       7.131025       0.003670
   1195    0.75747    5.32794   -1.34574        -7.395466       7.393691      -0.001775
   1196    0.75747    5.32794   -4.58237        -6.407831       6.412716       0.004885
   1197   -0.15765    4.40206   -5.92543        -6.457239       6.464509       0.007270
   1198   -0.72322    2.92138   -6.84054        -6.583473       6.589674       0.006201
   1199   -0.86084    1.09115   -7.20085        -6.757953       6.759566       0.001613
   1200    3.14289   -6.06063   -2.36746        -6.085735       6.078073      -0.007662
   1201    4.06944   -5.16402   -1.45234        -6.321796       6.313654      -0.008142
   1202    2.58875   -6.07913   -0.88677        -6.502611       6.490835      -0.011776
   1203    4.06944   -5.16402   -3.28257        -5.940827       5.935509      -0.005317
   1204    4.63501   -3.68333   -4.19769        -5.972037       5.968096      -0.003941
   1205    4.99531   -3.82095   -2.36746        -6.291448       6.285971      -0.005477
   1206    0.75852   -4.58701   -6.22545        -6.104893       6.099858      -0.005035
   1207    2.23921   -4.03287   -6.24395        -5.920655       5.916906      -0.003749
   1208    3.71990   -3.11776   -5.67838        -5.940697       5.937369      -0.003328
   1209    1.67364   -5.51356   -5.32883        -5.915062       5.910017      -0.005045
   1210    3.37700   -4.82112   -4.98594        -5.808686       5.804677      -0.004010
   1211    2.58875   -6.07913   -3.84815        -5.907086       5.901116      -0.005970
   1212    2.37683   -2.20264   -6.60425        -6.180350       6.177058      -0.003292
   1213    0.75852   -3.11776   -6.80952        -6.287904       6.283485      -0.004419
   1214   -0.72216   -4.03287   -6.24395        -6.580794       6.573865      -0.006928
   1215   -1.62585   -6.06063   -2.36746        -7.424310       7.403923      -0.020387
   1216   -0.15659   -5.51356   -5.32883        -6.300341       6.292991      -0.007349
   1217   -1.07171   -6.07913   -3.84815        -6.764266       6.751910      -0.012356
   1218   -1.85996   -4.82112   -4.98594        -7.073685       7.062148      -0.011537
   1219   -0.15659   -6.64470   -2.36746        -6.709418       6.694906      -0.014511
   1220    0.75852   -6.43943   -3.98577        -6.167075       6.158874      -0.008201
   1221    1.67364   -6.64470   -2.36746        -6.246387       6.236401      -0.009986
   1222    0.75852   -6.43943   -0.74915        -6.905777       6.888063      -0.017715
   1223   -1.85573    6.62136   -3.16936        -6.554252       6.561436       0.007184
   1224   -0.92918    5.72474   -4.08447        -6.748753       6.756541       0.007787
   1225   -4.24010    5.14774   -7.02735        -5.785101       5.798046       0.012945
   1226   -2.75941    4.59360   -7.04585        -6.030423       6.041430       0.011007
   1227   -1.27872    3.67848   -6.48027        -6.636825       6.645740       0.008915
   1228   -4.24010    3.67848   -7.61142        -5.967967       5.978811       0.010844
   1229   -2.62179    2.76337   -7.40615        -6.412601       6.420338       0.007737
   1230   -4.24010    1.84825   -7.61142        -6.401399       6.407734       0.006336
   1231   -2.40987    6.63986   -4.65004        -6.117470       6.128012       0.010542
   1232   -1.62161    5.38185   -5.78784        -6.273250       6.283612       0.010362
   1233   -3.32498    6.07429   -6.13073        -5.845146       5.857696       0.012550
   1234   -3.32498    7.20543   -3.16936        -6.218098       6.227711       0.009613
   1235   -5.15521    7.20543   -3.16936        -6.088803       6.101922       0.013119
   1236   -6.62447    6.62136   -3.16936        -6.178375       6.195742       0.017367
   1237   -4.24010    7.00016   -1.55105        -6.607375       6.614937       0.007562
   1238   -6.07032    6.63986   -4.65004        -5.855980       5.872187       0.016207
   1239   -4.24010    7.00016   -4.78767        -5.848125       5.861296       0.013171
   1240   -5.15521    6.07429   -6.13073        -5.719347       5.734047       0.014700
   1241   -7.55101    5.72474   -4.08447        -6.161439       6.182488       0.021049
   1242   -6.85858    5.38185   -5.78784        -5.855234       5.872553       0.017319
   1243   -5.72078    4.59360   -7.04585        -5.800857       5.814877       0.014020
   1244   -8.11658    4.24406   -4.99959        -6.299461       6.321690       0.022228
   1245   -7.20147    3.67848   -6.48027        -6.062098       6.077875       0.015777
   1246   -5.85841    2.76337   -7.40615        -6.104725       6.115496       0.010770
   1247   -9.10613    5.90263   -0.65476        -6.064894       6.088603       0.023709
   1248  -10.57538    5.31856   -0.65476        -5.664751       5.691260       0.026510
   1249  -10.02124    5.33705    0.82593        -5.863545       5.887184       0.023638
   1250  -10.02124    5.33705   -2.13545        -5.800464       5.827470       0.027006
   1251   -9.10613    4.77148   -3.61613        -6.166523       6.193493       0.026971
   1252  -11.50193    4.42194   -1.56988        -5.484852       5.513061       0.028209
   1253  -10.80949    4.07905   -3.27324        -5.673847       5.701485       0.027638
   1254   -9.67170    3.29079   -4.53125        -6.115577       6.141009       0.025432
   1255  -12.06750    2.94125   -2.48499        -5.461645       5.489647       0.028001
   1256  -11.15238    2.37568   -3.96568        -5.733675       5.759428       0.025753
   1257  -12.04900    1.46057   -3.03913        -5.599810       5.625806       0.025996
   1258  -11.15238    0.54545   -3.96568        -5.940807       5.962873       0.022066
   1259  -10.80949    4.07905    1.96372        -5.818396       5.842564       0.024168
   1260  -11.50193    4.42194    0.26035        -5.529934       5.557087       0.027153
   1261  -11.15238    2.37568    2.65615        -5.986831       6.011568       0.024737
   1262  -12.06750    2.94125    1.17547        -5.574832       5.602110       0.027279
   1263  -12.04900    1.46057    1.72961        -5.794297       5.821306       0.027009
   1264  -12.63307    1.46057    0.26035        -5.562639       5.590430       0.027791
   1265  -12.42780    3.07888   -0.65476        -5.408445       5.436902       0.028457
   1266  -12.63307    1.46057   -1.56988        -5.493730       5.521126       0.027396
   1267  -12.06750   -0.02012    1.17547        -5.979628       6.006436       0.026808
   1268  -12.42780   -0.15775   -0.65476        -5.779218       5.804949       0.025732
   1269  -12.06750   -0.02012   -2.48499        -5.781970       5.805840       0.023869
   1270   -7.17064   -4.48071    6.36339        -5.834944       5.834750      -0.000194
   1271   -5.68996   -3.92657    6.38189        -6.351203       6.343434      -0.007769
   1272   -7.17064   -3.01145    6.94746        -5.905090       5.905696       0.000606
   1273   -7.17064   -1.18123    6.94746        -6.149121       6.149958       0.000837
   1274   -6.25553   -5.40726    5.46678        -6.155045       6.148902      -0.006143
   1275   -8.65133   -0.26611    6.38189        -6.004183       6.011231       0.007048
   1276   -9.78912    0.52214    5.12388        -6.127763       6.141157       0.013394
   1277  -10.13202   -1.18123    5.81632        -5.654043       5.665802       0.011759
   1278  -11.04713   -0.61565    4.33563        -5.827375       5.844518       0.017143
   1279  -11.02863   -2.09634    4.88977        -5.525040       5.538981       0.013941
   1280  -11.61270   -2.09634    3.42052        -5.674681       5.691550       0.016869
   1281  -11.40743   -0.47803    2.50540        -6.205898       6.230194       0.024296
   1282  -11.61270   -2.09634    1.59029        -6.069146       6.088980       0.019833
   1283   -9.55501   -5.95433    2.50540        -5.766782       5.771467       0.004685
   1284  -10.48156   -5.05771    3.42052        -5.522260       5.531356       0.009096
   1285  -11.04713   -3.57703    4.33563        -5.438157       5.450562       0.012405
   1286  -10.48156   -5.05771    1.59029        -5.846724       5.854923       0.008199
   1287  -11.40743   -3.71465    2.50540        -5.662155       5.675678       0.013522
   1288  -11.04713   -3.57703    0.67517        -6.151992       6.165277       0.013285
   1289   -9.00087   -5.97283    1.02472        -6.205835       6.206728       0.000893
   1290   -8.08576   -6.53840    2.50540        -6.063452       6.061857      -0.001595
   1291  -10.13202   -3.01145    5.81632        -5.440114       5.450440       0.010327
   1292   -9.78912   -4.71482    5.12388        -5.429858       5.437943       0.008085
   1293   -9.00087   -5.97283    3.98609        -5.634159       5.638227       0.004069
   1294   -8.65133   -3.92657    6.38189        -5.548438       5.553962       0.005523
   1295   -8.08576   -5.40726    5.46678        -5.659787       5.662143       0.002356
   1296   -7.17064   -6.33313    4.12371        -6.027577       6.024026      -0.003551
   1297   -8.78895   -2.09634    6.74219        -5.664366       5.671118       0.006752
   1298    7.01463   -1.14238    3.63989        -5.373747       5.366566      -0.007181
   1299    7.91125   -0.22727    2.71334        -5.139764       5.134644      -0.005120
   1300    7.01463    0.68785    3.63989        -5.384377       5.377657      -0.006721
   1301    6.43763   -4.08526    0.32897        -5.603643       5.596934      -0.006709
   1302    7.36418   -3.18864    1.24409        -5.297969       5.292295      -0.005674
   1303    7.92975   -1.70795    2.15920        -5.135449       5.130383      -0.005067
   1304    5.88349   -4.10375    1.80966        -5.765955       5.757031      -0.008924
   1305    6.67174   -2.84575    2.94745        -5.480666       5.472862      -0.007804
   1306    7.92975    1.25342    2.15920        -5.150667       5.146160      -0.004507
   1307    7.36418    2.73411    1.24409        -5.330956       5.326553      -0.004403
   1308    6.43763    3.63073    0.32897        -5.652193       5.647536      -0.004658
   1309    7.36418    2.73411   -0.58614        -5.369315       5.366081      -0.003234
   1310    8.29005    1.39104    0.32897        -5.088541       5.085575      -0.002966
   1311    8.49532   -0.22727    1.24409        -5.014561       5.011079      -0.003483
   1312    7.92975    1.25342   -1.50126        -5.222557       5.220346      -0.002211
   1313    8.49532   -0.22727   -0.58614        -5.047325       5.044954      -0.002370
   1314    7.91125   -0.22727   -2.05540        -5.235684       5.233621      -0.002064
   1315    7.36418   -3.18864   -0.58614        -5.338423       5.334094      -0.004329
   1316    7.92975   -1.70795   -1.50126        -5.208711       5.206053      -0.002658
   1317    8.29005   -1.84558    0.32897        -5.073251       5.069795      -0.003456
   1318    5.53395   -2.05750   -3.54752        -6.148546       6.144986      -0.003560
   1319    7.01463   -1.14238   -2.98195        -5.535931       5.533453      -0.002478
   1320    6.67174   -2.84575   -2.28951        -5.616781       5.613071      -0.003711
   1321    5.88349   -4.10375   -1.15172        -5.856145       5.850050      -0.006095
   1322    5.53395    1.60296   -3.54752        -6.169304       6.166988      -0.002316
   1323    7.01463    0.68785   -2.98195        -5.545003       5.542892      -0.002112
   1324    5.67157   -0.22727   -3.90782        -6.118907       6.116218      -0.002689
   1325    6.67174    2.39122   -2.28951        -5.644305       5.641677      -0.002629
   1326    1.79778    2.84157    6.04033        -6.130212       6.120705      -0.009506
   1327    3.27847    3.75669    5.47476        -5.714457       5.707630      -0.006827
   1328    1.79778    4.31083    5.45626        -5.926991       5.920315      -0.006676
   1329    5.10870    4.88783    2.51339        -5.579248       5.574569      -0.004679
   1330    4.18215    5.78445    1.59827        -5.701827       5.698345      -0.003482
   1331    4.41626    4.54494    4.21675        -5.539230       5.533959      -0.005272
   1332    3.62801    5.80295    3.07896        -5.609497       5.605888      -0.003609
   1333    2.71290    5.23737    4.55964        -5.689235       5.684552      -0.004683
   1334    5.10870    4.88783    0.68316        -5.826911       5.822417      -0.004494
   1335    3.62801    5.80295    0.11758        -6.027845       6.024785      -0.003061
   1336    2.71290    5.23737   -1.36310        -6.696106       6.693680      -0.002426
   1337    2.71290    6.36852    1.59827        -5.895900       5.893190      -0.002709
   1338    0.88267    6.36852    1.59827        -6.384008       6.380905      -0.003103
   1339   -0.58659    5.78445    1.59827        -7.112066       7.106551      -0.005514
   1340    1.79778    6.16325    3.21658        -5.908619       5.905169      -0.003451
   1341   -0.03245    5.80295    3.07896        -6.537529       6.532442      -0.005086
   1342    0.88267    5.23737    4.55964        -6.113452       6.107899      -0.005553
   1343   -0.03245    5.80295    0.11758        -7.242400       7.238626      -0.003774
   1344    1.79778    6.16325   -0.02004        -6.456281       6.453952      -0.002330
   1345    0.31709    3.75669    5.47476        -6.445696       6.436545      -0.009151
   1346   -0.82070    4.54494    4.21675        -6.933106       6.924240      -0.008867
   1347   -1.51313    4.88783    2.51339        -7.660936       7.651098      -0.009838
   1348   -1.16359    2.84157    4.90919        -7.472299       7.457492      -0.014806
   1349    0.17947    1.92646    5.83506        -6.903684       6.889336      -0.014348

 NET CHARGES:
 -------------------------------------
 ATOM                CHARGE    E.S.D.
 -------------------------------------
 C                  -0.0064    0.2473
 H                   0.0163    0.0183
 C                  -0.2531    0.2758
 C                   0.3243    0.1143
 C                  -0.3553    0.1493
 N                  -0.1953    0.1515
 C                   0.0437    0.1205
 N                  -0.4367    0.0266
 H                   0.0740    0.0207
 H                   0.0920    0.0185
 H                   0.2060    0.0138
 H                   0.3122    0.0158
 H                   0.1394    0.0122
 H                   0.0182    0.0167
 H                   0.0208    0.0175
 -------------------------------------

 RMS DEVIATION IS            1.357 KCAL/MOLE
 RELATIVE RMS DEVIATION IS  11.699 %

 MULTIPOLE MOMENTS:
 ---------------------------------------------------------
 STATUS  ACTUAL VALUE       QUANTITY        FITTED VALUE 
 ---------------------------------------------------------
 FIXED       0.0000       TOTAL CHARGE         0.0000
             3.5214 D    DIPOLE MOMENT         3.5077 D
 FREE       -2.6412 D          DX             -2.6419 D
 FREE        2.0220 D          DY              1.9931 D
 FREE       -1.1557 D          DZ             -1.1626 D
 FREE        0.0000 BU         QXX            10.8587 BU
 FREE        0.0000 BU         QYY            -6.0055 BU
 FREE        0.0000 BU         QZZ            -4.8532 BU
 FREE        0.0000 BU         QXY            -3.0023 BU
 FREE        0.0000 BU         QXZ            -1.8402 BU
 FREE        0.0000 BU         QYZ            -1.9382 BU
 ---------------------------------------------------------
 ...... END OF PROPERTY EVALUATION ......
 CPU     0: STEP CPU TIME=     0.29 TOTAL CPU TIME=          9.5 (      0.2 MIN)
 TOTAL WALL CLOCK TIME=         13.2 SECONDS, CPU UTILIZATION IS    71.98%
               594150  WORDS OF DYNAMIC MEMORY USED
 EXECUTION OF GAMESS TERMINATED NORMALLY Sun May 17 14:18:25 2020
 DDI: 263640 bytes (0.3 MB / 0 MWords) used by master data server.
Note: The following floating-point exceptions are signalling: IEEE_UNDERFLOW_FLAGNote: The following floating-point exceptions are signalling: IEEE_UNDERFLOW_FLAGNote: The following floating-point exceptions are signalling:
 ----------------------------------------
 CPU timing information for all processes
 ========================================
 0: 9.297 + 0.244 = 9.541
 1: 8.404 + 0.68 = 8.472
 2: 7.890 + 0.60 = 7.951
 3: 8.786 + 0.60 = 8.846
 4: 7.949 + 0.64 = 8.13
 5: 7.720 + 0.49 = 7.770
 ----------------------------------------
 IEEE_DENORMAL
 IEEE_DENORMAL
 IEEE_UNDERFLOW_FLAGNote: The following floating-point exceptions are signalling: IEEE_UNDERFLOW_FLAGNote: The following floating-point exceptions are signalling: IEEE_UNDERFLOW_FLAGNote: The following floating-point exceptions are signalling: IEEE_DENORMAL
 IEEE_DENORMAL
 IEEE_DENORMAL
 IEEE_UNDERFLOW_FLAG IEEE_DENORMAL
 ddikick.x: exited gracefully.
unset echo
----- accounting info -----
Files used on the master node pietdev were:
-rwxr-xr-x 1 piet piet     1035 mei 17 14:18 /home/piet/scr/histidine_charge_geodisk.F05*
-rw-r--r-- 1 piet piet 45875200 mei 17 14:18 /home/piet/scr/histidine_charge_geodisk.F10
ls: No match.
ls: No match.
ls: No match.
zo 17 mei 2020 14:18:28 CEST
0.111u 0.024s 0:16.38 0.7%	0+0k 0+8io 0pf+0w
