----- GAMESS execution script 'rungms' -----
This job is running on host pietdev
under operating system Linux at do 21 mei 2020 21:03:46 CEST
Available scratch disk space (Kbyte units) at beginning of the job is
Filesystem     1K-blocks     Used Available Use% Mounted on
/dev/sda2      244568380 30779620 201295704  14% /
GAMESS temporary binary files will be written to /home/piet/scr
GAMESS supplementary output files will be written to /home/piet/gamess/scr
Copying input file alpha-d-glucopyranose_fukui_base.inp to your run's scratch directory...
cp alpha-d-glucopyranose_fukui_base.inp /home/piet/scr/alpha-d-glucopyranose_fukui_base.F05
unset echo
 
Assuming a single but multicore node.
 
/home/piet/gamess/ddikick.x /home/piet/gamess/gamess.03.x alpha-d-glucopyranose_fukui_base -ddi 1 8 pietdev:cpus=8 -scr /home/piet/scr

 Distributed Data Interface kickoff program.
 Initiating 8 compute processes on 1 nodes to run the following command:
 /home/piet/gamess/gamess.03.x alpha-d-glucopyranose_fukui_base 

          ******************************************************
          *         GAMESS VERSION = 30 SEP 2019 (R2)          *
          *             FROM IOWA STATE UNIVERSITY             *
          * M.W.SCHMIDT, K.K.BALDRIDGE, J.A.BOATZ, S.T.ELBERT, *
          *   M.S.GORDON, J.H.JENSEN, S.KOSEKI, N.MATSUNAGA,   *
          *          K.A.NGUYEN, S.J.SU, T.L.WINDUS,           *
          *       TOGETHER WITH M.DUPUIS, J.A.MONTGOMERY       *
          *         J.COMPUT.CHEM.  14, 1347-1363(1993)        *
          **************** 64 BIT LINUX VERSION ****************

  SINCE 1993, STUDENTS AND POSTDOCS WORKING AT IOWA STATE UNIVERSITY
  AND ALSO IN THEIR VARIOUS JOBS AFTER LEAVING ISU HAVE MADE IMPORTANT
  CONTRIBUTIONS TO THE CODE:
     IVANA ADAMOVIC, CHRISTINE AIKENS, YURI ALEXEEV, POOJA ARORA,
     ANDREY ASADCHEV, ROB BELL, PRADIPTA BANDYOPADHYAY, JONATHAN BENTZ,
     COLLEEN BERTONI, BRETT BODE, KURT BRORSEN, CALEB CARLIN, GALINA CHABAN,
     WEI CHEN, CHEOL HO CHOI, PAUL DAY, ALBERT DEFUSCO, NUWAN DESILVA,
     TIM DUDLEY, DMITRI FEDOROV, ALEX FINDLATER, GRAHAM FLETCHER, 
     MARK FREITAG, KURT GLAESEMANN, EMILIE B GUIDEZ, ANASTASIA GUNINA, 
     DAN KEMP, SAROM SOK LEANG, GRANT MERRILL,
     NORIYUKI MINEZAWA, JONATHAN MULLIN,
     TAKESHI NAGATA, SEAN NEDD, HEATHER NETZLOFF, BOSILJKA NJEGIC, RYAN OLSON,
     MIKE PAK, BUU PHAM, DAVID POOLE,
     SPENCER PRUITT, LUKE ROSKOP, TOSAPORN SATTASATHUCHANA,
     JIM SHOEMAKER, LYUDMILA SLIPCHENKO,
     TONY SMITH, JIE SONG, TETSUYA TAKETSUGU, SIMON WEBB,
     JORGE LUIS GALVEZ VALLEJO, PENG XU, SOOHAENG YOO,
     FEDERICO ZAHARIEV

  ADDITIONAL CODE HAS BEEN PROVIDED BY COLLABORATORS IN OTHER GROUPS:
     IOWA STATE UNIVERSITY:
          JOE IVANIC, AARON WEST, LAIMUTIS BYTAUTAS, KLAUS RUEDENBERG
     UNIVERSITY OF TOKYO: KIMIHIKO HIRAO, TAKAHITO NAKAJIMA,
          TAKAO TSUNEDA, MUNEAKI KAMIYA, SUSUMU YANAGISAWA,
          KIYOSHI YAGI, MAHITO CHIBA, SEIKEN TOKURA, NAOAKI KAWAKAMI
     UNIVERSITY OF AARHUS: FRANK JENSEN
     UNIVERSITY OF IOWA: VISVALDAS KAIRYS, HUI LI
     NATIONAL INST. OF STANDARDS AND TECHNOLOGY: WALT STEVENS, DAVID GARMER
     UNIVERSITY OF PISA: BENEDETTA MENNUCCI, JACOPO TOMASI
     UNIVERSITY OF MEMPHIS: HENRY KURTZ, PRAKASHAN KORAMBATH
     UNIVERSITY OF ALBERTA: TOBY ZENG, MARIUSZ KLOBUKOWSKI
     UNIVERSITY OF NEW ENGLAND: MARK SPACKMAN
     MIE UNIVERSITY: HIROAKI UMEDA
     NAT. INST. OF ADVANCED INDUSTRIAL SCIENCE AND TECHNOLOGY: KAZUO KITAURA
     MICHIGAN STATE UNIVERSITY:
          KAROL KOWALSKI, MARTA WLOCH, JEFFREY GOUR, JESSE LUTZ,
          WEI LI, JUN SHEN, J. EMILIANO DEUSTUA, PIOTR PIECUCH
     UNIVERSITY OF MINNESOTA:
          ANDREW SAND, PRACHI SHARMA, YINAN SHU
     UNIVERSITY OF SILESIA: MONIKA MUSIAL, STANISLAW KUCHARSKI
     FACULTES UNIVERSITAIRES NOTRE-DAME DE LA PAIX:
          OLIVIER QUINET, BENOIT CHAMPAGNE
     UNIVERSITY OF CALIFORNIA - SANTA BARBARA: BERNARD KIRTMAN
     INSTITUTE FOR MOLECULAR SCIENCE:
          KAZUYA ISHIMURA, MICHIO KATOUDA, AND SHIGERU NAGASE
     UNIVERSITY OF NOTRE DAME: ANNA POMOGAEVA, DAN CHIPMAN
     KYUSHU UNIVERSITY:
          HARUYUKI NAKANO,
          FENG LONG GU, JACEK KORCHOWIEC, MARCIN MAKOWSKI, AND YURIKO AOKI,
          HIROTOSHI MORI AND EISAKU MIYOSHI
     PENNSYLVANIA STATE UNIVERSITY:
          TZVETELIN IORDANOV, CHET SWALINA, JONATHAN SKONE,
          SHARON HAMMES-SCHIFFER
     WASEDA UNIVERSITY:
          MASATO KOBAYASHI, TOMOKO AKAMA, TSUGUKI TOUMA,
          TAKESHI YOSHIKAWA, YASUHIRO IKABATA, JUNJI SEINO,
          YUYA NAKAJIMA, HIROMI NAKAI
     NANJING UNIVERSITY: SHUHUA LI
     UNIVERSITY OF NEBRASKA:
          PEIFENG SU, DEJUN SI, NANDUN THELLAMUREGE, YALI WANG, HUI LI
     UNIVERSITY OF ZURICH: ROBERTO PEVERATI, KIM BALDRIDGE
     N. COPERNICUS UNIVERSITY AND JACKSON STATE UNIVERSITY:
          MARIA BARYSZ
     UNIVERSITY OF COPENHAGEN: Jimmy Kromann, CASPER STEINMANN
     TOKYO INSTITUTE OF TECHNOLOGY: HIROYA NAKATA
     NAGOYA UNIVERSITY: YOSHIO NISHIMOTO, STEPHAN IRLE
     MOSCOW STATE UNIVERSITY: VLADIMIR MIRONOV
     A.N.NESMEYANOV INSTITUTE OF ORGANOELEMENT COMPOUNDS OF RUSSIAN ACADEMY OF SCIENCES:
          IGOR S. GERASIMOV
     JOHANNES KEPLER UNIVERSITY LINZ:
          CHRISTIAN FRIEDL


 PARALLEL VERSION RUNNING ON        8 PROCESSORS IN        1 NODES.

 EXECUTION OF GAMESS BEGUN Thu May 21 21:03:46 2020

            ECHO OF THE FIRST FEW INPUT CARDS -
 INPUT CARD> $BASIS GBASIS=N21 NGAUSS=3 $END                                                
 INPUT CARD> $CONTRL SCFTYP=UHF MAXIT=60 MULT=2 ICHARG=1 $END                               
 INPUT CARD> $SYSTEM MEMDDI=1000 MWORDS=30 $END                                             
 INPUT CARD> $SCF DIRSCF=.TRUE. $END                                                        
 INPUT CARD> $STATPT OPTTOL=0.0001 NSTEP=999 $END                                           
 INPUT CARD> $DATA                                                                          
 INPUT CARD>                                                                                
 INPUT CARD>C1                                                                              
 INPUT CARD>O 8.0000000 -1.4277746328 2.5159749191 -0.2544729918                            
 INPUT CARD>C 6.0000000 -0.8092194040 1.3389667406 0.2599963320                             
 INPUT CARD>C 6.0000000 -1.6659253395 0.1796662270 -0.2278471025                            
 INPUT CARD>H 1.0000000 -1.6783551369 0.2228485926 -1.3244358872                            
 INPUT CARD>O 8.0000000 -3.0012969751 0.2167498462 0.3472101498                             
 INPUT CARD>C 6.0000000 -1.0376910996 -1.1191278810 0.2311964745                            
 INPUT CARD>H 1.0000000 -1.0086591334 -1.1264109088 1.3314581623                            
 INPUT CARD>O 8.0000000 -1.7454155926 -2.2825278787 -0.2830739300                           
 INPUT CARD>C 6.0000000 0.3873307443 -1.2192160160 -0.2952159139                            
 INPUT CARD>H 1.0000000 0.3471422729 -1.2049572623 -1.3942154622                            
 INPUT CARD>O 8.0000000 1.0246908871 -2.4185424665 0.2177087048                             
 INPUT CARD>C 6.0000000 1.1920915714 -0.0113095556 0.1957867842                             
 INPUT CARD>H 1.0000000 1.2344128506 -0.0308788754 1.2928714941                             
 INPUT CARD>O 8.0000000 0.5294829356 1.2139532658 -0.2866931487                             
 INPUT CARD>C 6.0000000 2.6117834271 -0.0236451456 -0.3363515157                            
 INPUT CARD>O 8.0000000 3.3598384995 0.9501677139 0.4516835264                              
 INPUT CARD>H 1.0000000 -0.7682307972 1.3295822841 1.3626133907                             
 INPUT CARD>H 1.0000000 -3.3669253864 1.1166886180 0.1261434680                             
 INPUT CARD>H 1.0000000 -2.7050241470 -2.1350774617 -0.0585558438                           
 INPUT CARD>H 1.0000000 0.3489956807 -3.1414879189 0.0851732569                             
 INPUT CARD>H 1.0000000 2.9882043388 -1.0486867194 -0.2175952105                            
 INPUT CARD>H 1.0000000 2.5755250319 0.2314098000 -1.4053726006                             
 INPUT CARD>H 1.0000000 4.2975419543 0.9470857283 0.1199745021                              
 INPUT CARD>H 1.0000000 -0.8581728496 3.2976244542 -0.0221566391                            
 INPUT CARD> $END                                                                           
   30000000 WORDS OF MEMORY AVAILABLE

     BASIS OPTIONS
     -------------
     GBASIS=N21          IGAUSS=       3      POLAR=NONE    
     NDFUNC=       0     NFFUNC=       0     DIFFSP=       F
     NPFUNC=       0      DIFFS=       F     BASNAM=        


     RUN TITLE
     ---------
                                                                                 

 THE POINT GROUP OF THE MOLECULE IS C1      
 THE ORDER OF THE PRINCIPAL AXIS IS     0

 ATOM      ATOMIC                      COORDINATES (BOHR)
           CHARGE         X                   Y                   Z
 O           8.0    -2.6981028282        4.7545031891       -0.4808842258
 C           6.0    -1.5292029375        2.5302802464        0.4913218253
 C           6.0    -3.1481424077        0.3395199383       -0.4305685908
 H           1.0    -3.1716313188        0.4211227768       -2.5028209151
 O           8.0    -5.6716288907        0.4095978172        0.6561320433
 C           6.0    -1.9609518381       -2.1148450403        0.4368979861
 H           1.0    -1.9060893771       -2.1286079672        2.5160910909
 O           8.0    -3.2983572047       -4.3133522501       -0.5349321620
 C           6.0     0.7319489733       -2.3039841901       -0.5578771845
 H           1.0     0.6560037745       -2.2770390527       -2.6346851914
 O           8.0     1.9363849987       -4.5703825514        0.4114097972
 C           6.0     2.2527264222       -0.0213719611        0.3699833742
 H           1.0     2.3327020434       -0.0583526133        2.4431728612
 O           8.0     1.0005776635        2.2940390343       -0.5417714936
 C           6.0     4.9355550165       -0.0446828461       -0.6356122002
 O           8.0     6.3491741271        1.7955566217        0.8535580981
 H           1.0    -1.4517457020        2.5125461951        2.5749659356
 H           1.0    -6.3625664014        2.1102355016        0.2383765897
 H           1.0    -5.1117544280       -4.0347113652       -0.1106544998
 H           1.0     0.6595062074       -5.9365513605        0.1609541170
 H           1.0     5.6468873957       -1.9817305466       -0.4111953241
 H           1.0     4.8670365848        0.4373011129       -2.6557691258
 H           1.0     8.1211767144        1.7897325134        0.2267189345
 H           1.0    -1.6217115358        6.2316066288       -0.0418699767

          INTERNUCLEAR DISTANCES (ANGS.)
          ------------------------------

                1 O          2 C          3 C          4 H          5 O     

   1 O       0.0000000    1.4257060 *  2.3485662 *  2.5428408 *  2.8503388 *
   2 C       1.4257060 *  0.0000000    1.5218127 *  2.1240391 *  2.4641796 *
   3 C       2.3485662 *  1.5218127 *  0.0000000    1.0975091 *  1.4544014 *
   4 H       2.5428408 *  2.1240391 *  1.0975091 *  0.0000000    2.1318097 *
   5 O       2.8503388 *  2.4641796 *  1.4544014 *  2.1318097 *  0.0000000  
   6 C       3.6880906    2.4688576 *  1.5140229 *  2.1520556 *  2.3777671 *
   7 H       3.9947228    2.6955322 *  2.1375849 *  3.0533207    2.5968116 *
   8 O       4.8090896    3.7797635    2.4640959 *  2.7140087 *  2.8672086 *
   9 C       4.1530614    2.8782446 *  2.4854116 *  2.7213787 *  3.7359747  
  10 H       4.2772280    3.2473279    2.7074044 *  2.4791407 *  4.0330955  
  11 O       5.5305519    4.1813743    3.7667790    4.0818641    4.8135345  
  12 C       3.6679149    2.4150807 *  2.8955480 *  3.2565889    4.2023146  
  13 H       3.9959957    2.6682843 *  3.2815965    3.9241423    4.3470488  
  14 O       2.3509904 *  1.4514206 *  2.4275564 *  2.6332010 *  3.7232586  
  15 C       4.7722535    3.7303622    4.2839119    4.4093490    5.6596570  
  16 O       5.0864181    4.1915334    5.1296917    5.3913809    6.4041284  
  17 H       2.1112778 *  1.1034186 *  2.1581768 *  3.0452290    2.6937009 *
  18 H       2.4213997 *  2.5708333 *  1.9740115 *  2.3988330 *  0.9962150 *
  19 H       4.8272185    3.9704577    2.5429165 *  2.8664118 *  2.4048940 *
  20 H       5.9396261    4.6310365    3.8971725    4.1732373    4.7508826  
  21 H       5.6753011    4.5110320    4.8135101    4.9617210    6.1477200  
  22 H       4.7508121    3.9314922    4.4021750    4.2546587    5.8457425  
  23 H       5.9481824    5.1236889    6.0226950    6.1904916    7.3388062  
  24 H       0.9946824 *  1.9794814 *  3.2274504    3.4384410    3.7711008  

                6 C          7 H          8 O          9 C         10 H     

   1 O       3.6880906    3.9947228    4.8090896    4.1530614    4.2772280  
   2 C       2.4688576 *  2.6955322 *  3.7797635    2.8782446 *  3.2473279  
   3 C       1.5140229 *  2.1375849 *  2.4640959 *  2.4854116 *  2.7074044 *
   4 H       2.1520556 *  3.0533207    2.7140087 *  2.7213787 *  2.4791407 *
   5 O       2.3777671 *  2.5968116 *  2.8672086 *  3.7359747    4.0330955  
   6 C       0.0000000    1.1006687 *  1.4556262 *  1.5224372 *  2.1370761 *
   7 H       1.1006687 *  0.0000000    2.1180487 *  2.1455696 *  3.0452691  
   8 O       1.4556262 *  2.1180487 *  0.0000000    2.3831463 *  2.6028047 *
   9 C       1.5224372 *  2.1455696 *  2.3831463 *  0.0000000    1.0998265 *
  10 H       2.1370761 *  3.0452691    2.6028047 *  1.0998265 *  0.0000000  
  11 O       2.4376381 *  2.6541579 *  2.8182926 *  1.4517932 *  2.1284174 *
  12 C       2.4900695 *  2.7159720 *  3.7438868    1.5322407 *  2.1602873 *
  13 H       2.7338427 *  2.4966080 *  4.0537519    2.1567835 *  3.0636817  
  14 O       2.8578859 *  3.2344395    4.1713975    2.4373331 *  2.6666424 *
  15 C       3.8523833    4.1358537    4.9082148    2.5257220 *  2.7646291 *
  16 O       4.8650658    4.9162947    6.0871840    3.7549816    4.1386284  
  17 H       2.7108845 *  2.4679301 *  4.0878499    3.2527055    3.9074356  
  18 H       3.2303628    3.4706914    3.7883276    4.4416701    4.6363595  
  19 H       1.9738565 *  2.4139597 *  0.9964931 *  3.2338010    3.4590215  
  20 H       2.4564534 *  2.7307486 *  2.2934640 *  1.9599221 *  2.4369541 *
  21 H       4.0514454    4.2872515    4.8922192    2.6076136 *  2.8955249 *
  22 H       4.1901839    4.7095961    5.1234720    2.8504311 *  2.6512194 *
  23 H       5.7224401    5.8243327    6.8636862    4.4894318    4.7465480  
  24 H       4.4276535    4.6289316    5.6562689    4.6933664    4.8588653  

               11 O         12 C         13 H         14 O         15 C     

   1 O       5.5305519    3.6679149    3.9959957    2.3509904 *  4.7722535  
   2 C       4.1813743    2.4150807 *  2.6682843 *  1.4514206 *  3.7303622  
   3 C       3.7667790    2.8955480 *  3.2815965    2.4275564 *  4.2839119  
   4 H       4.0818641    3.2565889    3.9241423    2.6332010 *  4.4093490  
   5 O       4.8135345    4.2023146    4.3470488    3.7232586    5.6596570  
   6 C       2.4376381 *  2.4900695 *  2.7338427 *  2.8578859 *  3.8523833  
   7 H       2.6541579 *  2.7159720 *  2.4966080 *  3.2344395    4.1358537  
   8 O       2.8182926 *  3.7438868    4.0537519    4.1713975    4.9082148  
   9 C       1.4517932 *  1.5322407 *  2.1567835 *  2.4373331 *  2.5257220 *
  10 H       2.1284174 *  2.1602873 *  3.0636817    2.6666424 *  2.7646291 *
  11 O       0.0000000    2.4131460 *  2.6269556 *  3.7006320    2.9259834 *
  12 C       2.4131460 *  0.0000000    1.0980751 *  1.4741459 *  1.5161953 *
  13 H       2.6269556 *  1.0980751 *  0.0000000    2.1310931 *  2.1334408 *
  14 O       3.7006320    1.4741459 *  2.1310931 *  0.0000000    2.4228271 *
  15 C       2.9259834 *  1.5161953 *  2.1334408 *  2.4228271 *  0.0000000  
  16 O       4.1055897    2.3851726 *  2.4874653 *  2.9369534 *  1.4590741 *
  17 H       4.3097348    2.6461933 *  2.4220446 *  2.1018190 *  4.0177360  
  18 H       5.6384871    4.6970060    4.8836952    3.9194250    6.1040332  
  19 H       3.7506598    4.4455136    4.6661731    4.6615544    5.7274566  
  20 H       0.9983886 *  3.2436188    3.4523017    4.3750118    3.8754142  
  21 H       2.4333884 *  2.1149603 *  2.5284832 *  3.3420989    1.0984107 *
  22 H       3.4729996    2.1299090 *  3.0245493    2.5304394 *  1.0996244 *
  23 H       4.6955893    3.2508601    3.4226981    3.7993244    1.9980825 *
  24 H       6.0230620    3.8987341    4.1457386    2.5173903 *  4.8135379  

               16 O         17 H         18 H         19 H         20 H     

   1 O       5.0864181    2.1112778 *  2.4213997 *  4.8272185    5.9396261  
   2 C       4.1915334    1.1034186 *  2.5708333 *  3.9704577    4.6310365  
   3 C       5.1296917    2.1581768 *  1.9740115 *  2.5429165 *  3.8971725  
   4 H       5.3913809    3.0452290    2.3988330 *  2.8664118 *  4.1732373  
   5 O       6.4041284    2.6937009 *  0.9962150 *  2.4048940 *  4.7508826  
   6 C       4.8650658    2.7108845 *  3.2303628    1.9738565 *  2.4564534 *
   7 H       4.9162947    2.4679301 *  3.4706914    2.4139597 *  2.7307486 *
   8 O       6.0871840    4.0878499    3.7883276    0.9964931 *  2.2934640 *
   9 C       3.7549816    3.2527055    4.4416701    3.2338010    1.9599221 *
  10 H       4.1386284    3.9074356    4.6363595    3.4590215    2.4369541 *
  11 O       4.1055897    4.3097348    5.6384871    3.7506598    0.9983886 *
  12 C       2.3851726 *  2.6461933 *  4.6970060    4.4455136    3.2436188  
  13 H       2.4874653 *  2.4220446 *  4.8836952    4.6661731    3.4523017  
  14 O       2.9369534 *  2.1018190 *  3.9194250    4.6615544    4.3750118  
  15 C       1.4590741 *  4.0177360    6.1040332    5.7274566    3.8754142  
  16 O       0.0000000    4.2443733    6.7366949    6.8236091    5.0932455  
  17 H       4.2443733    0.0000000    2.8857226 *  4.2160121    4.7823129  
  18 H       6.7366949    2.8857226 *  0.0000000    3.3235839    5.6517091  
  19 H       6.8236091    4.2160121    3.3235839    0.0000000    3.2187819  
  20 H       5.0932455    4.7823129    5.6517091    3.2187819    0.0000000  
  21 H       2.1404357 *  4.7184773    6.7226989    5.7981367    3.3818498  
  22 H       2.1401911 *  4.4775476    6.2001594    5.9412437    4.3076210  
  23 H       0.9946498 *  5.2299626    7.6663461    7.6529429    5.6840710  
  24 H       4.8504327    2.4080838 *  3.3275086    5.7381560    6.5521709  

               21 H         22 H         23 H         24 H     

   1 O       5.6753011    4.7508121    5.9481824    0.9946824 *
   2 C       4.5110320    3.9314922    5.1236889    1.9794814 *
   3 C       4.8135101    4.4021750    6.0226950    3.2274504  
   4 H       4.9617210    4.2546587    6.1904916    3.4384410  
   5 O       6.1477200    5.8457425    7.3388062    3.7711008  
   6 C       4.0514454    4.1901839    5.7224401    4.4276535  
   7 H       4.2872515    4.7095961    5.8243327    4.6289316  
   8 O       4.8922192    5.1234720    6.8636862    5.6562689  
   9 C       2.6076136 *  2.8504311 *  4.4894318    4.6933664  
  10 H       2.8955249 *  2.6512194 *  4.7465480    4.8588653  
  11 O       2.4333884 *  3.4729996    4.6955893    6.0230620  
  12 C       2.1149603 *  2.1299090 *  3.2508601    3.8987341  
  13 H       2.5284832 *  3.0245493    3.4226981    4.1457386  
  14 O       3.3420989    2.5304394 *  3.7993244    2.5173903 *
  15 C       1.0984107 *  1.0996244 *  1.9980825 *  4.8135379  
  16 O       2.1404357 *  2.1401911 *  0.9946498 *  4.8504327  
  17 H       4.7184773    4.4775476    5.2299626    2.4080838 *
  18 H       6.7226989    6.2001594    7.6663461    3.3275086  
  19 H       5.7981367    5.9412437    7.6529429    5.7381560  
  20 H       3.3818498    4.3076210    5.6840710    6.5521709  
  21 H       0.0000000    1.7943708 *  2.4106899 *  5.8071710  
  22 H       1.7943708 *  0.0000000    2.4091945 *  4.8067910  
  23 H       2.4106899 *  2.4091945 *  0.0000000    5.6680357  
  24 H       5.8071710    4.8067910    5.6680357    0.0000000  

  * ... LESS THAN  3.000


     ATOMIC BASIS SET
     ----------------
 THE CONTRACTED PRIMITIVE FUNCTIONS HAVE BEEN UNNORMALIZED
 THE CONTRACTED BASIS FUNCTIONS ARE NOW NORMALIZED TO UNITY

  SHELL TYPE  PRIMITIVE        EXPONENT          CONTRACTION COEFFICIENT(S)

 O         

      1   S       1           322.0370000    0.059239393389
      1   S       2            48.4308000    0.351499960776
      1   S       3            10.4206000    0.707657921031

      2   L       4             7.4029400   -0.404453583190    0.244586106967
      2   L       5             1.5762000    1.221561761397    0.853955373466

      3   L       6             0.3736840    1.000000000000    1.000000000000

 C         

      4   S       7           172.2560000    0.061766907377
      4   S       8            25.9109000    0.358794042852
      4   S       9             5.5333500    0.700713083689

      5   L      10             3.6649800   -0.395895162119    0.236459946619
      5   L      11             0.7705450    1.215834355681    0.860618805716

      6   L      12             0.1958570    1.000000000000    1.000000000000

 C         

      7   S      13           172.2560000    0.061766907377
      7   S      14            25.9109000    0.358794042852
      7   S      15             5.5333500    0.700713083689

      8   L      16             3.6649800   -0.395895162119    0.236459946619
      8   L      17             0.7705450    1.215834355681    0.860618805716

      9   L      18             0.1958570    1.000000000000    1.000000000000

 H         

     10   S      19             5.4471780    0.156284978695
     10   S      20             0.8245472    0.904690876670

     11   S      21             0.1831916    1.000000000000

 O         

     12   S      22           322.0370000    0.059239393389
     12   S      23            48.4308000    0.351499960776
     12   S      24            10.4206000    0.707657921031

     13   L      25             7.4029400   -0.404453583190    0.244586106967
     13   L      26             1.5762000    1.221561761397    0.853955373466

     14   L      27             0.3736840    1.000000000000    1.000000000000

 C         

     15   S      28           172.2560000    0.061766907377
     15   S      29            25.9109000    0.358794042852
     15   S      30             5.5333500    0.700713083689

     16   L      31             3.6649800   -0.395895162119    0.236459946619
     16   L      32             0.7705450    1.215834355681    0.860618805716

     17   L      33             0.1958570    1.000000000000    1.000000000000

 H         

     18   S      34             5.4471780    0.156284978695
     18   S      35             0.8245472    0.904690876670

     19   S      36             0.1831916    1.000000000000

 O         

     20   S      37           322.0370000    0.059239393389
     20   S      38            48.4308000    0.351499960776
     20   S      39            10.4206000    0.707657921031

     21   L      40             7.4029400   -0.404453583190    0.244586106967
     21   L      41             1.5762000    1.221561761397    0.853955373466

     22   L      42             0.3736840    1.000000000000    1.000000000000

 C         

     23   S      43           172.2560000    0.061766907377
     23   S      44            25.9109000    0.358794042852
     23   S      45             5.5333500    0.700713083689

     24   L      46             3.6649800   -0.395895162119    0.236459946619
     24   L      47             0.7705450    1.215834355681    0.860618805716

     25   L      48             0.1958570    1.000000000000    1.000000000000

 H         

     26   S      49             5.4471780    0.156284978695
     26   S      50             0.8245472    0.904690876670

     27   S      51             0.1831916    1.000000000000

 O         

     28   S      52           322.0370000    0.059239393389
     28   S      53            48.4308000    0.351499960776
     28   S      54            10.4206000    0.707657921031

     29   L      55             7.4029400   -0.404453583190    0.244586106967
     29   L      56             1.5762000    1.221561761397    0.853955373466

     30   L      57             0.3736840    1.000000000000    1.000000000000

 C         

     31   S      58           172.2560000    0.061766907377
     31   S      59            25.9109000    0.358794042852
     31   S      60             5.5333500    0.700713083689

     32   L      61             3.6649800   -0.395895162119    0.236459946619
     32   L      62             0.7705450    1.215834355681    0.860618805716

     33   L      63             0.1958570    1.000000000000    1.000000000000

 H         

     34   S      64             5.4471780    0.156284978695
     34   S      65             0.8245472    0.904690876670

     35   S      66             0.1831916    1.000000000000

 O         

     36   S      67           322.0370000    0.059239393389
     36   S      68            48.4308000    0.351499960776
     36   S      69            10.4206000    0.707657921031

     37   L      70             7.4029400   -0.404453583190    0.244586106967
     37   L      71             1.5762000    1.221561761397    0.853955373466

     38   L      72             0.3736840    1.000000000000    1.000000000000

 C         

     39   S      73           172.2560000    0.061766907377
     39   S      74            25.9109000    0.358794042852
     39   S      75             5.5333500    0.700713083689

     40   L      76             3.6649800   -0.395895162119    0.236459946619
     40   L      77             0.7705450    1.215834355681    0.860618805716

     41   L      78             0.1958570    1.000000000000    1.000000000000

 O         

     42   S      79           322.0370000    0.059239393389
     42   S      80            48.4308000    0.351499960776
     42   S      81            10.4206000    0.707657921031

     43   L      82             7.4029400   -0.404453583190    0.244586106967
     43   L      83             1.5762000    1.221561761397    0.853955373466

     44   L      84             0.3736840    1.000000000000    1.000000000000

 H         

     45   S      85             5.4471780    0.156284978695
     45   S      86             0.8245472    0.904690876670

     46   S      87             0.1831916    1.000000000000

 H         

     47   S      88             5.4471780    0.156284978695
     47   S      89             0.8245472    0.904690876670

     48   S      90             0.1831916    1.000000000000

 H         

     49   S      91             5.4471780    0.156284978695
     49   S      92             0.8245472    0.904690876670

     50   S      93             0.1831916    1.000000000000

 H         

     51   S      94             5.4471780    0.156284978695
     51   S      95             0.8245472    0.904690876670

     52   S      96             0.1831916    1.000000000000

 H         

     53   S      97             5.4471780    0.156284978695
     53   S      98             0.8245472    0.904690876670

     54   S      99             0.1831916    1.000000000000

 H         

     55   S     100             5.4471780    0.156284978695
     55   S     101             0.8245472    0.904690876670

     56   S     102             0.1831916    1.000000000000

 H         

     57   S     103             5.4471780    0.156284978695
     57   S     104             0.8245472    0.904690876670

     58   S     105             0.1831916    1.000000000000

 H         

     59   S     106             5.4471780    0.156284978695
     59   S     107             0.8245472    0.904690876670

     60   S     108             0.1831916    1.000000000000

 TOTAL NUMBER OF BASIS SET SHELLS             =   60
 NUMBER OF CARTESIAN GAUSSIAN BASIS FUNCTIONS =  132
 NUMBER OF ELECTRONS                          =   95
 CHARGE OF MOLECULE                           =    1
 SPIN MULTIPLICITY                            =    2
 NUMBER OF OCCUPIED ORBITALS (ALPHA)          =   48
 NUMBER OF OCCUPIED ORBITALS (BETA )          =   47
 TOTAL NUMBER OF ATOMS                        =   24
 THE NUCLEAR REPULSION ENERGY IS      816.4741506658

     $CONTRL OPTIONS
     ---------------
 SCFTYP=UHF          RUNTYP=ENERGY       EXETYP=RUN     
 MPLEVL=       0     CITYP =NONE         CCTYP =NONE         VBTYP =NONE    
 DFTTYP=NONE         TDDFT =NONE    
 MULT  =       2     ICHARG=       1     NZVAR =       0     COORD =UNIQUE  
 PP    =NONE         RELWFN=NONE         LOCAL =NONE         NUMGRD=       F
 ISPHER=      -1     NOSYM =       0     MAXIT =      60     UNITS =ANGS    
 PLTORB=       F     MOLPLT=       F     AIMPAC=       F     FRIEND=        
 NPRINT=       7     IREST =       0     GEOM  =INPUT   
 NORMF =       0     NORMP =       0     ITOL  =      20     ICUT  =       9
 INTTYP=BEST         GRDTYP=BEST         QMTTOL= 1.0E-06

     $SYSTEM OPTIONS
     ---------------
  REPLICATED MEMORY=    30000000 WORDS (ON EVERY NODE).
 DISTRIBUTED MEMDDI=        1000 MILLION WORDS IN AGGREGATE,
 MEMDDI DISTRIBUTED OVER   8 PROCESSORS IS   125000000 WORDS/PROCESSOR.
 TOTAL MEMORY REQUESTED ON EACH PROCESSOR=   155000000 WORDS.
 TIMLIM=      525600.00 MINUTES, OR     365.0 DAYS.
 PARALL= T  BALTYP=  DLB     KDIAG=    0  COREFL= F
 MXSEQ2=     300 MXSEQ3=     150  mem10=         0

          ----------------
          PROPERTIES INPUT
          ----------------

     MOMENTS            FIELD           POTENTIAL          DENSITY
 IEMOM =       1   IEFLD =       0   IEPOT =       0   IEDEN =       0
 WHERE =COMASS     WHERE =NUCLEI     WHERE =NUCLEI     WHERE =NUCLEI  
 OUTPUT=BOTH       OUTPUT=BOTH       OUTPUT=BOTH       OUTPUT=BOTH    
 IEMINT=       0   IEFINT=       0                     IEDINT=       0
                                                       MORB  =       0
          EXTRAPOLATION IN EFFECT
          SOSCF IN EFFECT
          DIIS or SOSCF will be reset if energy rises
 ORBITAL PRINTING OPTION: NPREO=     1   132     2     1

     -------------------------------
     INTEGRAL TRANSFORMATION OPTIONS
     -------------------------------
     NWORD  =            0
     CUTOFF = 1.0E-09     MPTRAN =       0
     DIRTRF =       T     AOINTS =DUP     

          ----------------------
          INTEGRAL INPUT OPTIONS
          ----------------------
 NOPK  =       1 NORDER=       0 SCHWRZ=       T

     ------------------------------------------
     THE POINT GROUP IS C1 , NAXIS= 0, ORDER= 1
     ------------------------------------------

     DIMENSIONS OF THE SYMMETRY SUBSPACES ARE
 A   =  132

 ..... DONE SETTING UP THE RUN .....
 CPU     0: STEP CPU TIME=     0.03 TOTAL CPU TIME=          0.0 (      0.0 MIN)
 TOTAL WALL CLOCK TIME=          0.1 SECONDS, CPU UTILIZATION IS    42.86%

          ********************
          1 ELECTRON INTEGRALS
          ********************
 ...... END OF ONE-ELECTRON INTEGRALS ......
 CPU     0: STEP CPU TIME=     0.01 TOTAL CPU TIME=          0.0 (      0.0 MIN)
 TOTAL WALL CLOCK TIME=          0.1 SECONDS, CPU UTILIZATION IS    44.44%

          -------------
          GUESS OPTIONS
          -------------
          GUESS =HUCKEL            NORB  =       0          NORDER=       0
          MIX   =       F          PRTMO =       F          PUNMO =       F
          TOLZ  = 1.0E-08          TOLE  = 1.0E-05
          SYMDEN=       F          PURIFY=       F

 INITIAL GUESS ORBITALS GENERATED BY HUCKEL   ROUTINE.
 HUCKEL GUESS REQUIRES    164928 WORDS.

 SYMMETRIES FOR INITIAL GUESS ORBITALS FOLLOW.  ALPHA SET(S).
    48 ORBITALS ARE OCCUPIED (   12 CORE ORBITALS).
    13=A       14=A       15=A       16=A       17=A       18=A       19=A   
    20=A       21=A       22=A       23=A       24=A       25=A       26=A   
    27=A       28=A       29=A       30=A       31=A       32=A       33=A   
    34=A       35=A       36=A       37=A       38=A       39=A       40=A   
    41=A       42=A       43=A       44=A       45=A       46=A       47=A   
    48=A       49=A       50=A       51=A       52=A       53=A       54=A   
    55=A       56=A       57=A       58=A   

 SYMMETRIES FOR INITIAL GUESS ORBITALS FOLLOW.   BETA SET(S).
    47 ORBITALS ARE OCCUPIED (   12 CORE ORBITALS).
    13=A       14=A       15=A       16=A       17=A       18=A       19=A   
    20=A       21=A       22=A       23=A       24=A       25=A       26=A   
    27=A       28=A       29=A       30=A       31=A       32=A       33=A   
    34=A       35=A       36=A       37=A       38=A       39=A       40=A   
    41=A       42=A       43=A       44=A       45=A       46=A       47=A   
    48=A       49=A       50=A       51=A       52=A       53=A       54=A   
    55=A       56=A       57=A   
 ...... END OF INITIAL ORBITAL SELECTION ......
 CPU     0: STEP CPU TIME=     0.06 TOTAL CPU TIME=          0.1 (      0.0 MIN)
 TOTAL WALL CLOCK TIME=          0.2 SECONDS, CPU UTILIZATION IS    58.82%

                    ----------------------
                    AO INTEGRAL TECHNOLOGY
                    ----------------------
     S,P,L SHELL ROTATED AXIS INTEGRALS, REPROGRAMMED BY
        KAZUYA ISHIMURA (IMS) AND JOSE SIERRA (SYNSTAR).
     S,P,D,L SHELL ROTATED AXIS INTEGRALS PROGRAMMED BY
        KAZUYA ISHIMURA (INSTITUTE FOR MOLECULAR SCIENCE).
     S,P,D,F,G SHELL TO TOTAL QUARTET ANGULAR MOMENTUM SUM 5,
        ERIC PROGRAM BY GRAHAM FLETCHER (ELORET AND NASA ADVANCED
        SUPERCOMPUTING DIVISION, AMES RESEARCH CENTER).
     S,P,D,F,G,L SHELL GENERAL RYS QUADRATURE PROGRAMMED BY
        MICHEL DUPUIS (PACIFIC NORTHWEST NATIONAL LABORATORY).

          --------------------
          2 ELECTRON INTEGRALS
          --------------------

 DIRECT SCF METHOD SKIPS INTEGRAL STORAGE ON DISK.
 DIRECT TRANSFORMATION SKIPS AO INTEGRAL STORAGE ON DISK.
  ...... END OF TWO-ELECTRON INTEGRALS .....
 CPU     0: STEP CPU TIME=     0.01 TOTAL CPU TIME=          0.1 (      0.0 MIN)
 TOTAL WALL CLOCK TIME=          0.2 SECONDS, CPU UTILIZATION IS    57.89%

          ---------------------------
                  UHF SCF CALCULATION
          ---------------------------

     NUCLEAR ENERGY =       816.4741506658
     MAXIT = 60     NPUNCH=  2     MULT=  2
     EXTRAP=T  DAMP=F  SHIFT=F  RSTRCT=F  DIIS=F  SOSCF=T
     DENSITY MATRIX CONV=  2.00E-05
     SOSCF WILL OPTIMIZE    4032 ALPHA AND    3995 BETA ROTATION ANGLES.
     SOGTOL= 2.500E-01
     MEMORY REQUIRED FOR UHF/ROHF ITERS=    280557 WORDS.

 DIRECT SCF CALCULATION, SCHWRZ=T   FDIFF=T
 SCHWARZ INEQUALITY OVERHEAD:      7999 INTEGRALS, T=        0.00

                                                                                NONZERO     BLOCKS
 ITER EX      TOTAL ENERGY        E CHANGE  DENSITY CHANGE    ORB. GRAD       INTEGRALS    SKIPPED
   1  0     -677.1704012731  -677.1704012731   0.900743259   0.000000000       20218949     908031
          ---------------START SECOND ORDER SCF---------------
   2  1     -679.0299490035    -1.8595477304   0.142169315   0.054749625       20167794     921688
   3  2     -679.1420945818    -0.1121455783   0.135764445   0.024808464       19953520     960513
   4  3     -679.1810710343    -0.0389764526   0.043286141   0.018079890       19761881     983368
   5  4     -679.1953082594    -0.0142372251   0.076572376   0.014290953       19660279     996824
   6  5     -679.1988001283    -0.0034918689   0.053407646   0.014518014       19870702     973484
   7  6     -679.2083367285    -0.0095366002   0.017194577   0.005471051       19641802     996365
   8  7     -679.2103279255    -0.0019911971   0.030634978   0.004917799       19033099    1045485
   9  8     -679.2115840850    -0.0012561594   0.011332955   0.004350924       19180660    1033712
  10  9     -679.2120177474    -0.0004336624   0.021604646   0.002912613       18460581    1078619
  11 10     -679.2124436091    -0.0004258617   0.005356394   0.000944435       18744601    1061830
  12 11     -679.2125073569    -0.0000637477   0.002803264   0.000654866       18113664    1094382
  13 12     -679.2125293042    -0.0000219474   0.001336167   0.000316771       17800108    1109857
  14 13     -679.2125344075    -0.0000051033   0.000789477   0.000127504       17003932    1151643
  15 14     -679.2125357892    -0.0000013817   0.000233942   0.000049083       16524384    1171194
  16 15     -679.2125360167    -0.0000002275   0.000095856   0.000021012       15686278    1205894
  17 16     -679.2125360630    -0.0000000463   0.000062317   0.000008880       14721460    1242791
  18 17     -679.2125360732    -0.0000000102   0.000028300   0.000004269       13794734    1276756
  19 18     -679.2125360748    -0.0000000016   0.000017272   0.000001928       12911471    1308609
  20 19     -679.2125360759    -0.0000000011   0.000007419   0.000001535       12281257    1331950

          -----------------
          DENSITY CONVERGED
          -----------------
     TIME TO FORM FOCK OPERATORS=       4.9 SECONDS (       0.2 SEC/ITER)
     FOCK TIME ON FIRST ITERATION=       0.2, LAST ITERATION=       0.2
     TIME TO SOLVE SCF EQUATIONS=       0.3 SECONDS (       0.0 SEC/ITER)

 FINAL UHF ENERGY IS     -679.2125360759 AFTER  20 ITERATIONS

          --------------------
          SPIN SZ   =    0.500
          S-SQUARED =    0.761
          --------------------

  ----- ALPHA SET ----- 

          ------------
          EIGENVECTORS
          ------------

                      1          2          3          4          5
                  -20.9070   -20.6847   -20.6454   -20.6251   -20.6186
                     A          A          A          A          A   
    1  O  1  S    0.001181   0.983599  -0.002469   0.001221   0.000601
    2  O  1  S    0.001294   0.098713   0.000091  -0.000239  -0.000142
    3  O  1  X    0.000423   0.003260  -0.000180  -0.000044  -0.000070
    4  O  1  Y   -0.000194  -0.001245  -0.000360   0.000099  -0.000050
    5  O  1  Z   -0.000223   0.001987  -0.000178   0.000039  -0.000094
    6  O  1  S   -0.004153  -0.048409  -0.000330   0.001414   0.001018
    7  O  1  X   -0.002908  -0.008262   0.000363   0.000416   0.000402
    8  O  1  Y    0.002020   0.006593   0.001106  -0.000809  -0.000033
    9  O  1  Z    0.000702  -0.004838   0.000807  -0.000104   0.000503
   10  C  2  S   -0.000853  -0.000981   0.000147   0.000076  -0.000080
   11  C  2  S   -0.003306  -0.003720   0.000424   0.000148  -0.000546
   12  C  2  X    0.001643  -0.000041   0.000487  -0.000150   0.000089
   13  C  2  Y    0.000042   0.001228   0.000475   0.000356   0.000489
   14  C  2  Z   -0.000180  -0.000012   0.000385  -0.000139  -0.000044
   15  C  2  S    0.018639   0.025133  -0.004430  -0.003230   0.000417
   16  C  2  X    0.007792  -0.006911   0.003943   0.000325   0.001260
   17  C  2  Y   -0.000866   0.009402   0.002028  -0.000199  -0.002544
   18  C  2  Z   -0.007181  -0.010600  -0.003738   0.002936   0.000015
   19  C  3  S    0.000117   0.000310  -0.000980  -0.000138   0.000232
   20  C  3  S    0.000071   0.001345  -0.004166  -0.001005   0.000865
   21  C  3  X   -0.000553   0.000014  -0.001181  -0.000634  -0.000207
   22  C  3  Y   -0.000494  -0.000480   0.000025   0.000123   0.000427
   23  C  3  Z   -0.000425  -0.000274  -0.000244   0.000178  -0.000254
   24  C  3  S   -0.003803  -0.009728   0.024189   0.002001  -0.006899
   25  C  3  X   -0.002162  -0.003723  -0.010241   0.004541  -0.000284
   26  C  3  Y   -0.001691  -0.005398  -0.001089   0.001257   0.004587
   27  C  3  Z    0.003295   0.001402   0.010956  -0.001416   0.002157
   28  H  4  S    0.000782   0.001010  -0.000587  -0.000732   0.000835
   29  H  4  S    0.001052   0.000792   0.000725   0.000044   0.001102
   30  O  5  S   -0.000084   0.002517   0.983542   0.003809  -0.002552
   31  O  5  S   -0.000042   0.000583   0.098250   0.000004  -0.000069
   32  O  5  X   -0.000108   0.000103   0.002462  -0.000034   0.000162
   33  O  5  Y   -0.000182   0.000071   0.002241  -0.000029  -0.000352
   34  O  5  Z    0.000003   0.000048  -0.001987   0.000081   0.000127
   35  O  5  S   -0.000573  -0.000994  -0.046869   0.001622   0.000226
   36  O  5  X    0.000066  -0.000158  -0.008723   0.000600  -0.000299
   37  O  5  Y    0.000746   0.000100  -0.003995   0.000044   0.000916
   38  O  5  Z   -0.000053  -0.000181   0.005051  -0.000529  -0.000630
   39  C  6  S    0.000121  -0.000192   0.000279   0.000237  -0.000981
   40  C  6  S    0.000986  -0.001222   0.001159   0.000897  -0.004104
   41  C  6  X    0.000254  -0.000187   0.000326  -0.000505  -0.000593
   42  C  6  Y    0.000368  -0.000412  -0.000287   0.000053  -0.000900
   43  C  6  Z    0.000514  -0.000134   0.000214   0.000242   0.000220
   44  C  6  S   -0.002386   0.004533  -0.009060  -0.007384   0.024507
   45  C  6  X   -0.001168   0.004013   0.003448  -0.005379  -0.005482
   46  C  6  Y   -0.002258   0.002725  -0.004901   0.001887  -0.009351
   47  C  6  Z   -0.004037   0.000470  -0.001080  -0.001515  -0.009922
   48  H  7  S    0.000836  -0.000714   0.000829   0.000787  -0.000723
   49  H  7  S    0.001889   0.000024   0.000754   0.000936   0.000379
   50  O  8  S    0.000378  -0.000662   0.002519   0.012315   0.983474
   51  O  8  S    0.000461  -0.000269   0.000446   0.001462   0.098313
   52  O  8  X    0.000105  -0.000039  -0.000029   0.000403  -0.000653
   53  O  8  Y    0.000120   0.000041   0.000091  -0.000027   0.003311
   54  O  8  Z   -0.000061  -0.000093  -0.000070  -0.000088   0.001875
   55  O  8  S   -0.001700   0.001205  -0.000467  -0.000585  -0.046969
   56  O  8  X   -0.000659   0.000181  -0.000048  -0.001034  -0.000897
   57  O  8  Y   -0.000826   0.000131   0.000147   0.000209  -0.009849
   58  O  8  Z    0.000208   0.000468   0.000311   0.000465  -0.004706
   59  C  9  S    0.000061   0.000156  -0.000145  -0.000989   0.000275
   60  C  9  S   -0.000244   0.000793  -0.001047  -0.004255   0.001092
   61  C  9  X   -0.000306   0.000222   0.000382   0.000347   0.000394
   62  C  9  Y   -0.000687  -0.000160  -0.000528  -0.001148   0.000122
   63  C  9  Z   -0.000335   0.000362   0.000169  -0.000310  -0.000257
   64  C  9  S   -0.002423  -0.005675   0.002449   0.024111  -0.008903
   65  C  9  X    0.000445   0.000793  -0.001296   0.004515   0.005026
   66  C  9  Y   -0.001791  -0.000528   0.004713  -0.010241   0.000740
   67  C  9  Z    0.002789  -0.004313  -0.001379   0.010947   0.001048
   68  H 10  S    0.000535  -0.000200  -0.000757  -0.000585   0.000841
   69  H 10  S    0.000963  -0.001202  -0.000078   0.000964   0.000879
   70  O 11  S   -0.000073  -0.001315  -0.003933   0.983485  -0.012286
   71  O 11  S   -0.000038  -0.000500  -0.000774   0.098390  -0.000986
   72  O 11  X   -0.000156   0.000064  -0.000035  -0.003395  -0.000058
   73  O 11  Y   -0.000183  -0.000128  -0.000059   0.001250   0.000008
   74  O 11  Z   -0.000014  -0.000088   0.000098  -0.001620   0.000124
   75  O 11  S   -0.000439   0.001542   0.002084  -0.047386   0.000155
   76  O 11  X    0.000698  -0.000509  -0.000134   0.008550  -0.000175
   77  O 11  Y    0.000403   0.000989   0.000637  -0.005977   0.000128
   78  O 11  Z    0.000026   0.000323  -0.000541   0.004207  -0.000491
   79  C 12  S   -0.000763  -0.000067   0.000101   0.000160  -0.000082
   80  C 12  S   -0.003127  -0.000555   0.000383   0.000505  -0.000513
   81  C 12  X   -0.000773   0.000627   0.000452   0.000180   0.000596
   82  C 12  Y    0.001234  -0.000461  -0.000001   0.000502   0.000274
   83  C 12  Z    0.000120  -0.000188  -0.000247   0.000559  -0.000057
   84  C 12  S    0.016038   0.000985  -0.004146  -0.004805   0.000398
   85  C 12  X   -0.003622  -0.004129  -0.000642   0.000534  -0.004229
   86  C 12  Y    0.007537  -0.001302  -0.000194   0.005493  -0.000344
   87  C 12  Z   -0.006102   0.002114   0.003243  -0.004446   0.000078
   88  H 13  S   -0.000706  -0.000553  -0.000177   0.001014  -0.000236
   89  H 13  S   -0.000085  -0.000262  -0.000933   0.001762   0.000140
   90  O 14  S    0.983398  -0.000848   0.000081   0.000073  -0.000270
   91  O 14  S    0.100521   0.001196  -0.000066  -0.000034   0.000445
   92  O 14  X   -0.001757  -0.000500  -0.000043   0.000317  -0.000041
   93  O 14  Y   -0.002191   0.000426   0.000312   0.000059  -0.000075
   94  O 14  Z    0.002205  -0.000205   0.000056   0.000068   0.000138
   95  O 14  S   -0.050805  -0.004777  -0.000176  -0.000514  -0.002010
   96  O 14  X    0.005241   0.004149   0.000857  -0.001896   0.000518
   97  O 14  Y    0.006129  -0.002380  -0.001612   0.000310   0.000842
   98  O 14  Z   -0.005718   0.000604  -0.000248  -0.000267  -0.000744
   99  C 15  S    0.000162  -0.000043  -0.000083   0.000085  -0.000042
  100  C 15  S    0.000665  -0.000182  -0.000459   0.000705  -0.000199
  101  C 15  X    0.000455  -0.000199  -0.000053  -0.000149  -0.000191
  102  C 15  Y   -0.000039   0.000114  -0.000004  -0.000052  -0.000090
  103  C 15  Z   -0.000397  -0.000004   0.000051  -0.000266  -0.000059
  104  C 15  S   -0.004710   0.002712   0.002773  -0.002191   0.002514
  105  C 15  X    0.002803  -0.001117  -0.001620   0.001125  -0.000315
  106  C 15  Y   -0.002221  -0.000201   0.000266  -0.000581   0.000711
  107  C 15  Z    0.002372   0.000569  -0.000216   0.002331   0.001319
  108  O 16  S    0.000102  -0.000062   0.000216   0.001648   0.002186
  109  O 16  S    0.000080  -0.000014   0.000068   0.000307   0.000387
  110  O 16  X   -0.000174   0.000057  -0.000027  -0.000060   0.000058
  111  O 16  Y   -0.000129  -0.000003   0.000016  -0.000072  -0.000030
  112  O 16  Z    0.000114   0.000004  -0.000003   0.000047  -0.000052
  113  O 16  S    0.000098  -0.000096  -0.000178  -0.000554  -0.000929
  114  O 16  X    0.000363  -0.000162   0.000201   0.000268  -0.000024
  115  O 16  Y    0.000454   0.000073  -0.000036   0.000388   0.000312
  116  O 16  Z   -0.000569   0.000016   0.000048  -0.000214   0.000312
  117  H 17  S   -0.000915  -0.000588   0.000834  -0.000204  -0.000302
  118  H 17  S   -0.000172   0.000348   0.001520  -0.000875   0.000244
  119  H 18  S   -0.000414  -0.000286   0.003074  -0.000210  -0.000418
  120  H 18  S    0.000490   0.000558   0.004886   0.000497  -0.000386
  121  H 19  S    0.000032   0.000058  -0.000365  -0.000414   0.003114
  122  H 19  S   -0.000469   0.000009   0.000741  -0.000298   0.004843
  123  H 20  S    0.000266  -0.000056   0.000017   0.003161  -0.000513
  124  H 20  S   -0.000127   0.000308   0.000091   0.004952   0.000874
  125  H 21  S   -0.000221  -0.000124  -0.000134  -0.000429   0.000032
  126  H 21  S   -0.000264  -0.000230   0.000243   0.000509  -0.000242
  127  H 22  S    0.000660  -0.000060  -0.000210   0.000458   0.000042
  128  H 22  S    0.001597   0.000086  -0.000385   0.001310   0.000146
  129  H 23  S   -0.000151   0.000054  -0.000044  -0.000010   0.000165
  130  H 23  S   -0.000346   0.000118   0.000116  -0.000206  -0.000066
  131  H 24  S    0.000517   0.003269  -0.000342  -0.000061  -0.000251
  132  H 24  S   -0.000816   0.004039  -0.000617   0.000279   0.000316

                      6          7          8          9         10
                  -20.6037   -11.5356   -11.4691   -11.4388   -11.4335
                     A          A          A          A          A   
    1  O  1  S    0.000055  -0.000137  -0.000047   0.000073   0.000031
    2  O  1  S   -0.000026  -0.000116  -0.000445   0.000296   0.000262
    3  O  1  X   -0.000013   0.000332   0.000053   0.000066   0.000045
    4  O  1  Y   -0.000001  -0.000339   0.000120   0.000446  -0.000007
    5  O  1  Z    0.000011   0.000425  -0.000094  -0.000023   0.000038
    6  O  1  S    0.000114   0.006229   0.002200  -0.002408  -0.001312
    7  O  1  X    0.000082   0.000150  -0.000105  -0.000325  -0.000287
    8  O  1  Y   -0.000074  -0.002600  -0.000853   0.000168   0.000312
    9  O  1  Z   -0.000034  -0.000361   0.000536  -0.000084  -0.000315
   10  C  2  S    0.000074   0.987961   0.003724   0.001921  -0.000095
   11  C  2  S    0.000375   0.102775  -0.002651  -0.004233   0.000663
   12  C  2  X   -0.000077   0.001331  -0.000629  -0.000412   0.000075
   13  C  2  Y   -0.000032  -0.001431   0.000783  -0.000428  -0.000066
   14  C  2  Z    0.000031  -0.000260  -0.000440  -0.000207   0.000384
   15  C  2  S   -0.002060  -0.081907   0.009547   0.032639  -0.002574
   16  C  2  X   -0.000036   0.003708   0.004913  -0.008320  -0.001939
   17  C  2  Y    0.000787   0.015297  -0.006256  -0.014820   0.003071
   18  C  2  Z    0.000232   0.001319   0.001980  -0.004497  -0.000650
   19  C  3  S   -0.000028  -0.003283   0.001148   0.986625   0.058347
   20  C  3  S   -0.000153  -0.004487   0.001029   0.106581   0.003524
   21  C  3  X    0.000036   0.000016  -0.000194   0.001517  -0.000972
   22  C  3  Y    0.000011   0.000315  -0.000402   0.000286   0.000763
   23  C  3  Z   -0.000104  -0.000305  -0.000065   0.000898   0.000281
   24  C  3  S    0.000979   0.029788  -0.005752  -0.101265   0.001677
   25  C  3  X    0.000338   0.010718  -0.002759  -0.014773   0.004235
   26  C  3  Y    0.000712   0.012055   0.001216   0.000528  -0.001616
   27  C  3  Z    0.001109   0.007565  -0.001762  -0.008683  -0.001770
   28  H  4  S    0.000054  -0.001915   0.000318   0.001303  -0.000771
   29  H  4  S    0.000432   0.002795  -0.000485   0.013600  -0.000875
   30  O  5  S   -0.000203   0.000037  -0.000008  -0.000248  -0.000076
   31  O  5  S    0.000027  -0.000006  -0.000064  -0.000894  -0.000688
   32  O  5  X    0.000020  -0.000264  -0.000088   0.000375  -0.000253
   33  O  5  Y    0.000036  -0.000061  -0.000044  -0.000012   0.000262
   34  O  5  Z    0.000018   0.000095  -0.000083  -0.000522  -0.000040
   35  O  5  S   -0.000209  -0.001361   0.000107   0.009593   0.002681
   36  O  5  X   -0.000177  -0.000712   0.000498   0.004605   0.001662
   37  O  5  Y   -0.000171  -0.000642   0.000074  -0.000138  -0.001046
   38  O  5  Z   -0.000081  -0.000435   0.000361   0.000157  -0.000102
   39  C  6  S   -0.000044  -0.001843  -0.002424  -0.005364  -0.006582
   40  C  6  S   -0.000260  -0.001880  -0.001104  -0.003330  -0.003648
   41  C  6  X    0.000135   0.000311  -0.000798  -0.000374   0.000524
   42  C  6  Y    0.000101  -0.001013   0.000026   0.000481  -0.000027
   43  C  6  Z    0.000142   0.000036   0.000084  -0.000068  -0.000322
   44  C  6  S    0.002383   0.003876   0.001365   0.024616   0.026672
   45  C  6  X    0.000572   0.003106  -0.001936  -0.009020   0.016537
   46  C  6  Y   -0.001247  -0.000077   0.000666   0.015369  -0.001408
   47  C  6  Z   -0.001752  -0.000136   0.000167  -0.002518  -0.002175
   48  H  7  S    0.000141  -0.000230   0.000076  -0.001788  -0.002103
   49  H  7  S    0.000331  -0.001128  -0.001163   0.000705   0.000035
   50  O  8  S   -0.002157  -0.000022  -0.000018   0.000031   0.000050
   51  O  8  S   -0.000034  -0.000269  -0.000236   0.000029   0.000128
   52  O  8  X   -0.000035   0.000021  -0.000330  -0.000131  -0.000331
   53  O  8  Y    0.000018  -0.000287  -0.000017  -0.000139  -0.000285
   54  O  8  Z    0.000014   0.000022   0.000094  -0.000033   0.000061
   55  O  8  S   -0.000860   0.000407   0.000395  -0.000740  -0.001607
   56  O  8  X   -0.000084  -0.000191   0.001418   0.000850  -0.000109
   57  O  8  Y   -0.000361   0.001096  -0.000027  -0.001040   0.000389
   58  O  8  Z   -0.000125  -0.000066  -0.000399   0.000142  -0.000369
   59  C  9  S   -0.000102   0.000676  -0.006525  -0.058964   0.986548
   60  C  9  S   -0.000670   0.001388  -0.004629  -0.009037   0.106035
   61  C  9  X   -0.000580  -0.000217   0.000490   0.001110  -0.000334
   62  C  9  Y   -0.000130  -0.000445   0.000178  -0.000829   0.001298
   63  C  9  Z    0.000109   0.000025  -0.000044   0.000068   0.000990
   64  C  9  S    0.001395  -0.009201   0.030596   0.012769  -0.098747
   65  C  9  X    0.004761   0.002637   0.008076  -0.003378   0.005036
   66  C  9  Y    0.000706  -0.003025   0.014703   0.005157  -0.011682
   67  C  9  Z   -0.000149  -0.003927   0.005300  -0.000144  -0.009777
   68  H 10  S   -0.000356   0.000413  -0.002002  -0.000866   0.001002
   69  H 10  S    0.000150  -0.001305   0.001132  -0.002228   0.013335
   70  O 11  S   -0.001577  -0.000028   0.000043  -0.000043  -0.000262
   71  O 11  S    0.000042  -0.000244   0.000020  -0.000543  -0.001051
   72  O 11  X   -0.000005   0.000004  -0.000059   0.000228  -0.000341
   73  O 11  Y    0.000002  -0.000158  -0.000555  -0.000258   0.000219
   74  O 11  Z   -0.000064  -0.000140  -0.000042   0.000040  -0.000480
   75  O 11  S   -0.000959   0.000759  -0.001511   0.001288   0.010267
   76  O 11  X   -0.000065  -0.000244   0.000287  -0.000786  -0.001523
   77  O 11  Y   -0.000470   0.000951   0.000413   0.000965   0.004699
   78  O 11  Z    0.000404   0.000611   0.000130  -0.000228   0.000248
   79  C 12  S    0.000275  -0.004596   0.988353  -0.001128   0.005155
   80  C 12  S    0.001212  -0.003585   0.106356   0.000913  -0.003152
   81  C 12  X   -0.000349   0.001651  -0.001222  -0.000204  -0.000184
   82  C 12  Y   -0.000256  -0.000466   0.000478   0.000051  -0.000519
   83  C 12  Z    0.000058  -0.000659  -0.000648   0.000427  -0.000082
   84  C 12  S   -0.009537   0.009231  -0.098789  -0.005378   0.028356
   85  C 12  X   -0.004818  -0.013144   0.000274   0.005702  -0.011449
   86  C 12  Y    0.000954   0.001917   0.008410   0.001181  -0.013194
   87  C 12  Z    0.000346   0.003686   0.006834  -0.000464  -0.003659
   88  H 13  S    0.000484  -0.001357   0.001440   0.000821  -0.002111
   89  H 13  S    0.000835  -0.002867   0.014381  -0.000050   0.000988
   90  O 14  S   -0.000110  -0.000135  -0.000204   0.000004  -0.000017
   91  O 14  S    0.000033  -0.000088  -0.000462  -0.000342  -0.000548
   92  O 14  X    0.000285  -0.000535   0.000004   0.000318  -0.000007
   93  O 14  Y   -0.000037  -0.000218  -0.000597   0.000140   0.000386
   94  O 14  Z   -0.000043   0.000733   0.000695  -0.000059  -0.000057
   95  O 14  S    0.000290   0.006421   0.008087  -0.000291   0.000495
   96  O 14  X   -0.000750  -0.003984   0.004304   0.000940  -0.000349
   97  O 14  Y   -0.000035   0.002043  -0.003763  -0.000451   0.000346
   98  O 14  Z    0.000191  -0.001308  -0.001325   0.000178   0.000328
   99  C 15  S   -0.000843  -0.000562  -0.002348   0.000816  -0.005066
  100  C 15  S   -0.003349  -0.000881  -0.003223   0.000416  -0.001513
  101  C 15  X    0.001090  -0.000209  -0.000441   0.000020   0.000799
  102  C 15  Y    0.000916   0.000184  -0.000268   0.000042   0.000187
  103  C 15  Z    0.000603  -0.000192   0.000006  -0.000049   0.000106
  104  C 15  S    0.020342   0.007225   0.024858  -0.002724   0.001476
  105  C 15  X    0.001692  -0.002644  -0.013841   0.000884  -0.001202
  106  C 15  Y    0.006712  -0.001158   0.000113  -0.000385   0.001154
  107  C 15  Z    0.007390   0.002718   0.004294  -0.000558  -0.001026
  108  O 16  S    0.983452   0.000018   0.000071  -0.000008  -0.000030
  109  O 16  S    0.097492   0.000130   0.000323  -0.000050  -0.000352
  110  O 16  X    0.000652   0.000033   0.000338  -0.000046   0.000362
  111  O 16  Y   -0.002391  -0.000053   0.000099  -0.000008   0.000034
  112  O 16  Z   -0.002821   0.000027   0.000067   0.000029  -0.000056
  113  O 16  S   -0.043581  -0.000680  -0.002274   0.000340   0.000804
  114  O 16  X    0.000539   0.000053   0.000181   0.000096  -0.001466
  115  O 16  Y    0.006486   0.000451   0.000326  -0.000072  -0.000299
  116  O 16  Z    0.006737  -0.000031   0.000102  -0.000193   0.000277
  117  H 17  S    0.000157   0.001066  -0.001287  -0.002320   0.000644
  118  H 17  S    0.000024   0.014921  -0.002205   0.000658  -0.000081
  119  H 18  S    0.000052  -0.000438  -0.000100  -0.000385   0.000132
  120  H 18  S   -0.000065   0.000959   0.000260   0.002138   0.000981
  121  H 19  S    0.000100  -0.000519   0.000351  -0.000111   0.000210
  122  H 19  S   -0.000050   0.001381   0.000153   0.000384   0.001472
  123  H 20  S    0.000071   0.000026   0.000409  -0.000466  -0.000139
  124  H 20  S   -0.000050   0.000187   0.001497   0.001650   0.002068
  125  H 21  S   -0.001123  -0.000486  -0.001274  -0.000011  -0.000355
  126  H 21  S   -0.001137  -0.000714   0.000387   0.000234   0.001448
  127  H 22  S   -0.001114  -0.000047  -0.001707   0.000106  -0.000077
  128  H 22  S   -0.000546   0.000710   0.000925   0.000098  -0.001714
  129  H 23  S    0.003041   0.000054   0.000214  -0.000084   0.000323
  130  H 23  S    0.005016   0.000169   0.001184  -0.000055   0.000433
  131  H 24  S   -0.000018  -0.000255  -0.000024   0.000306   0.000130
  132  H 24  S   -0.000027   0.001923   0.000549   0.001493  -0.000257

                     11         12         13         14         15
                  -11.4127   -11.4005    -1.7898    -1.5812    -1.5408
                     A          A          A          A          A   
    1  O  1  S   -0.000062   0.000001  -0.026157  -0.207380   0.056215
    2  O  1  S   -0.000626  -0.000006   0.022454   0.191649  -0.051195
    3  O  1  X    0.000074   0.000019   0.012273   0.056372  -0.018135
    4  O  1  Y    0.000375  -0.000002  -0.008994  -0.017207  -0.001813
    5  O  1  Z    0.000082  -0.000058   0.005045   0.036815  -0.008908
    6  O  1  S    0.002055   0.000157   0.078257   0.659368  -0.185696
    7  O  1  X   -0.000110  -0.000119   0.022588   0.078362  -0.025971
    8  O  1  Y   -0.001848   0.000090  -0.011305  -0.035481   0.006063
    9  O  1  Z   -0.000260   0.000260   0.002786   0.051641  -0.015012
   10  C  2  S    0.001509   0.000230  -0.059165  -0.072256   0.005673
   11  C  2  S   -0.001637  -0.001158   0.070892   0.079936  -0.005006
   12  C  2  X    0.000465   0.000097   0.051248  -0.052883  -0.006398
   13  C  2  Y    0.001034   0.000194  -0.004743   0.067284  -0.038328
   14  C  2  Z   -0.000348  -0.000109  -0.025485  -0.029354   0.006158
   15  C  2  S    0.003529   0.005446   0.047292   0.115224  -0.012277
   16  C  2  X   -0.000151   0.001017  -0.021019   0.010595  -0.013516
   17  C  2  Y   -0.003278  -0.002774  -0.002667  -0.020086   0.010278
   18  C  2  Z    0.002390  -0.000404   0.019192   0.022697   0.001197
   19  C  3  S    0.004762  -0.000272  -0.011961  -0.036328  -0.065130
   20  C  3  S   -0.002546   0.000596   0.011942   0.037385   0.069468
   21  C  3  X    0.000353  -0.000166   0.011757  -0.009758  -0.039702
   22  C  3  Y   -0.000288   0.000043   0.008929   0.018362  -0.012288
   23  C  3  Z    0.000261  -0.000017   0.003551   0.012330   0.025358
   24  C  3  S    0.026830  -0.005043   0.024355   0.061671   0.115528
   25  C  3  X    0.007000  -0.001704   0.012037   0.004412   0.010439
   26  C  3  Y   -0.015634  -0.000041  -0.002534   0.022032  -0.004677
   27  C  3  Z    0.002017  -0.001288  -0.013114  -0.013454  -0.005444
   28  H  4  S   -0.001983   0.000191   0.001532   0.009888   0.019275
   29  H  4  S    0.000205  -0.000134  -0.005688  -0.009070  -0.009876
   30  O  5  S    0.000055  -0.000020  -0.002970  -0.056445  -0.150673
   31  O  5  S    0.000195  -0.000184   0.002524   0.052826   0.140471
   32  O  5  X   -0.000359  -0.000095   0.001896   0.014381   0.030023
   33  O  5  Y    0.000180   0.000038   0.001209   0.014345   0.029396
   34  O  5  Z   -0.000032  -0.000046  -0.000411  -0.010110  -0.024684
   35  O  5  S   -0.001755   0.000575   0.011661   0.172354   0.471711
   36  O  5  X    0.000102   0.000614   0.001284   0.020696   0.042772
   37  O  5  Y    0.000217  -0.000163  -0.000578   0.014802   0.037466
   38  O  5  Z    0.000332   0.000164  -0.001447  -0.011857  -0.034261
   39  C  6  S    0.988304   0.010085  -0.004853  -0.008196  -0.062258
   40  C  6  S    0.106690  -0.000536   0.004612   0.010652   0.063287
   41  C  6  X    0.000769  -0.000223   0.001409  -0.005652  -0.016479
   42  C  6  Y    0.001290  -0.000093   0.002917   0.006185  -0.015366
   43  C  6  Z   -0.000804   0.000054  -0.002685  -0.001289  -0.019109
   44  C  6  S   -0.100289   0.007263  -0.000362   0.013433   0.106698
   45  C  6  X   -0.008165   0.003173   0.001834  -0.016636   0.001894
   46  C  6  Y   -0.011347   0.001838   0.005821  -0.003229   0.013093
   47  C  6  Z    0.008666  -0.001292   0.016327  -0.005816   0.014662
   48  H  7  S    0.001291  -0.000522  -0.000107   0.004167   0.018056
   49  H  7  S    0.013772   0.000294  -0.007122   0.001029  -0.010976
   50  O  8  S   -0.000244   0.000002  -0.001238  -0.009064  -0.107171
   51  O  8  S   -0.000839  -0.000018   0.000086   0.009659   0.099463
   52  O  8  X    0.000181  -0.000061   0.000052  -0.000853  -0.006263
   53  O  8  Y    0.000407   0.000013   0.000404   0.003997   0.033523
   54  O  8  Z    0.000497  -0.000026   0.000231   0.001712   0.017281
   55  O  8  S    0.009470   0.000045   0.008467   0.021441   0.332160
   56  O  8  X    0.002531   0.000113   0.001886  -0.001608  -0.003399
   57  O  8  Y    0.003620  -0.000148   0.003199   0.001656   0.044190
   58  O  8  Z   -0.000310   0.000150   0.000015   0.000713   0.022654
   59  C  9  S    0.005187   0.005019  -0.009791   0.003183  -0.046294
   60  C  9  S   -0.002454  -0.000628   0.010084  -0.004663   0.050412
   61  C  9  X   -0.000408  -0.001188   0.002736  -0.005313  -0.002674
   62  C  9  Y    0.000216  -0.000454   0.012196  -0.002463  -0.019896
   63  C  9  Z    0.000174   0.000317   0.002867  -0.001993   0.015645
   64  C  9  S    0.027373  -0.000310   0.019659   0.009381   0.078955
   65  C  9  X   -0.017110   0.005447  -0.013385   0.002575  -0.007836
   66  C  9  Y    0.000782   0.000557   0.008226  -0.002829  -0.003660
   67  C  9  Z    0.003650  -0.001452  -0.007470   0.017665  -0.006404
   68  H 10  S   -0.001871  -0.000366   0.001449   0.000091   0.014656
   69  H 10  S    0.000442  -0.000868  -0.003415   0.006387  -0.008218
   70  O 11  S    0.000038   0.000054  -0.002066   0.003106  -0.084292
   71  O 11  S    0.000060   0.000526   0.001824  -0.001715   0.079133
   72  O 11  X    0.000089   0.000283  -0.000280   0.000396  -0.027675
   73  O 11  Y   -0.000223   0.000187   0.001661  -0.000582   0.008818
   74  O 11  Z    0.000011  -0.000039  -0.000044   0.000532  -0.011426
   75  O 11  S   -0.001142  -0.001608   0.008340  -0.015099   0.258248
   76  O 11  X    0.001266  -0.001299  -0.002624   0.002604  -0.034418
   77  O 11  Y    0.000154  -0.001245  -0.000977  -0.004147   0.012698
   78  O 11  Z   -0.000067   0.000418  -0.001919   0.000219  -0.014338
   79  C 12  S    0.002304   0.001545  -0.047145   0.019860  -0.014082
   80  C 12  S   -0.000726  -0.002152   0.055092  -0.017139   0.013359
   81  C 12  X    0.001098  -0.000355  -0.027874   0.003149  -0.006957
   82  C 12  Y    0.000720   0.000097   0.040615  -0.012552  -0.011811
   83  C 12  Z   -0.000555   0.000231  -0.016588   0.007854  -0.002844
   84  C 12  S   -0.001043   0.022163   0.043968  -0.038790   0.035641
   85  C 12  X   -0.005461   0.015967   0.020306   0.020826   0.006112
   86  C 12  Y   -0.000985   0.000808  -0.025940   0.005880  -0.005540
   87  C 12  Z    0.003699  -0.005626   0.007906  -0.012673   0.000592
   88  H 13  S   -0.000473  -0.001222   0.013240  -0.003679   0.004631
   89  H 13  S   -0.002162   0.001583  -0.002731   0.006620  -0.001690
   90  O 14  S    0.000068   0.000065  -0.231699   0.045390   0.005981
   91  O 14  S    0.000654   0.000217   0.226163  -0.045556  -0.006393
   92  O 14  X   -0.000172  -0.000592  -0.036603  -0.025056   0.004849
   93  O 14  Y   -0.000308   0.000161  -0.042738   0.025830  -0.011151
   94  O 14  Z    0.000070   0.000081   0.042871  -0.005537  -0.001839
   95  O 14  S   -0.001718  -0.002244   0.750327  -0.158591  -0.016285
   96  O 14  X    0.001163   0.001285  -0.058348  -0.018382   0.004377
   97  O 14  Y    0.001628   0.000050  -0.068976   0.034738  -0.008656
   98  O 14  Z   -0.000796  -0.000419   0.069481  -0.014461   0.001476
   99  C 15  S   -0.010584   0.987658  -0.007408   0.006443  -0.004999
  100  C 15  S   -0.002579   0.102048   0.006771  -0.005063   0.006961
  101  C 15  X    0.000254  -0.001101  -0.008328   0.004797  -0.002262
  102  C 15  Y    0.000213  -0.000303   0.002154  -0.002714   0.000001
  103  C 15  Z    0.000081   0.000024   0.002823  -0.001974   0.001940
  104  C 15  S    0.007529  -0.082147   0.006004  -0.025023  -0.000787
  105  C 15  X   -0.004497   0.011574  -0.003039   0.008399   0.002557
  106  C 15  Y   -0.001103   0.003059   0.015669  -0.001399  -0.001024
  107  C 15  Z    0.000050  -0.001384  -0.011498  -0.001381  -0.003748
  108  O 16  S   -0.000006  -0.000181  -0.003007   0.006035  -0.005753
  109  O 16  S   -0.000102  -0.000409   0.003100  -0.005811   0.005086
  110  O 16  X    0.000049  -0.000138  -0.001410   0.000675  -0.000133
  111  O 16  Y    0.000044  -0.000488  -0.000669   0.001484  -0.001394
  112  O 16  Z    0.000034  -0.000493  -0.001386   0.001726  -0.001385
  113  O 16  S    0.000272   0.007382   0.006659  -0.016951   0.018987
  114  O 16  X   -0.000037  -0.002542  -0.000675   0.000515  -0.000104
  115  O 16  Y   -0.000156  -0.001508  -0.001883   0.001393  -0.002310
  116  O 16  Z   -0.000153  -0.000647   0.001287   0.001626  -0.002288
  117  H 17  S   -0.000656  -0.000408   0.016661   0.019880   0.000129
  118  H 17  S   -0.002046  -0.000369  -0.006499  -0.015805   0.000861
  119  H 18  S    0.000284   0.000014   0.002277   0.024683   0.062908
  120  H 18  S    0.001361   0.000164  -0.002212   0.006551   0.004154
  121  H 19  S   -0.000262   0.000039   0.000210   0.004597   0.045150
  122  H 19  S    0.001881   0.000326   0.001000  -0.000233   0.008326
  123  H 20  S   -0.000116  -0.000282  -0.000341  -0.000558   0.036651
  124  H 20  S    0.000697  -0.000150  -0.000356  -0.001237   0.004658
  125  H 21  S   -0.000691   0.000563   0.003169  -0.001137   0.002793
  126  H 21  S    0.000295   0.015089   0.003960   0.000959   0.002006
  127  H 22  S   -0.000543   0.000539   0.000480  -0.001563   0.001890
  128  H 22  S   -0.000536   0.014759  -0.005134   0.000710  -0.001044
  129  H 23  S   -0.000080  -0.000201   0.000935  -0.002217   0.002132
  130  H 23  S    0.000518   0.001864  -0.000359  -0.000684  -0.000045
  131  H 24  S    0.000190  -0.000018   0.006682   0.085911  -0.025665
  132  H 24  S    0.000831   0.000162   0.002894   0.011553  -0.006088

                     16         17         18         19         20
                   -1.5228    -1.4950    -1.4912    -1.2876    -1.2707
                     A          A          A          A          A   
    1  O  1  S   -0.043342  -0.002905  -0.011671  -0.004579  -0.056534
    2  O  1  S    0.040547   0.003038   0.011159   0.004854   0.053042
    3  O  1  X    0.013334   0.002614   0.002916  -0.009420   0.002993
    4  O  1  Y    0.002504   0.000769   0.001381  -0.004408   0.058842
    5  O  1  Z    0.006641   0.000195   0.001844   0.001372   0.001982
    6  O  1  S    0.139963   0.008107   0.037009   0.014965   0.201635
    7  O  1  X    0.017719   0.002875   0.004157  -0.007415   0.008849
    8  O  1  Y   -0.000496   0.001755   0.000731  -0.000702   0.038259
    9  O  1  Z    0.011882   0.000320   0.002519   0.003247   0.005348
   10  C  2  S   -0.001162  -0.001641   0.002730  -0.010847   0.112447
   11  C  2  S    0.001701   0.002910  -0.001490   0.020041  -0.113800
   12  C  2  X   -0.001381   0.007692  -0.004267  -0.051152  -0.002848
   13  C  2  Y    0.023932   0.002300   0.005818  -0.046863   0.079617
   14  C  2  Z   -0.002214  -0.001573   0.000901   0.008202   0.016400
   15  C  2  S    0.010123   0.004286  -0.006512  -0.001082  -0.297711
   16  C  2  X    0.011365   0.002453  -0.001741  -0.008974  -0.019527
   17  C  2  Y   -0.003434   0.003308   0.003669  -0.006770   0.058494
   18  C  2  Z   -0.011716  -0.003524  -0.001448   0.003469  -0.013186
   19  C  3  S    0.039693   0.008467   0.004369  -0.064631   0.101305
   20  C  3  S   -0.040021  -0.010989  -0.006137   0.065305  -0.101667
   21  C  3  X    0.046376   0.024302   0.009766   0.055205  -0.082259
   22  C  3  Y   -0.010003  -0.016725  -0.008896  -0.022186  -0.018083
   23  C  3  Z   -0.019647  -0.007192  -0.003231   0.007948  -0.013262
   24  C  3  S   -0.074990  -0.018025  -0.007686   0.164313  -0.252878
   25  C  3  X   -0.027313  -0.006619  -0.001778   0.030296  -0.042249
   26  C  3  Y   -0.003395  -0.008384  -0.004759   0.012576   0.002028
   27  C  3  Z    0.008554  -0.006039  -0.005148   0.007700   0.004195
   28  H  4  S   -0.009150  -0.002591  -0.001846   0.031138  -0.048813
   29  H  4  S    0.006853  -0.000499  -0.001144  -0.005466   0.016030
   30  O  5  S    0.131490   0.063482   0.029439   0.036319  -0.055442
   31  O  5  S   -0.120820  -0.059164  -0.027487  -0.032602   0.051173
   32  O  5  X   -0.021311  -0.007253  -0.003265   0.021637  -0.036029
   33  O  5  Y   -0.029894  -0.018155  -0.008689  -0.015785   0.020289
   34  O  5  Z    0.020455   0.009081   0.004149   0.001910  -0.001908
   35  O  5  S   -0.423703  -0.203732  -0.094213  -0.132780   0.198886
   36  O  5  X   -0.039283  -0.014573  -0.006381   0.004741  -0.014373
   37  O  5  Y   -0.036173  -0.022814  -0.010363  -0.013792   0.019646
   38  O  5  Z    0.031583   0.014614   0.006670   0.003061  -0.005621
   39  C  6  S   -0.024705  -0.046925  -0.022514  -0.080212   0.055016
   40  C  6  S    0.026233   0.048831   0.026098   0.082099  -0.054753
   41  C  6  X    0.015551  -0.035728  -0.021199   0.048543   0.001798
   42  C  6  Y   -0.027650  -0.044072  -0.023030   0.056734  -0.058276
   43  C  6  Z   -0.008962  -0.019957  -0.010339  -0.011288   0.005900
   44  C  6  S    0.042636   0.092228   0.028873   0.182076  -0.133473
   45  C  6  X    0.015887   0.013313  -0.001913   0.012651  -0.023636
   46  C  6  Y   -0.006867   0.018304   0.012973   0.030461  -0.008515
   47  C  6  Z    0.001592   0.000610   0.005298  -0.005989   0.003941
   48  H  7  S    0.007763   0.012817   0.006516   0.039661  -0.027346
   49  H  7  S   -0.003216  -0.005845  -0.003297  -0.006670   0.005609
   50  O  8  S   -0.054856  -0.161971  -0.085894   0.047121  -0.032174
   51  O  8  S    0.050590   0.149540   0.078899  -0.042848   0.029721
   52  O  8  X    0.000953  -0.018027  -0.010456   0.027136  -0.016583
   53  O  8  Y    0.013488   0.041691   0.021863   0.011361  -0.009676
   54  O  8  Z    0.008479   0.023703   0.012449  -0.004163   0.002123
   55  O  8  S    0.172561   0.517425   0.277095  -0.167599   0.114930
   56  O  8  X    0.000614  -0.016125  -0.008877   0.013832  -0.010991
   57  O  8  Y    0.017911   0.062241   0.034108  -0.003317   0.000767
   58  O  8  Z    0.011894   0.035664   0.019062  -0.005075   0.003974
   59  C  9  S   -0.066890   0.024627   0.018068  -0.100494  -0.007086
   60  C  9  S    0.068739  -0.028164  -0.019029   0.104411   0.009091
   61  C  9  X    0.019821  -0.032411  -0.013679  -0.018667   0.050336
   62  C  9  Y   -0.046992   0.022769   0.023136   0.089685   0.023358
   63  C  9  Z    0.025254  -0.011026  -0.009053   0.013099  -0.000932
   64  C  9  S    0.121967  -0.049848  -0.028734   0.226490  -0.003898
   65  C  9  X   -0.012908   0.001884  -0.015941  -0.013653  -0.016891
   66  C  9  Y    0.024186  -0.014654  -0.009673   0.030225  -0.015216
   67  C  9  Z   -0.012555  -0.005566   0.003581   0.002867  -0.011711
   68  H 10  S    0.017870  -0.007654  -0.004106   0.050496   0.003845
   69  H 10  S   -0.011655   0.002334   0.002689  -0.010567  -0.004624
   70  O 11  S   -0.161145   0.093387   0.072888   0.067020   0.009427
   71  O 11  S    0.148571  -0.085880  -0.067591  -0.060887  -0.008851
   72  O 11  X   -0.048884   0.023753   0.020025   0.013262   0.008817
   73  O 11  Y    0.013169  -0.006271  -0.003161   0.043046   0.010726
   74  O 11  Z   -0.020810   0.011210   0.008940   0.002458  -0.000769
   75  O 11  S    0.510975  -0.301123  -0.232507  -0.239004  -0.031803
   76  O 11  X   -0.065814   0.034046   0.029809   0.022661   0.009160
   77  O 11  Y    0.026512  -0.011651  -0.006789   0.017797   0.010311
   78  O 11  Z   -0.030886   0.018624   0.012563   0.005605   0.001234
   79  C 12  S   -0.016542   0.020540  -0.013017  -0.119899  -0.099397
   80  C 12  S    0.017398  -0.018295   0.011029   0.118237   0.088074
   81  C 12  X   -0.004276  -0.013232   0.023565  -0.015077   0.033574
   82  C 12  Y   -0.019413   0.006902   0.007231  -0.050195   0.019281
   83  C 12  Z   -0.003618   0.004342  -0.001078  -0.016995  -0.024952
   84  C 12  S    0.027816  -0.041107   0.040255   0.319377   0.302712
   85  C 12  X    0.016951  -0.001590   0.014272  -0.022876  -0.024991
   86  C 12  Y   -0.012954   0.000567   0.014088  -0.014054  -0.010214
   87  C 12  Z    0.012628  -0.012099  -0.002169  -0.012282  -0.010796
   88  H 13  S    0.005574  -0.006324   0.005269   0.060491   0.041043
   89  H 13  S   -0.006992   0.005531  -0.000196  -0.010736  -0.014307
   90  O 14  S    0.012045  -0.008328   0.008369   0.055479  -0.016021
   91  O 14  S   -0.012155   0.007472  -0.007657  -0.052159   0.016852
   92  O 14  X    0.001678  -0.009725   0.011245   0.038487   0.164313
   93  O 14  Y   -0.000327   0.005805  -0.001604  -0.103402  -0.059935
   94  O 14  Z   -0.001657   0.000469  -0.000049  -0.001336  -0.007145
   95  O 14  S   -0.042202   0.032007  -0.034191  -0.234548   0.060645
   96  O 14  X    0.006677  -0.010083   0.006257   0.033301   0.129423
   97  O 14  Y   -0.000838  -0.000118   0.001501  -0.073648  -0.044301
   98  O 14  Z   -0.003138   0.003019  -0.002226  -0.008451  -0.003174
   99  C 15  S   -0.008951   0.042413  -0.066236  -0.045641  -0.051619
  100  C 15  S    0.010680  -0.044826   0.071813   0.050661   0.053182
  101  C 15  X   -0.001899  -0.013352   0.030630  -0.054548  -0.058573
  102  C 15  Y   -0.000046  -0.022773   0.044051  -0.015553  -0.008102
  103  C 15  Z    0.003802  -0.021218   0.035084   0.003387   0.002403
  104  C 15  S    0.005633  -0.078824   0.113054   0.101985   0.130107
  105  C 15  X   -0.001704   0.006589   0.002326   0.003537  -0.015225
  106  C 15  Y    0.001463   0.003289  -0.009732  -0.015570  -0.009971
  107  C 15  Z   -0.008205   0.005057  -0.006585   0.002276  -0.000878
  108  O 16  S   -0.012333   0.108295  -0.190661   0.032036   0.036683
  109  O 16  S    0.011141  -0.100814   0.177331  -0.028599  -0.033412
  110  O 16  X    0.000127  -0.007823   0.015413  -0.021324  -0.027400
  111  O 16  Y   -0.002753   0.020873  -0.035843  -0.005511  -0.006041
  112  O 16  Z   -0.002956   0.025481  -0.044569   0.002741   0.001774
  113  O 16  S    0.039966  -0.339026   0.598575  -0.115187  -0.131069
  114  O 16  X    0.000866  -0.006943   0.011739  -0.012944  -0.020272
  115  O 16  Y   -0.004955   0.029792  -0.051321   0.003174   0.002502
  116  O 16  Z   -0.004380   0.034926  -0.061542   0.007557   0.007120
  117  H 17  S    0.000300   0.001043  -0.000315   0.013326  -0.057388
  118  H 17  S    0.004337   0.000248   0.000414   0.003640   0.017537
  119  H 18  S   -0.056747  -0.029503  -0.013933  -0.025920   0.038643
  120  H 18  S   -0.008154  -0.004269  -0.001407  -0.013249   0.022755
  121  H 19  S    0.020999   0.070467   0.037602  -0.031889   0.020201
  122  H 19  S   -0.001815   0.009037   0.004798  -0.017318   0.013402
  123  H 20  S    0.068425  -0.037841  -0.030787  -0.046732  -0.010593
  124  H 20  S    0.010001   0.000538  -0.001146  -0.024844  -0.000395
  125  H 21  S    0.004692  -0.013363   0.018969   0.023920   0.022448
  126  H 21  S    0.007555   0.000295  -0.011754  -0.019455  -0.010556
  127  H 22  S    0.002627  -0.012618   0.020334   0.023829   0.026983
  128  H 22  S   -0.004018   0.006013  -0.006601  -0.002326  -0.002821
  129  H 23  S    0.004704  -0.046907   0.083575  -0.023097  -0.028069
  130  H 23  S    0.000589  -0.007712   0.013553  -0.011980  -0.011834
  131  H 24  S    0.020671   0.002004   0.005904  -0.001698   0.049529
  132  H 24  S    0.003020  -0.000554   0.000648  -0.003934   0.021851

                     21         22         23         24         25
                   -1.1381    -1.0883    -1.0622    -1.0503    -0.9703
                     A          A          A          A          A   
    1  O  1  S    0.036542  -0.025751  -0.008341   0.011406   0.009075
    2  O  1  S   -0.033847   0.026883   0.007146  -0.012081  -0.007036
    3  O  1  X   -0.007416  -0.025644  -0.009299   0.041574  -0.028142
    4  O  1  Y   -0.082602   0.029024   0.048016   0.023483  -0.110082
    5  O  1  Z    0.016844  -0.028056   0.030829   0.005353   0.010219
    6  O  1  S   -0.143269   0.092467   0.036211  -0.040009  -0.044013
    7  O  1  X   -0.012161  -0.024073  -0.011045   0.041410  -0.031544
    8  O  1  Y   -0.065764   0.028535   0.037917   0.018935  -0.103852
    9  O  1  Z    0.010731  -0.022111   0.027297   0.001049   0.006386
   10  C  2  S   -0.103250   0.071082   0.004780   0.006921  -0.005642
   11  C  2  S    0.103307  -0.062375  -0.000629  -0.006774   0.008129
   12  C  2  X   -0.034298  -0.096212  -0.006501   0.085929  -0.102076
   13  C  2  Y   -0.035993  -0.050573  -0.003108   0.066507   0.051926
   14  C  2  Z    0.030041  -0.072441   0.126122   0.017197  -0.008445
   15  C  2  S    0.329984  -0.284145  -0.019309  -0.027800   0.007276
   16  C  2  X   -0.014603  -0.031945   0.025764   0.058129  -0.024567
   17  C  2  Y   -0.049470   0.034165   0.018449   0.052401   0.056950
   18  C  2  Z    0.032484  -0.071635   0.091818   0.022280  -0.000696
   19  C  3  S   -0.028730  -0.112017  -0.017768   0.022829  -0.050828
   20  C  3  S    0.025769   0.094298   0.015778  -0.017334   0.045551
   21  C  3  X    0.016739   0.009631  -0.004837  -0.011212  -0.029985
   22  C  3  Y    0.096760  -0.042977  -0.057755  -0.085301   0.056941
   23  C  3  Z    0.010278  -0.031337   0.047740   0.019820  -0.081112
   24  C  3  S    0.100887   0.420480   0.054757  -0.105313   0.220808
   25  C  3  X    0.011050   0.062902  -0.012606  -0.023771  -0.010179
   26  C  3  Y   -0.002891  -0.009214  -0.004032  -0.011196   0.043219
   27  C  3  Z   -0.004899   0.003177   0.037647   0.016044  -0.039916
   28  H  4  S    0.012026   0.078980  -0.013463  -0.023504   0.079351
   29  H  4  S   -0.009812   0.015230  -0.012523  -0.003771   0.030621
   30  O  5  S    0.018218   0.038029   0.009561  -0.010893   0.022372
   31  O  5  S   -0.017306  -0.034356  -0.006623   0.010953  -0.020542
   32  O  5  X    0.019647   0.071127   0.033321  -0.008116   0.038350
   33  O  5  Y    0.008862  -0.045975  -0.027206  -0.019050   0.011520
   34  O  5  Z   -0.000552  -0.021390   0.006831   0.008092  -0.040953
   35  O  5  S   -0.067751  -0.155797  -0.047101   0.041256  -0.098215
   36  O  5  X    0.013058   0.051345   0.022334  -0.007737   0.029489
   37  O  5  Y    0.007899  -0.043463  -0.025828  -0.016643   0.012847
   38  O  5  Z    0.001466  -0.018243   0.008023   0.007506  -0.034950
   39  C  6  S    0.091103  -0.028298  -0.050445  -0.083620   0.054913
   40  C  6  S   -0.078606   0.024857   0.040219   0.074132  -0.043747
   41  C  6  X   -0.061064  -0.083217  -0.032745   0.013406   0.022102
   42  C  6  Y   -0.000876   0.064559   0.031826  -0.005849  -0.009269
   43  C  6  Z    0.010049  -0.008557   0.039569   0.015889  -0.090476
   44  C  6  S   -0.296754   0.084793   0.220654   0.295193  -0.241145
   45  C  6  X   -0.025098   0.007287   0.022376   0.008805  -0.012258
   46  C  6  Y   -0.041511   0.005252   0.028857   0.034621  -0.037771
   47  C  6  Z    0.009677  -0.005322   0.005537   0.000211  -0.072656
   48  H  7  S   -0.045762   0.010046   0.049162   0.058514  -0.081642
   49  H  7  S    0.003820  -0.003850   0.016741   0.012514  -0.025853
   50  O  8  S   -0.038717   0.017260   0.017863   0.031350  -0.013121
   51  O  8  S    0.034888  -0.016736  -0.016366  -0.028322   0.013367
   52  O  8  X   -0.054143  -0.000948   0.013879   0.059996  -0.012063
[...]
   14 O             1.020197                     0.978076
   15 C             0.009100                     0.004485
   16 O             0.001041                     0.000967
   17 H             0.048298                     0.036659
   18 H            -0.000576                    -0.000356
   19 H            -0.000319                    -0.000249
   20 H             0.001260                     0.001237
   21 H            -0.003180                    -0.002636
   22 H            -0.001474                    -0.001157
   23 H            -0.000257                    -0.000203
   24 H             0.001573                     0.001111


          ********* ALL ELECTRONS ********

               ----- POPULATIONS IN EACH AO -----
                             MULLIKEN      LOWDIN
              1  O  1  S      1.98631     1.98049
              2  O  1  S      0.41776     0.57666
              3  O  1  X      0.71665     0.71393
              4  O  1  Y      0.54587     0.52556
              5  O  1  Z      0.81700     0.82262
              6  O  1  S      1.52632     1.03603
              7  O  1  X      0.93912     0.94868
              8  O  1  Y      0.68336     0.72562
              9  O  1  Z      1.00417     1.01578
             10  C  2  S      1.98928     1.97557
             11  C  2  S      0.37767     0.44278
             12  C  2  X      0.39057     0.38017
             13  C  2  Y      0.54013     0.53216
             14  C  2  Z      0.57436     0.54234
             15  C  2  S      0.90590     0.55978
             16  C  2  X      0.17008     0.38597
             17  C  2  Y      0.27999     0.44988
             18  C  2  Z      0.48196     0.53971
             19  C  3  S      1.99024     1.97554
             20  C  3  S      0.35207     0.42780
             21  C  3  X      0.45294     0.44494
             22  C  3  Y      0.55418     0.54089
             23  C  3  Z      0.57008     0.54209
             24  C  3  S      1.02379     0.55081
             25  C  3  X      0.24244     0.43543
             26  C  3  Y      0.27773     0.48221
             27  C  3  Z      0.51645     0.55805
             28  H  4  S      0.46515     0.47874
             29  H  4  S      0.23939     0.40534
             30  O  5  S      1.98624     1.98059
             31  O  5  S      0.41800     0.57762
             32  O  5  X      0.57789     0.56626
             33  O  5  Y      0.67623     0.66547
             34  O  5  Z      0.81449     0.82055
             35  O  5  S      1.52610     1.04804
             36  O  5  X      0.75189     0.80558
             37  O  5  Y      0.87172     0.87177
             38  O  5  Z      1.00712     1.02009
             39  C  6  S      1.99024     1.97555
             40  C  6  S      0.34978     0.42645
             41  C  6  X      0.53099     0.52467
             42  C  6  Y      0.48354     0.47296
             43  C  6  Z      0.55985     0.53072
             44  C  6  S      1.01385     0.54815
             45  C  6  X      0.28530     0.46904
             46  C  6  Y      0.23255     0.44686
             47  C  6  Z      0.50199     0.55920
             48  H  7  S      0.46891     0.48413
             49  H  7  S      0.27371     0.42045
             50  O  8  S      1.98614     1.98041
             51  O  8  S      0.41522     0.57402
             52  O  8  X      0.58776     0.56842
             53  O  8  Y      0.66809     0.66641
             54  O  8  Z      0.81959     0.82669
             55  O  8  S      1.52364     1.04544
             56  O  8  X      0.74994     0.76707
             57  O  8  Y      0.88735     0.91913
             58  O  8  Z      1.01733     1.02977
             59  C  9  S      1.99006     1.97546
             60  C  9  S      0.35064     0.42232
             61  C  9  X      0.53858     0.52677
             62  C  9  Y      0.45570     0.44732
             63  C  9  Z      0.56886     0.53945
             64  C  9  S      1.00864     0.54894
             65  C  9  X      0.26200     0.47103
             66  C  9  Y      0.23602     0.43844
             67  C  9  Z      0.50605     0.55980
             68  H 10  S      0.46818     0.48226
             69  H 10  S      0.26021     0.41511
             70  O 11  S      1.98618     1.98044
             71  O 11  S      0.41588     0.57462
             72  O 11  X      0.70892     0.70587
             73  O 11  Y      0.53931     0.51997
             74  O 11  Z      0.82594     0.83323
             75  O 11  S      1.52622     1.04465
             76  O 11  X      0.92991     0.93555
             77  O 11  Y      0.69291     0.74143
             78  O 11  Z      1.01803     1.03180
             79  C 12  S      1.99064     1.97636
             80  C 12  S      0.36073     0.44406
             81  C 12  X      0.56843     0.56370
             82  C 12  Y      0.39919     0.39035
             83  C 12  Z      0.58520     0.56233
             84  C 12  S      1.08376     0.56500
             85  C 12  X      0.36680     0.49712
             86  C 12  Y      0.18327     0.39073
             87  C 12  Z      0.57966     0.57074
             88  H 13  S      0.44683     0.45676
             89  H 13  S      0.18640     0.37918
             90  O 14  S      1.98757     1.98218
             91  O 14  S      0.44400     0.60926
             92  O 14  X      0.66807     0.66559
             93  O 14  Y      0.68577     0.68476
             94  O 14  Z      0.65415     0.65427
             95  O 14  S      1.54368     1.02417
             96  O 14  X      0.77212     0.76168
             97  O 14  Y      0.78048     0.77395
             98  O 14  Z      0.70563     0.71086
             99  C 15  S      1.98851     1.97565
            100  C 15  S      0.36283     0.42111
            101  C 15  X      0.48736     0.47722
            102  C 15  Y      0.53833     0.51036
            103  C 15  Z      0.53785     0.50493
            104  C 15  S      1.02123     0.57090
            105  C 15  X      0.25988     0.46265
            106  C 15  Y      0.45417     0.52331
            107  C 15  Z      0.42335     0.53543
            108  O 16  S      1.98591     1.98041
            109  O 16  S      0.41571     0.57344
            110  O 16  X      0.58724     0.56883
            111  O 16  Y      0.74004     0.74366
            112  O 16  Z      0.74880     0.75204
            113  O 16  S      1.51215     1.05460
            114  O 16  X      0.74997     0.76938
            115  O 16  Y      0.94912     0.96733
            116  O 16  Z      0.97055     0.98441
            117  H 17  S      0.45729     0.46652
            118  H 17  S      0.20392     0.39362
            119  H 18  S      0.39444     0.41079
            120  H 18  S      0.17568     0.29884
            121  H 19  S      0.39296     0.40945
            122  H 19  S      0.17702     0.30033
            123  H 20  S      0.38759     0.40344
            124  H 20  S      0.17029     0.29779
            125  H 21  S      0.46500     0.46770
            126  H 21  S      0.24444     0.40594
            127  H 22  S      0.47311     0.47686
            128  H 22  S      0.28982     0.42752
            129  H 23  S      0.40139     0.41788
            130  H 23  S      0.18427     0.30269
            131  H 24  S      0.39310     0.40966
            132  H 24  S      0.16960     0.29070

          ----- MULLIKEN ATOMIC OVERLAP POPULATIONS -----
          (OFF-DIAGONAL ELEMENTS NEED TO BE MULTIPLIED BY 2)

             1           2           3           4           5

    1    8.2141564
    2    0.2488061   5.3869137
    3   -0.0453686   0.0043012   5.6471523
    4    0.0018485  -0.0631413   0.3569973   0.4687424
    5   -0.0010517  -0.0370805   0.2393065  -0.0264827   8.2165401
    6    0.0016992  -0.0853579   0.0625122  -0.0429474  -0.0392372
    7   -0.0000323  -0.0002466  -0.0585253   0.0036319   0.0014599
    8   -0.0000003   0.0019903  -0.0342017   0.0011946  -0.0009497
    9   -0.0000585   0.0128142  -0.0933983  -0.0004943   0.0015533
   10   -0.0000041   0.0010694   0.0004304   0.0032334  -0.0000311
   11    0.0000000  -0.0000022   0.0020438  -0.0000170  -0.0000003
   12    0.0007554  -0.0836832   0.0128326   0.0012090   0.0000198
   13   -0.0000134  -0.0015821   0.0007438   0.0000373  -0.0000092
   14   -0.0281179   0.0409965  -0.0221278  -0.0007805   0.0001835
   15   -0.0000158   0.0013101  -0.0002458  -0.0000306   0.0000002
   16    0.0000000  -0.0000318   0.0000002   0.0000001  -0.0000000
   17   -0.0305254   0.3279968  -0.0448051   0.0036299   0.0020724
   18    0.0087229  -0.0048870  -0.0479580  -0.0015834   0.2644210
   19   -0.0000007   0.0004356  -0.0046785  -0.0003611   0.0089884
   20    0.0000000  -0.0000447   0.0006190   0.0000016  -0.0000010
   21    0.0000000  -0.0000223  -0.0000102   0.0000009  -0.0000000
   22   -0.0000005  -0.0001750   0.0000215   0.0000021  -0.0000000
   23   -0.0000000   0.0000029  -0.0000001  -0.0000000   0.0000000
   24    0.2657836  -0.0404267   0.0042717  -0.0001458  -0.0000090

             6           7           8           9          10

    6    5.5357227
    7    0.3605152   0.5082646
    8    0.2404727  -0.0291866   8.2371186
    9    0.1316542  -0.0538167  -0.0431231   5.4714616
   10   -0.0564594   0.0039298   0.0021983   0.3624255   0.4965570
   11   -0.0343186   0.0014419  -0.0015059   0.2362854  -0.0281262
   12   -0.0826449  -0.0000510   0.0016511   0.0433859  -0.0587775
   13   -0.0051685   0.0032853   0.0000012  -0.0286008   0.0030484
   14    0.0052248  -0.0000538  -0.0000003  -0.0263647   0.0003200
   15    0.0038488  -0.0001390  -0.0000104  -0.0582249  -0.0028485
   16   -0.0000141   0.0000001   0.0000000   0.0012962  -0.0000063
   17    0.0002824   0.0037886  -0.0000105   0.0002739   0.0000361
   18    0.0054330  -0.0001551  -0.0000315  -0.0001657   0.0000020
   19   -0.0492069  -0.0012300   0.2669997   0.0059927  -0.0001602
   20   -0.0039377  -0.0002681   0.0124584  -0.0510207  -0.0005036
   21    0.0003261   0.0000054  -0.0000001   0.0027033   0.0000433
   22   -0.0001620  -0.0000003   0.0000002   0.0021002   0.0020154
   23    0.0000013  -0.0000000  -0.0000000  -0.0001485   0.0000005
   24   -0.0001594   0.0000029   0.0000001   0.0000097   0.0000013

            11          12          13          14          15

   11    8.2315720
   12   -0.0394530   5.9358919
   13    0.0027564   0.3278687   0.3746252
   14    0.0001576   0.0532557  -0.0187398   8.2912916
   15   -0.0035433   0.1653892  -0.0322118  -0.0272476   5.1172007
   16    0.0000024  -0.0499983   0.0037627   0.0007093   0.2390748
   17   -0.0000060   0.0002810   0.0015569  -0.0285476  -0.0001356
   18    0.0000001   0.0000071   0.0000010   0.0000635  -0.0000000
   19   -0.0000150  -0.0001843  -0.0000031  -0.0000007   0.0000011
   20    0.2658477   0.0054155  -0.0000491  -0.0000175  -0.0000180
   21    0.0101328  -0.0593652  -0.0016335   0.0013392   0.3577986
   22    0.0000453  -0.0620890   0.0035825  -0.0007312   0.3552473
   23    0.0000013   0.0060699  -0.0000294  -0.0000295  -0.0416937
   24   -0.0000000  -0.0001058   0.0000054   0.0006894   0.0000012

            16          17          18          19          20

   16    8.2534031
   17    0.0000010   0.4275188
   18    0.0000000  -0.0002443   0.3469514
   19   -0.0000000  -0.0000080  -0.0002441   0.3439740
   20    0.0000001   0.0000012   0.0000001  -0.0003201   0.3297989
   21   -0.0259919   0.0000033  -0.0000000   0.0000000  -0.0000758
   22   -0.0290442   0.0000002   0.0000000  -0.0000000  -0.0000066
   23    0.2663461  -0.0000001  -0.0000000   0.0000000  -0.0000001
   24   -0.0000000  -0.0019486  -0.0002146   0.0000001  -0.0000000

            21          22          23          24

   21    0.4548385
   22   -0.0292451   0.5231459
   23   -0.0014067  -0.0017819   0.3583274
   24    0.0000000   0.0000004   0.0000000   0.3349414

          TOTAL MULLIKEN AND LOWDIN ATOMIC POPULATIONS
       ATOM         MULL.POP.    CHARGE          LOW.POP.     CHARGE
    1 O             8.636583   -0.636583         8.345376   -0.345376
    2 C             5.709956    0.290044         5.808353    0.191647
    3 C             5.979913    0.020087         5.957769    0.042231
    4 H             0.704545    0.295455         0.884073    0.115927
    5 O             8.629693   -0.629693         8.355967   -0.355967
    6 C             5.948079    0.051921         5.953584    0.046416
    7 H             0.742621    0.257379         0.904574    0.095426
    8 O             8.655065   -0.655065         8.377360   -0.377360
    9 C             5.916540    0.083460         5.929551    0.070449
   10 H             0.728394    0.271606         0.897370    0.102630
   11 O             8.643299   -0.643299         8.367570   -0.367570
   12 C             6.117681   -0.117681         5.960385    0.039615
   13 H             0.633234    0.366766         0.835948    0.164052
   14 O             8.241472   -0.241472         7.866733    0.133267
   15 C             6.073507   -0.073507         5.981559    0.018441
   16 O             8.659509   -0.659509         8.394107   -0.394107
   17 H             0.661211    0.338789         0.860137    0.139863
   18 H             0.570118    0.429882         0.709632    0.290368
   19 H             0.569979    0.430021         0.709777    0.290223
   20 H             0.557880    0.442120         0.701229    0.298771
   21 H             0.709441    0.290559         0.873646    0.126354
   22 H             0.762925    0.237075         0.904375    0.095625
   23 H             0.585659    0.414341         0.720573    0.279427
   24 H             0.562697    0.437303         0.700355    0.299645

          -------------------------------
          BOND ORDER AND VALENCE ANALYSIS     BOND ORDER THRESHOLD=0.050
          -------------------------------

                   BOND                       BOND                       BOND
  ATOM PAIR DIST  ORDER      ATOM PAIR DIST  ORDER      ATOM PAIR DIST  ORDER
    1   2  1.426  0.984        1  24  0.995  0.767        2   3  1.522  0.784
    2  14  1.451  0.597        2  17  1.103  0.804        3   4  1.098  0.845
    3   5  1.454  0.940        3   6  1.514  0.835        5  18  0.996  0.766
    6   7  1.101  0.865        6   8  1.456  0.921        6   9  1.522  0.858
    8  19  0.996  0.765        9  10  1.100  0.855        9  11  1.452  0.927
    9  12  1.532  0.804       11  20  0.998  0.749       12  13  1.098  0.812
   12  14  1.474  0.563       12  15  1.516  0.886       15  16  1.459  0.909
   15  21  1.098  0.846       15  22  1.100  0.873       16  23  0.995  0.788

                       TOTAL       BONDED        FREE
      ATOM            VALENCE     VALENCE     VALENCE
    1 O                 1.810       1.810       0.000
    2 C                 3.185       3.180       0.005
    3 C                 3.424       3.421       0.003
    4 H                 0.867       0.867       0.000
    5 O                 1.794       1.794       0.000
    6 C                 3.466       3.466       0.000
    7 H                 0.886       0.886       0.000
    8 O                 1.776       1.776       0.000
    9 C                 3.435       3.432       0.003
   10 H                 0.877       0.877       0.000
   11 O                 1.770       1.770       0.000
   12 C                 3.050       3.044       0.005
   13 H                 0.834       0.833       0.002
   14 O                 2.112       1.288       0.824
   15 C                 3.489       3.489       0.000
   16 O                 1.749       1.749       0.000
   17 H                 0.843       0.841       0.002
   18 H                 0.798       0.798       0.000
   19 H                 0.799       0.799       0.000
   20 H                 0.792       0.792       0.000
   21 H                 0.879       0.879       0.000
   22 H                 0.893       0.893       0.000
   23 H                 0.805       0.805       0.000
   24 H                 0.789       0.789       0.000

          -----------------------------------------
          ATOMIC SPIN DENSITY AT THE NUCLEUS (A.U.)
          -----------------------------------------
                            SPIN DENS    ALPHA DENS     BETA DENS
    1  O            8.0    -0.0022668     116.77964     116.78191
    2  C            6.0    -0.0376602      47.03636      47.07402
    3  C            6.0     0.0233567      47.09175      47.06839
    4  H            1.0    -0.0014567       0.18174       0.18320
    5  O            8.0    -0.0030243     116.78116     116.78419
    6  C            6.0    -0.0065001      47.07490      47.08140
    7  H            1.0     0.0001929       0.18422       0.18403
    8  O            8.0     0.0023787     116.75706     116.75469
    9  C            6.0     0.0272425      47.07788      47.05063
   10  H            1.0    -0.0016058       0.18291       0.18452
   11  O            8.0     0.0039655     116.76438     116.76042
   12  C            6.0    -0.0308601      47.11757      47.14843
   13  H            1.0     0.0160311       0.18252       0.16649
   14  O            8.0     0.2755164     117.19516     116.91964
   15  C            6.0     0.0021794      46.99479      46.99261
   16  O            8.0    -0.0000804     116.73721     116.73729
   17  H            1.0     0.0182379       0.18698       0.16874
   18  H            1.0    -0.0001571       0.15927       0.15942
   19  H            1.0    -0.0000838       0.15869       0.15878
   20  H            1.0     0.0008487       0.15683       0.15598
   21  H            1.0    -0.0012318       0.18066       0.18189
   22  H            1.0    -0.0006685       0.18430       0.18496
   23  H            1.0    -0.0000718       0.16204       0.16211
   24  H            1.0     0.0003307       0.15881       0.15847

          ---------------------
          ELECTROSTATIC MOMENTS
          ---------------------

 POINT   1           X           Y           Z (BOHR)    CHARGE
                -0.111279   -0.091083    0.009474        1.00 (A.U.)
         DX          DY          DZ         /D/  (DEBYE)
     0.923686    3.663941   -0.251511    3.786940
 ...... END OF PROPERTY EVALUATION ......
 CPU     0: STEP CPU TIME=     0.08 TOTAL CPU TIME=          5.6 (      0.1 MIN)
 TOTAL WALL CLOCK TIME=         14.1 SECONDS, CPU UTILIZATION IS    39.76%
               580000  WORDS OF DYNAMIC MEMORY USED
 EXECUTION OF GAMESS TERMINATED NORMALLY Thu May 21 21:04:00 2020
 DDI: 263640 bytes (0.3 MB / 0 MWords) used by master data server.
Note: The following floating-point exceptions are signalling: IEEE_DENORMALNote: The following floating-point exceptions are signalling: IEEE_DENORMALNote: The following floating-point exceptions are signalling:Note: The following floating-point exceptions are signalling:
Note: The following floating-point exceptions are signalling: IEEE_DENORMAL
Note: The following floating-point exceptions are signalling: IEEE_DENORMAL IEEE_DENORMAL
Note: The following floating-point exceptions are signalling: IEEE_DENORMAL
 IEEE_DENORMAL

 ----------------------------------------
 CPU timing information for all processes
 ========================================
 0: 5.394 + 0.230 = 5.625
 1: 5.199 + 0.55 = 5.254
 2: 5.144 + 0.64 = 5.208
 3: 5.121 + 0.48 = 5.170
 4: 5.219 + 0.85 = 5.304
 5: 5.111 + 0.40 = 5.151
 6: 5.88 + 0.20 = 5.108
 7: 5.08 + 0.31 = 5.39
 ----------------------------------------
Note: The following floating-point exceptions are signalling:

 IEEE_DENORMAL
 ddikick.x: exited gracefully.
unset echo
----- accounting info -----
Files used on the master node pietdev were:
-rwxr-xr-x 1 piet piet     1459 mei 21 21:03 /home/piet/scr/alpha-d-glucopyranose_fukui_base.F05*
-rw-r--r-- 1 piet piet 68812800 mei 21 21:04 /home/piet/scr/alpha-d-glucopyranose_fukui_base.F10
ls: No match.
ls: No match.
ls: No match.
do 21 mei 2020 21:04:03 CEST
0.131u 0.032s 0:17.34 0.9%	0+0k 0+8io 0pf+0w
