----- GAMESS execution script 'rungms' -----
This job is running on host pietdev
under operating system Linux at do 21 mei 2020 21:03:46 CEST
Available scratch disk space (Kbyte units) at beginning of the job is
Filesystem     1K-blocks     Used Available Use% Mounted on
/dev/sda2      244568380 30779616 201295708  14% /
GAMESS temporary binary files will be written to /home/piet/scr
GAMESS supplementary output files will be written to /home/piet/gamess/scr
Copying input file alpha-d-glucopyranose_fukui_acid.inp to your run's scratch directory...
cp alpha-d-glucopyranose_fukui_acid.inp /home/piet/scr/alpha-d-glucopyranose_fukui_acid.F05
unset echo
 
Assuming a single but multicore node.
 
/home/piet/gamess/ddikick.x /home/piet/gamess/gamess.03.x alpha-d-glucopyranose_fukui_acid -ddi 1 8 pietdev:cpus=8 -scr /home/piet/scr

 Distributed Data Interface kickoff program.
 Initiating 8 compute processes on 1 nodes to run the following command:
 /home/piet/gamess/gamess.03.x alpha-d-glucopyranose_fukui_acid 

          ******************************************************
          *         GAMESS VERSION = 30 SEP 2019 (R2)          *
          *             FROM IOWA STATE UNIVERSITY             *
          * M.W.SCHMIDT, K.K.BALDRIDGE, J.A.BOATZ, S.T.ELBERT, *
          *   M.S.GORDON, J.H.JENSEN, S.KOSEKI, N.MATSUNAGA,   *
          *          K.A.NGUYEN, S.J.SU, T.L.WINDUS,           *
          *       TOGETHER WITH M.DUPUIS, J.A.MONTGOMERY       *
          *         J.COMPUT.CHEM.  14, 1347-1363(1993)        *
          **************** 64 BIT LINUX VERSION ****************

  SINCE 1993, STUDENTS AND POSTDOCS WORKING AT IOWA STATE UNIVERSITY
  AND ALSO IN THEIR VARIOUS JOBS AFTER LEAVING ISU HAVE MADE IMPORTANT
  CONTRIBUTIONS TO THE CODE:
     IVANA ADAMOVIC, CHRISTINE AIKENS, YURI ALEXEEV, POOJA ARORA,
     ANDREY ASADCHEV, ROB BELL, PRADIPTA BANDYOPADHYAY, JONATHAN BENTZ,
     COLLEEN BERTONI, BRETT BODE, KURT BRORSEN, CALEB CARLIN, GALINA CHABAN,
     WEI CHEN, CHEOL HO CHOI, PAUL DAY, ALBERT DEFUSCO, NUWAN DESILVA,
     TIM DUDLEY, DMITRI FEDOROV, ALEX FINDLATER, GRAHAM FLETCHER, 
     MARK FREITAG, KURT GLAESEMANN, EMILIE B GUIDEZ, ANASTASIA GUNINA, 
     DAN KEMP, SAROM SOK LEANG, GRANT MERRILL,
     NORIYUKI MINEZAWA, JONATHAN MULLIN,
     TAKESHI NAGATA, SEAN NEDD, HEATHER NETZLOFF, BOSILJKA NJEGIC, RYAN OLSON,
     MIKE PAK, BUU PHAM, DAVID POOLE,
     SPENCER PRUITT, LUKE ROSKOP, TOSAPORN SATTASATHUCHANA,
     JIM SHOEMAKER, LYUDMILA SLIPCHENKO,
     TONY SMITH, JIE SONG, TETSUYA TAKETSUGU, SIMON WEBB,
     JORGE LUIS GALVEZ VALLEJO, PENG XU, SOOHAENG YOO,
     FEDERICO ZAHARIEV

  ADDITIONAL CODE HAS BEEN PROVIDED BY COLLABORATORS IN OTHER GROUPS:
     IOWA STATE UNIVERSITY:
          JOE IVANIC, AARON WEST, LAIMUTIS BYTAUTAS, KLAUS RUEDENBERG
     UNIVERSITY OF TOKYO: KIMIHIKO HIRAO, TAKAHITO NAKAJIMA,
          TAKAO TSUNEDA, MUNEAKI KAMIYA, SUSUMU YANAGISAWA,
          KIYOSHI YAGI, MAHITO CHIBA, SEIKEN TOKURA, NAOAKI KAWAKAMI
     UNIVERSITY OF AARHUS: FRANK JENSEN
     UNIVERSITY OF IOWA: VISVALDAS KAIRYS, HUI LI
     NATIONAL INST. OF STANDARDS AND TECHNOLOGY: WALT STEVENS, DAVID GARMER
     UNIVERSITY OF PISA: BENEDETTA MENNUCCI, JACOPO TOMASI
     UNIVERSITY OF MEMPHIS: HENRY KURTZ, PRAKASHAN KORAMBATH
     UNIVERSITY OF ALBERTA: TOBY ZENG, MARIUSZ KLOBUKOWSKI
     UNIVERSITY OF NEW ENGLAND: MARK SPACKMAN
     MIE UNIVERSITY: HIROAKI UMEDA
     NAT. INST. OF ADVANCED INDUSTRIAL SCIENCE AND TECHNOLOGY: KAZUO KITAURA
     MICHIGAN STATE UNIVERSITY:
          KAROL KOWALSKI, MARTA WLOCH, JEFFREY GOUR, JESSE LUTZ,
          WEI LI, JUN SHEN, J. EMILIANO DEUSTUA, PIOTR PIECUCH
     UNIVERSITY OF MINNESOTA:
          ANDREW SAND, PRACHI SHARMA, YINAN SHU
     UNIVERSITY OF SILESIA: MONIKA MUSIAL, STANISLAW KUCHARSKI
     FACULTES UNIVERSITAIRES NOTRE-DAME DE LA PAIX:
          OLIVIER QUINET, BENOIT CHAMPAGNE
     UNIVERSITY OF CALIFORNIA - SANTA BARBARA: BERNARD KIRTMAN
     INSTITUTE FOR MOLECULAR SCIENCE:
          KAZUYA ISHIMURA, MICHIO KATOUDA, AND SHIGERU NAGASE
     UNIVERSITY OF NOTRE DAME: ANNA POMOGAEVA, DAN CHIPMAN
     KYUSHU UNIVERSITY:
          HARUYUKI NAKANO,
          FENG LONG GU, JACEK KORCHOWIEC, MARCIN MAKOWSKI, AND YURIKO AOKI,
          HIROTOSHI MORI AND EISAKU MIYOSHI
     PENNSYLVANIA STATE UNIVERSITY:
          TZVETELIN IORDANOV, CHET SWALINA, JONATHAN SKONE,
          SHARON HAMMES-SCHIFFER
     WASEDA UNIVERSITY:
          MASATO KOBAYASHI, TOMOKO AKAMA, TSUGUKI TOUMA,
          TAKESHI YOSHIKAWA, YASUHIRO IKABATA, JUNJI SEINO,
          YUYA NAKAJIMA, HIROMI NAKAI
     NANJING UNIVERSITY: SHUHUA LI
     UNIVERSITY OF NEBRASKA:
          PEIFENG SU, DEJUN SI, NANDUN THELLAMUREGE, YALI WANG, HUI LI
     UNIVERSITY OF ZURICH: ROBERTO PEVERATI, KIM BALDRIDGE
     N. COPERNICUS UNIVERSITY AND JACKSON STATE UNIVERSITY:
          MARIA BARYSZ
     UNIVERSITY OF COPENHAGEN: Jimmy Kromann, CASPER STEINMANN
     TOKYO INSTITUTE OF TECHNOLOGY: HIROYA NAKATA
     NAGOYA UNIVERSITY: YOSHIO NISHIMOTO, STEPHAN IRLE
     MOSCOW STATE UNIVERSITY: VLADIMIR MIRONOV
     A.N.NESMEYANOV INSTITUTE OF ORGANOELEMENT COMPOUNDS OF RUSSIAN ACADEMY OF SCIENCES:
          IGOR S. GERASIMOV
     JOHANNES KEPLER UNIVERSITY LINZ:
          CHRISTIAN FRIEDL


 PARALLEL VERSION RUNNING ON        8 PROCESSORS IN        1 NODES.

 EXECUTION OF GAMESS BEGUN Thu May 21 21:03:46 2020

            ECHO OF THE FIRST FEW INPUT CARDS -
 INPUT CARD> $BASIS GBASIS=N21 NGAUSS=3 $END                                                
 INPUT CARD> $CONTRL SCFTYP=UHF MAXIT=60 MULT=2 ICHARG=-1 $END                              
 INPUT CARD> $SYSTEM MEMDDI=1000 MWORDS=30 $END                                             
 INPUT CARD> $SCF DIRSCF=.TRUE. $END                                                        
 INPUT CARD> $STATPT OPTTOL=0.0001 NSTEP=999 $END                                           
 INPUT CARD> $DATA                                                                          
 INPUT CARD>                                                                                
 INPUT CARD>C1                                                                              
 INPUT CARD>O 8.0000000 -1.4277746328 2.5159749191 -0.2544729918                            
 INPUT CARD>C 6.0000000 -0.8092194040 1.3389667406 0.2599963320                             
 INPUT CARD>C 6.0000000 -1.6659253395 0.1796662270 -0.2278471025                            
 INPUT CARD>H 1.0000000 -1.6783551369 0.2228485926 -1.3244358872                            
 INPUT CARD>O 8.0000000 -3.0012969751 0.2167498462 0.3472101498                             
 INPUT CARD>C 6.0000000 -1.0376910996 -1.1191278810 0.2311964745                            
 INPUT CARD>H 1.0000000 -1.0086591334 -1.1264109088 1.3314581623                            
 INPUT CARD>O 8.0000000 -1.7454155926 -2.2825278787 -0.2830739300                           
 INPUT CARD>C 6.0000000 0.3873307443 -1.2192160160 -0.2952159139                            
 INPUT CARD>H 1.0000000 0.3471422729 -1.2049572623 -1.3942154622                            
 INPUT CARD>O 8.0000000 1.0246908871 -2.4185424665 0.2177087048                             
 INPUT CARD>C 6.0000000 1.1920915714 -0.0113095556 0.1957867842                             
 INPUT CARD>H 1.0000000 1.2344128506 -0.0308788754 1.2928714941                             
 INPUT CARD>O 8.0000000 0.5294829356 1.2139532658 -0.2866931487                             
 INPUT CARD>C 6.0000000 2.6117834271 -0.0236451456 -0.3363515157                            
 INPUT CARD>O 8.0000000 3.3598384995 0.9501677139 0.4516835264                              
 INPUT CARD>H 1.0000000 -0.7682307972 1.3295822841 1.3626133907                             
 INPUT CARD>H 1.0000000 -3.3669253864 1.1166886180 0.1261434680                             
 INPUT CARD>H 1.0000000 -2.7050241470 -2.1350774617 -0.0585558438                           
 INPUT CARD>H 1.0000000 0.3489956807 -3.1414879189 0.0851732569                             
 INPUT CARD>H 1.0000000 2.9882043388 -1.0486867194 -0.2175952105                            
 INPUT CARD>H 1.0000000 2.5755250319 0.2314098000 -1.4053726006                             
 INPUT CARD>H 1.0000000 4.2975419543 0.9470857283 0.1199745021                              
 INPUT CARD>H 1.0000000 -0.8581728496 3.2976244542 -0.0221566391                            
 INPUT CARD> $END                                                                           
   30000000 WORDS OF MEMORY AVAILABLE

     BASIS OPTIONS
     -------------
     GBASIS=N21          IGAUSS=       3      POLAR=NONE    
     NDFUNC=       0     NFFUNC=       0     DIFFSP=       F
     NPFUNC=       0      DIFFS=       F     BASNAM=        


     RUN TITLE
     ---------
                                                                                 

 THE POINT GROUP OF THE MOLECULE IS C1      
 THE ORDER OF THE PRINCIPAL AXIS IS     0

 ATOM      ATOMIC                      COORDINATES (BOHR)
           CHARGE         X                   Y                   Z
 O           8.0    -2.6981028282        4.7545031891       -0.4808842258
 C           6.0    -1.5292029375        2.5302802464        0.4913218253
 C           6.0    -3.1481424077        0.3395199383       -0.4305685908
 H           1.0    -3.1716313188        0.4211227768       -2.5028209151
 O           8.0    -5.6716288907        0.4095978172        0.6561320433
 C           6.0    -1.9609518381       -2.1148450403        0.4368979861
 H           1.0    -1.9060893771       -2.1286079672        2.5160910909
 O           8.0    -3.2983572047       -4.3133522501       -0.5349321620
 C           6.0     0.7319489733       -2.3039841901       -0.5578771845
 H           1.0     0.6560037745       -2.2770390527       -2.6346851914
 O           8.0     1.9363849987       -4.5703825514        0.4114097972
 C           6.0     2.2527264222       -0.0213719611        0.3699833742
 H           1.0     2.3327020434       -0.0583526133        2.4431728612
 O           8.0     1.0005776635        2.2940390343       -0.5417714936
 C           6.0     4.9355550165       -0.0446828461       -0.6356122002
 O           8.0     6.3491741271        1.7955566217        0.8535580981
 H           1.0    -1.4517457020        2.5125461951        2.5749659356
 H           1.0    -6.3625664014        2.1102355016        0.2383765897
 H           1.0    -5.1117544280       -4.0347113652       -0.1106544998
 H           1.0     0.6595062074       -5.9365513605        0.1609541170
 H           1.0     5.6468873957       -1.9817305466       -0.4111953241
 H           1.0     4.8670365848        0.4373011129       -2.6557691258
 H           1.0     8.1211767144        1.7897325134        0.2267189345
 H           1.0    -1.6217115358        6.2316066288       -0.0418699767

          INTERNUCLEAR DISTANCES (ANGS.)
          ------------------------------

                1 O          2 C          3 C          4 H          5 O     

   1 O       0.0000000    1.4257060 *  2.3485662 *  2.5428408 *  2.8503388 *
   2 C       1.4257060 *  0.0000000    1.5218127 *  2.1240391 *  2.4641796 *
   3 C       2.3485662 *  1.5218127 *  0.0000000    1.0975091 *  1.4544014 *
   4 H       2.5428408 *  2.1240391 *  1.0975091 *  0.0000000    2.1318097 *
   5 O       2.8503388 *  2.4641796 *  1.4544014 *  2.1318097 *  0.0000000  
   6 C       3.6880906    2.4688576 *  1.5140229 *  2.1520556 *  2.3777671 *
   7 H       3.9947228    2.6955322 *  2.1375849 *  3.0533207    2.5968116 *
   8 O       4.8090896    3.7797635    2.4640959 *  2.7140087 *  2.8672086 *
   9 C       4.1530614    2.8782446 *  2.4854116 *  2.7213787 *  3.7359747  
  10 H       4.2772280    3.2473279    2.7074044 *  2.4791407 *  4.0330955  
  11 O       5.5305519    4.1813743    3.7667790    4.0818641    4.8135345  
  12 C       3.6679149    2.4150807 *  2.8955480 *  3.2565889    4.2023146  
  13 H       3.9959957    2.6682843 *  3.2815965    3.9241423    4.3470488  
  14 O       2.3509904 *  1.4514206 *  2.4275564 *  2.6332010 *  3.7232586  
  15 C       4.7722535    3.7303622    4.2839119    4.4093490    5.6596570  
  16 O       5.0864181    4.1915334    5.1296917    5.3913809    6.4041284  
  17 H       2.1112778 *  1.1034186 *  2.1581768 *  3.0452290    2.6937009 *
  18 H       2.4213997 *  2.5708333 *  1.9740115 *  2.3988330 *  0.9962150 *
  19 H       4.8272185    3.9704577    2.5429165 *  2.8664118 *  2.4048940 *
  20 H       5.9396261    4.6310365    3.8971725    4.1732373    4.7508826  
  21 H       5.6753011    4.5110320    4.8135101    4.9617210    6.1477200  
  22 H       4.7508121    3.9314922    4.4021750    4.2546587    5.8457425  
  23 H       5.9481824    5.1236889    6.0226950    6.1904916    7.3388062  
  24 H       0.9946824 *  1.9794814 *  3.2274504    3.4384410    3.7711008  

                6 C          7 H          8 O          9 C         10 H     

   1 O       3.6880906    3.9947228    4.8090896    4.1530614    4.2772280  
   2 C       2.4688576 *  2.6955322 *  3.7797635    2.8782446 *  3.2473279  
   3 C       1.5140229 *  2.1375849 *  2.4640959 *  2.4854116 *  2.7074044 *
   4 H       2.1520556 *  3.0533207    2.7140087 *  2.7213787 *  2.4791407 *
   5 O       2.3777671 *  2.5968116 *  2.8672086 *  3.7359747    4.0330955  
   6 C       0.0000000    1.1006687 *  1.4556262 *  1.5224372 *  2.1370761 *
   7 H       1.1006687 *  0.0000000    2.1180487 *  2.1455696 *  3.0452691  
   8 O       1.4556262 *  2.1180487 *  0.0000000    2.3831463 *  2.6028047 *
   9 C       1.5224372 *  2.1455696 *  2.3831463 *  0.0000000    1.0998265 *
  10 H       2.1370761 *  3.0452691    2.6028047 *  1.0998265 *  0.0000000  
  11 O       2.4376381 *  2.6541579 *  2.8182926 *  1.4517932 *  2.1284174 *
  12 C       2.4900695 *  2.7159720 *  3.7438868    1.5322407 *  2.1602873 *
  13 H       2.7338427 *  2.4966080 *  4.0537519    2.1567835 *  3.0636817  
  14 O       2.8578859 *  3.2344395    4.1713975    2.4373331 *  2.6666424 *
  15 C       3.8523833    4.1358537    4.9082148    2.5257220 *  2.7646291 *
  16 O       4.8650658    4.9162947    6.0871840    3.7549816    4.1386284  
  17 H       2.7108845 *  2.4679301 *  4.0878499    3.2527055    3.9074356  
  18 H       3.2303628    3.4706914    3.7883276    4.4416701    4.6363595  
  19 H       1.9738565 *  2.4139597 *  0.9964931 *  3.2338010    3.4590215  
  20 H       2.4564534 *  2.7307486 *  2.2934640 *  1.9599221 *  2.4369541 *
  21 H       4.0514454    4.2872515    4.8922192    2.6076136 *  2.8955249 *
  22 H       4.1901839    4.7095961    5.1234720    2.8504311 *  2.6512194 *
  23 H       5.7224401    5.8243327    6.8636862    4.4894318    4.7465480  
  24 H       4.4276535    4.6289316    5.6562689    4.6933664    4.8588653  

               11 O         12 C         13 H         14 O         15 C     

   1 O       5.5305519    3.6679149    3.9959957    2.3509904 *  4.7722535  
   2 C       4.1813743    2.4150807 *  2.6682843 *  1.4514206 *  3.7303622  
   3 C       3.7667790    2.8955480 *  3.2815965    2.4275564 *  4.2839119  
   4 H       4.0818641    3.2565889    3.9241423    2.6332010 *  4.4093490  
   5 O       4.8135345    4.2023146    4.3470488    3.7232586    5.6596570  
   6 C       2.4376381 *  2.4900695 *  2.7338427 *  2.8578859 *  3.8523833  
   7 H       2.6541579 *  2.7159720 *  2.4966080 *  3.2344395    4.1358537  
   8 O       2.8182926 *  3.7438868    4.0537519    4.1713975    4.9082148  
   9 C       1.4517932 *  1.5322407 *  2.1567835 *  2.4373331 *  2.5257220 *
  10 H       2.1284174 *  2.1602873 *  3.0636817    2.6666424 *  2.7646291 *
  11 O       0.0000000    2.4131460 *  2.6269556 *  3.7006320    2.9259834 *
  12 C       2.4131460 *  0.0000000    1.0980751 *  1.4741459 *  1.5161953 *
  13 H       2.6269556 *  1.0980751 *  0.0000000    2.1310931 *  2.1334408 *
  14 O       3.7006320    1.4741459 *  2.1310931 *  0.0000000    2.4228271 *
  15 C       2.9259834 *  1.5161953 *  2.1334408 *  2.4228271 *  0.0000000  
  16 O       4.1055897    2.3851726 *  2.4874653 *  2.9369534 *  1.4590741 *
  17 H       4.3097348    2.6461933 *  2.4220446 *  2.1018190 *  4.0177360  
  18 H       5.6384871    4.6970060    4.8836952    3.9194250    6.1040332  
  19 H       3.7506598    4.4455136    4.6661731    4.6615544    5.7274566  
  20 H       0.9983886 *  3.2436188    3.4523017    4.3750118    3.8754142  
  21 H       2.4333884 *  2.1149603 *  2.5284832 *  3.3420989    1.0984107 *
  22 H       3.4729996    2.1299090 *  3.0245493    2.5304394 *  1.0996244 *
  23 H       4.6955893    3.2508601    3.4226981    3.7993244    1.9980825 *
  24 H       6.0230620    3.8987341    4.1457386    2.5173903 *  4.8135379  

               16 O         17 H         18 H         19 H         20 H     

   1 O       5.0864181    2.1112778 *  2.4213997 *  4.8272185    5.9396261  
   2 C       4.1915334    1.1034186 *  2.5708333 *  3.9704577    4.6310365  
   3 C       5.1296917    2.1581768 *  1.9740115 *  2.5429165 *  3.8971725  
   4 H       5.3913809    3.0452290    2.3988330 *  2.8664118 *  4.1732373  
   5 O       6.4041284    2.6937009 *  0.9962150 *  2.4048940 *  4.7508826  
   6 C       4.8650658    2.7108845 *  3.2303628    1.9738565 *  2.4564534 *
   7 H       4.9162947    2.4679301 *  3.4706914    2.4139597 *  2.7307486 *
   8 O       6.0871840    4.0878499    3.7883276    0.9964931 *  2.2934640 *
   9 C       3.7549816    3.2527055    4.4416701    3.2338010    1.9599221 *
  10 H       4.1386284    3.9074356    4.6363595    3.4590215    2.4369541 *
  11 O       4.1055897    4.3097348    5.6384871    3.7506598    0.9983886 *
  12 C       2.3851726 *  2.6461933 *  4.6970060    4.4455136    3.2436188  
  13 H       2.4874653 *  2.4220446 *  4.8836952    4.6661731    3.4523017  
  14 O       2.9369534 *  2.1018190 *  3.9194250    4.6615544    4.3750118  
  15 C       1.4590741 *  4.0177360    6.1040332    5.7274566    3.8754142  
  16 O       0.0000000    4.2443733    6.7366949    6.8236091    5.0932455  
  17 H       4.2443733    0.0000000    2.8857226 *  4.2160121    4.7823129  
  18 H       6.7366949    2.8857226 *  0.0000000    3.3235839    5.6517091  
  19 H       6.8236091    4.2160121    3.3235839    0.0000000    3.2187819  
  20 H       5.0932455    4.7823129    5.6517091    3.2187819    0.0000000  
  21 H       2.1404357 *  4.7184773    6.7226989    5.7981367    3.3818498  
  22 H       2.1401911 *  4.4775476    6.2001594    5.9412437    4.3076210  
  23 H       0.9946498 *  5.2299626    7.6663461    7.6529429    5.6840710  
  24 H       4.8504327    2.4080838 *  3.3275086    5.7381560    6.5521709  

               21 H         22 H         23 H         24 H     

   1 O       5.6753011    4.7508121    5.9481824    0.9946824 *
   2 C       4.5110320    3.9314922    5.1236889    1.9794814 *
   3 C       4.8135101    4.4021750    6.0226950    3.2274504  
   4 H       4.9617210    4.2546587    6.1904916    3.4384410  
   5 O       6.1477200    5.8457425    7.3388062    3.7711008  
   6 C       4.0514454    4.1901839    5.7224401    4.4276535  
   7 H       4.2872515    4.7095961    5.8243327    4.6289316  
   8 O       4.8922192    5.1234720    6.8636862    5.6562689  
   9 C       2.6076136 *  2.8504311 *  4.4894318    4.6933664  
  10 H       2.8955249 *  2.6512194 *  4.7465480    4.8588653  
  11 O       2.4333884 *  3.4729996    4.6955893    6.0230620  
  12 C       2.1149603 *  2.1299090 *  3.2508601    3.8987341  
  13 H       2.5284832 *  3.0245493    3.4226981    4.1457386  
  14 O       3.3420989    2.5304394 *  3.7993244    2.5173903 *
  15 C       1.0984107 *  1.0996244 *  1.9980825 *  4.8135379  
  16 O       2.1404357 *  2.1401911 *  0.9946498 *  4.8504327  
  17 H       4.7184773    4.4775476    5.2299626    2.4080838 *
  18 H       6.7226989    6.2001594    7.6663461    3.3275086  
  19 H       5.7981367    5.9412437    7.6529429    5.7381560  
  20 H       3.3818498    4.3076210    5.6840710    6.5521709  
  21 H       0.0000000    1.7943708 *  2.4106899 *  5.8071710  
  22 H       1.7943708 *  0.0000000    2.4091945 *  4.8067910  
  23 H       2.4106899 *  2.4091945 *  0.0000000    5.6680357  
  24 H       5.8071710    4.8067910    5.6680357    0.0000000  

  * ... LESS THAN  3.000


     ATOMIC BASIS SET
     ----------------
 THE CONTRACTED PRIMITIVE FUNCTIONS HAVE BEEN UNNORMALIZED
 THE CONTRACTED BASIS FUNCTIONS ARE NOW NORMALIZED TO UNITY

  SHELL TYPE  PRIMITIVE        EXPONENT          CONTRACTION COEFFICIENT(S)

 O         

      1   S       1           322.0370000    0.059239393389
      1   S       2            48.4308000    0.351499960776
      1   S       3            10.4206000    0.707657921031

      2   L       4             7.4029400   -0.404453583190    0.244586106967
      2   L       5             1.5762000    1.221561761397    0.853955373466

      3   L       6             0.3736840    1.000000000000    1.000000000000

 C         

      4   S       7           172.2560000    0.061766907377
      4   S       8            25.9109000    0.358794042852
      4   S       9             5.5333500    0.700713083689

      5   L      10             3.6649800   -0.395895162119    0.236459946619
      5   L      11             0.7705450    1.215834355681    0.860618805716

      6   L      12             0.1958570    1.000000000000    1.000000000000

 C         

      7   S      13           172.2560000    0.061766907377
      7   S      14            25.9109000    0.358794042852
      7   S      15             5.5333500    0.700713083689

      8   L      16             3.6649800   -0.395895162119    0.236459946619
      8   L      17             0.7705450    1.215834355681    0.860618805716

      9   L      18             0.1958570    1.000000000000    1.000000000000

 H         

     10   S      19             5.4471780    0.156284978695
     10   S      20             0.8245472    0.904690876670

     11   S      21             0.1831916    1.000000000000

 O         

     12   S      22           322.0370000    0.059239393389
     12   S      23            48.4308000    0.351499960776
     12   S      24            10.4206000    0.707657921031

     13   L      25             7.4029400   -0.404453583190    0.244586106967
     13   L      26             1.5762000    1.221561761397    0.853955373466

     14   L      27             0.3736840    1.000000000000    1.000000000000

 C         

     15   S      28           172.2560000    0.061766907377
     15   S      29            25.9109000    0.358794042852
     15   S      30             5.5333500    0.700713083689

     16   L      31             3.6649800   -0.395895162119    0.236459946619
     16   L      32             0.7705450    1.215834355681    0.860618805716

     17   L      33             0.1958570    1.000000000000    1.000000000000

 H         

     18   S      34             5.4471780    0.156284978695
     18   S      35             0.8245472    0.904690876670

     19   S      36             0.1831916    1.000000000000

 O         

     20   S      37           322.0370000    0.059239393389
     20   S      38            48.4308000    0.351499960776
     20   S      39            10.4206000    0.707657921031

     21   L      40             7.4029400   -0.404453583190    0.244586106967
     21   L      41             1.5762000    1.221561761397    0.853955373466

     22   L      42             0.3736840    1.000000000000    1.000000000000

 C         

     23   S      43           172.2560000    0.061766907377
     23   S      44            25.9109000    0.358794042852
     23   S      45             5.5333500    0.700713083689

     24   L      46             3.6649800   -0.395895162119    0.236459946619
     24   L      47             0.7705450    1.215834355681    0.860618805716

     25   L      48             0.1958570    1.000000000000    1.000000000000

 H         

     26   S      49             5.4471780    0.156284978695
     26   S      50             0.8245472    0.904690876670

     27   S      51             0.1831916    1.000000000000

 O         

     28   S      52           322.0370000    0.059239393389
     28   S      53            48.4308000    0.351499960776
     28   S      54            10.4206000    0.707657921031

     29   L      55             7.4029400   -0.404453583190    0.244586106967
     29   L      56             1.5762000    1.221561761397    0.853955373466

     30   L      57             0.3736840    1.000000000000    1.000000000000

 C         

     31   S      58           172.2560000    0.061766907377
     31   S      59            25.9109000    0.358794042852
     31   S      60             5.5333500    0.700713083689

     32   L      61             3.6649800   -0.395895162119    0.236459946619
     32   L      62             0.7705450    1.215834355681    0.860618805716

     33   L      63             0.1958570    1.000000000000    1.000000000000

 H         

     34   S      64             5.4471780    0.156284978695
     34   S      65             0.8245472    0.904690876670

     35   S      66             0.1831916    1.000000000000

 O         

     36   S      67           322.0370000    0.059239393389
     36   S      68            48.4308000    0.351499960776
     36   S      69            10.4206000    0.707657921031

     37   L      70             7.4029400   -0.404453583190    0.244586106967
     37   L      71             1.5762000    1.221561761397    0.853955373466

     38   L      72             0.3736840    1.000000000000    1.000000000000

 C         

     39   S      73           172.2560000    0.061766907377
     39   S      74            25.9109000    0.358794042852
     39   S      75             5.5333500    0.700713083689

     40   L      76             3.6649800   -0.395895162119    0.236459946619
     40   L      77             0.7705450    1.215834355681    0.860618805716

     41   L      78             0.1958570    1.000000000000    1.000000000000

 O         

     42   S      79           322.0370000    0.059239393389
     42   S      80            48.4308000    0.351499960776
     42   S      81            10.4206000    0.707657921031

     43   L      82             7.4029400   -0.404453583190    0.244586106967
     43   L      83             1.5762000    1.221561761397    0.853955373466

     44   L      84             0.3736840    1.000000000000    1.000000000000

 H         

     45   S      85             5.4471780    0.156284978695
     45   S      86             0.8245472    0.904690876670

     46   S      87             0.1831916    1.000000000000

 H         

     47   S      88             5.4471780    0.156284978695
     47   S      89             0.8245472    0.904690876670

     48   S      90             0.1831916    1.000000000000

 H         

     49   S      91             5.4471780    0.156284978695
     49   S      92             0.8245472    0.904690876670

     50   S      93             0.1831916    1.000000000000

 H         

     51   S      94             5.4471780    0.156284978695
     51   S      95             0.8245472    0.904690876670

     52   S      96             0.1831916    1.000000000000

 H         

     53   S      97             5.4471780    0.156284978695
     53   S      98             0.8245472    0.904690876670

     54   S      99             0.1831916    1.000000000000

 H         

     55   S     100             5.4471780    0.156284978695
     55   S     101             0.8245472    0.904690876670

     56   S     102             0.1831916    1.000000000000

 H         

     57   S     103             5.4471780    0.156284978695
     57   S     104             0.8245472    0.904690876670

     58   S     105             0.1831916    1.000000000000

 H         

     59   S     106             5.4471780    0.156284978695
     59   S     107             0.8245472    0.904690876670

     60   S     108             0.1831916    1.000000000000

 TOTAL NUMBER OF BASIS SET SHELLS             =   60
 NUMBER OF CARTESIAN GAUSSIAN BASIS FUNCTIONS =  132
 NUMBER OF ELECTRONS                          =   97
 CHARGE OF MOLECULE                           =   -1
 SPIN MULTIPLICITY                            =    2
 NUMBER OF OCCUPIED ORBITALS (ALPHA)          =   49
 NUMBER OF OCCUPIED ORBITALS (BETA )          =   48
 TOTAL NUMBER OF ATOMS                        =   24
 THE NUCLEAR REPULSION ENERGY IS      816.4741506658

     $CONTRL OPTIONS
     ---------------
 SCFTYP=UHF          RUNTYP=ENERGY       EXETYP=RUN     
 MPLEVL=       0     CITYP =NONE         CCTYP =NONE         VBTYP =NONE    
 DFTTYP=NONE         TDDFT =NONE    
 MULT  =       2     ICHARG=      -1     NZVAR =       0     COORD =UNIQUE  
 PP    =NONE         RELWFN=NONE         LOCAL =NONE         NUMGRD=       F
 ISPHER=      -1     NOSYM =       0     MAXIT =      60     UNITS =ANGS    
 PLTORB=       F     MOLPLT=       F     AIMPAC=       F     FRIEND=        
 NPRINT=       7     IREST =       0     GEOM  =INPUT   
 NORMF =       0     NORMP =       0     ITOL  =      20     ICUT  =       9
 INTTYP=BEST         GRDTYP=BEST         QMTTOL= 1.0E-06

     $SYSTEM OPTIONS
     ---------------
  REPLICATED MEMORY=    30000000 WORDS (ON EVERY NODE).
 DISTRIBUTED MEMDDI=        1000 MILLION WORDS IN AGGREGATE,
 MEMDDI DISTRIBUTED OVER   8 PROCESSORS IS   125000000 WORDS/PROCESSOR.
 TOTAL MEMORY REQUESTED ON EACH PROCESSOR=   155000000 WORDS.
 TIMLIM=      525600.00 MINUTES, OR     365.0 DAYS.
 PARALL= T  BALTYP=  DLB     KDIAG=    0  COREFL= F
 MXSEQ2=     300 MXSEQ3=     150  mem10=         0

          ----------------
          PROPERTIES INPUT
          ----------------

     MOMENTS            FIELD           POTENTIAL          DENSITY
 IEMOM =       1   IEFLD =       0   IEPOT =       0   IEDEN =       0
 WHERE =COMASS     WHERE =NUCLEI     WHERE =NUCLEI     WHERE =NUCLEI  
 OUTPUT=BOTH       OUTPUT=BOTH       OUTPUT=BOTH       OUTPUT=BOTH    
 IEMINT=       0   IEFINT=       0                     IEDINT=       0
                                                       MORB  =       0
          EXTRAPOLATION IN EFFECT
          SOSCF IN EFFECT
          DIIS or SOSCF will be reset if energy rises
 ORBITAL PRINTING OPTION: NPREO=     1   132     2     1

     -------------------------------
     INTEGRAL TRANSFORMATION OPTIONS
     -------------------------------
     NWORD  =            0
     CUTOFF = 1.0E-09     MPTRAN =       0
     DIRTRF =       T     AOINTS =DUP     

          ----------------------
          INTEGRAL INPUT OPTIONS
          ----------------------
 NOPK  =       1 NORDER=       0 SCHWRZ=       T

     ------------------------------------------
     THE POINT GROUP IS C1 , NAXIS= 0, ORDER= 1
     ------------------------------------------

     DIMENSIONS OF THE SYMMETRY SUBSPACES ARE
 A   =  132

 ..... DONE SETTING UP THE RUN .....
 CPU     0: STEP CPU TIME=     0.02 TOTAL CPU TIME=          0.0 (      0.0 MIN)
 TOTAL WALL CLOCK TIME=          0.0 SECONDS, CPU UTILIZATION IS    50.00%

          ********************
          1 ELECTRON INTEGRALS
          ********************
 ...... END OF ONE-ELECTRON INTEGRALS ......
 CPU     0: STEP CPU TIME=     0.01 TOTAL CPU TIME=          0.0 (      0.0 MIN)
 TOTAL WALL CLOCK TIME=          0.1 SECONDS, CPU UTILIZATION IS    60.00%

          -------------
          GUESS OPTIONS
          -------------
          GUESS =HUCKEL            NORB  =       0          NORDER=       0
          MIX   =       F          PRTMO =       F          PUNMO =       F
          TOLZ  = 1.0E-08          TOLE  = 1.0E-05
          SYMDEN=       F          PURIFY=       F

 INITIAL GUESS ORBITALS GENERATED BY HUCKEL   ROUTINE.
 HUCKEL GUESS REQUIRES    164928 WORDS.

 SYMMETRIES FOR INITIAL GUESS ORBITALS FOLLOW.  ALPHA SET(S).
    49 ORBITALS ARE OCCUPIED (   12 CORE ORBITALS).
    13=A       14=A       15=A       16=A       17=A       18=A       19=A   
    20=A       21=A       22=A       23=A       24=A       25=A       26=A   
    27=A       28=A       29=A       30=A       31=A       32=A       33=A   
    34=A       35=A       36=A       37=A       38=A       39=A       40=A   
    41=A       42=A       43=A       44=A       45=A       46=A       47=A   
    48=A       49=A       50=A       51=A       52=A       53=A       54=A   
    55=A       56=A       57=A       58=A       59=A   

 SYMMETRIES FOR INITIAL GUESS ORBITALS FOLLOW.   BETA SET(S).
    48 ORBITALS ARE OCCUPIED (   12 CORE ORBITALS).
    13=A       14=A       15=A       16=A       17=A       18=A       19=A   
    20=A       21=A       22=A       23=A       24=A       25=A       26=A   
    27=A       28=A       29=A       30=A       31=A       32=A       33=A   
    34=A       35=A       36=A       37=A       38=A       39=A       40=A   
    41=A       42=A       43=A       44=A       45=A       46=A       47=A   
    48=A       49=A       50=A       51=A       52=A       53=A       54=A   
    55=A       56=A       57=A       58=A   
 ...... END OF INITIAL ORBITAL SELECTION ......
 CPU     0: STEP CPU TIME=     0.05 TOTAL CPU TIME=          0.1 (      0.0 MIN)
 TOTAL WALL CLOCK TIME=          0.1 SECONDS, CPU UTILIZATION IS    72.73%

                    ----------------------
                    AO INTEGRAL TECHNOLOGY
                    ----------------------
     S,P,L SHELL ROTATED AXIS INTEGRALS, REPROGRAMMED BY
        KAZUYA ISHIMURA (IMS) AND JOSE SIERRA (SYNSTAR).
     S,P,D,L SHELL ROTATED AXIS INTEGRALS PROGRAMMED BY
        KAZUYA ISHIMURA (INSTITUTE FOR MOLECULAR SCIENCE).
     S,P,D,F,G SHELL TO TOTAL QUARTET ANGULAR MOMENTUM SUM 5,
        ERIC PROGRAM BY GRAHAM FLETCHER (ELORET AND NASA ADVANCED
        SUPERCOMPUTING DIVISION, AMES RESEARCH CENTER).
     S,P,D,F,G,L SHELL GENERAL RYS QUADRATURE PROGRAMMED BY
        MICHEL DUPUIS (PACIFIC NORTHWEST NATIONAL LABORATORY).

          --------------------
          2 ELECTRON INTEGRALS
          --------------------

 DIRECT SCF METHOD SKIPS INTEGRAL STORAGE ON DISK.
 DIRECT TRANSFORMATION SKIPS AO INTEGRAL STORAGE ON DISK.
  ...... END OF TWO-ELECTRON INTEGRALS .....
 CPU     0: STEP CPU TIME=     0.02 TOTAL CPU TIME=          0.1 (      0.0 MIN)
 TOTAL WALL CLOCK TIME=          0.1 SECONDS, CPU UTILIZATION IS    83.33%

          ---------------------------
                  UHF SCF CALCULATION
          ---------------------------

     NUCLEAR ENERGY =       816.4741506658
     MAXIT = 60     NPUNCH=  2     MULT=  2
     EXTRAP=T  DAMP=F  SHIFT=F  RSTRCT=F  DIIS=F  SOSCF=T
     DENSITY MATRIX CONV=  2.00E-05
     SOSCF WILL OPTIMIZE    4067 ALPHA AND    4032 BETA ROTATION ANGLES.
     SOGTOL= 2.500E-01
     MEMORY REQUIRED FOR UHF/ROHF ITERS=    281061 WORDS.

 DIRECT SCF CALCULATION, SCHWRZ=T   FDIFF=T
 SCHWARZ INEQUALITY OVERHEAD:      7999 INTEGRALS, T=        0.00

                                                                                NONZERO     BLOCKS
 ITER EX      TOTAL ENERGY        E CHANGE  DENSITY CHANGE    ORB. GRAD       INTEGRALS    SKIPPED
   1  0     -677.2770730190  -677.2770730190   0.788109443   0.000000000       20249395     898893
          ---------------START SECOND ORDER SCF---------------
   2  1     -679.1123557586    -1.8352827395   0.274241873   0.056160194       20248228     901915
   3  2     -679.2579383096    -0.1455825510   0.332039748   0.027427726       20206161     912232
   4  3     -679.2951052700    -0.0371669604   0.060127493   0.016096976       20171690     919787
   5  4     -679.3028039052    -0.0076986353   0.108525362   0.008510818       19908003     958946
   6  5     -679.3061121384    -0.0033082332   0.116336647   0.004190512       19873156     961796
   7  6     -679.3080254916    -0.0019133531   0.247744385   0.004947709       19904291     957811
   8  7     -679.3105878350    -0.0025623435   0.209183390   0.006529331       20067416     934666
   9  8     -679.3130097974    -0.0024219624   0.242060222   0.007913766       20011335     943392
  10  9     -679.3148530657    -0.0018432682   0.177842877   0.012719560       20076919     931043
  11 10     -679.3200276595    -0.0051745938   0.081323379   0.006432234       19986022     945913
  12 11     -679.3228807057    -0.0028530463   0.161772386   0.002691487       19717092     975484
  13 12     -679.3238601750    -0.0009794693   0.033236225   0.001747158       19840232     962695
  14 13     -679.3241827702    -0.0003225951   0.022599138   0.000903050       19387873    1004619
  15 14     -679.3242811977    -0.0000984275   0.028429530   0.000611799       18913321    1040946
  16 15     -679.3243420277    -0.0000608300   0.029564415   0.000460998       19054013    1031443
  17 16     -679.3243749351    -0.0000329074   0.043158260   0.000330678       18934836    1040895
  18 17     -679.3244060008    -0.0000310657   0.040427563   0.000203930       19072490    1032048
  19 18     -679.3244234650    -0.0000174643   0.044743134   0.000204708       18977734    1038305
  20 19     -679.3244366422    -0.0000131772   0.110165531   0.000190867       19059465    1032649
  21 20     -679.3244766920    -0.0000400498   0.176761812   0.000354375       19476350    1001004
 NEXT ENERGY RISES: SWITCHING SOSCF OFF FOR  5 ITERS, NEW SOGTOL= 3.19E-04
  22 21     -679.3244191514     0.0000575406   0.001007147   0.000173868       19676414     982446
  23 22     -679.3244212870    -0.0000021356   0.001292659   0.000145572       17101752    1138821
  24 23     -679.3244224074    -0.0000011204   0.001118833   0.000115913       16802734    1150364
  25 24     -679.3244231945    -0.0000007871   0.001202113   0.000123813       16592487    1159846
  26  0     -679.3244238240    -0.0000006295   0.010147845   0.000112768       16508938    1164074
          ---------------START SECOND ORDER SCF---------------
  27  1     -679.3244260715    -0.0000022475   0.002321659   0.000185034       18280612    1077713
  28  2     -679.3244276096    -0.0000015381   0.001795132   0.000098610       16918691    1146965
  29  3     -679.3244285707    -0.0000009612   0.005275827   0.000075705       16685854    1157565
  30  4     -679.3244300252    -0.0000014545   0.005346704   0.000078028       17656521    1112397
  31  5     -679.3244311259    -0.0000011007   0.013800135   0.000094492       17675330    1111847
  32  6     -679.3244335767    -0.0000024508   0.024639907   0.000116230       18397053    1073835
  33  7     -679.3244377886    -0.0000042119   0.088994137   0.000185757       18770387    1051789
  34  8     -679.3244605703    -0.0000227816   0.164804284   0.000317722       19418487    1005738
 NEXT ENERGY RISES: SWITCHING SOSCF OFF FOR  5 ITERS, NEW SOGTOL= 2.86E-04
  35  9     -679.3244174476     0.0000431227   0.001116019   0.000124202       19670908     983274
  36 10     -679.3244186390    -0.0000011914   0.001317666   0.000134442       16747367    1154329
  37 11     -679.3244194340    -0.0000007950   0.001273545   0.000116545       16659927    1159364
  38 12     -679.3244201076    -0.0000006736   0.001306251   0.000128518       16529325    1164826
  39  0     -679.3244207229    -0.0000006153   0.002195793   0.000121065       16511623    1166087
  40  1     -679.3244188071     0.0000019158   0.003651727   0.000303719       17205061    1135702
          ---------------START SECOND ORDER SCF---------------
  41  2     -679.3244217853    -0.0000029782   0.001188025   0.000113105       17270691    1130306
  42  3     -679.3244227704    -0.0000009851   0.001856999   0.000153039       16600035    1160099
  43  4     -679.3244236802    -0.0000009099   0.011883896   0.000134448       16873597    1149777
  44  5     -679.3244269092    -0.0000032290   0.010492368   0.000105929       18363680    1074796
  45  6     -679.3244292520    -0.0000023428   0.038932864   0.000156674       18239392    1081697
  46  7     -679.3244374340    -0.0000081820   0.149491316   0.000220706       19038556    1033449
  47  8     -679.3245061340    -0.0000687001   0.198341884   0.000423439       19633191     986697
 NEXT ENERGY RISES: SWITCHING SOSCF OFF FOR  5 ITERS, NEW SOGTOL= 2.57E-04
  48  9     -679.3244268430     0.0000792911   0.000949262   0.000147203       19736635     976266
  49 10     -679.3244281308    -0.0000012879   0.001312804   0.000130071       16305876    1173780
  50 11     -679.3244288206    -0.0000006897   0.001097122   0.000075924       16383022    1171885
  51  0     -679.3244293036    -0.0000004831   0.001954102   0.000112088       16018554    1187415
  52  1     -679.3244277304     0.0000015732   0.003197026   0.000259815       17038748    1144558
          ---------------START SECOND ORDER SCF---------------
  53  2     -679.3244300105    -0.0000022801   0.001024954   0.000100687       17071158    1139708
  54  3     -679.3244307217    -0.0000007112   0.001658925   0.000124363       16340002    1171989
  55  4     -679.3244313400    -0.0000006183   0.007705781   0.000106963       16665927    1159208
  56  5     -679.3244329815    -0.0000016415   0.008031252   0.000090554       17982514    1095938
  57  6     -679.3244344279    -0.0000014464   0.032640223   0.000144154       18000797    1094895
  58  7     -679.3244401122    -0.0000056843   0.151767871   0.000246160       18927864    1041299
  59  8     -679.3245040403    -0.0000639282   0.197781983   0.000630847       19633096     986942
 NEXT ENERGY RISES: SWITCHING SOSCF OFF FOR  5 ITERS, NEW SOGTOL= 2.32E-04
  60  9     -679.3244310625     0.0000729779   0.000693687   0.000130392       19729136     977341

 SCF IS UNCONVERGED, TOO MANY ITERATIONS
     TIME TO FORM FOCK OPERATORS=      16.1 SECONDS (       0.3 SEC/ITER)
     FOCK TIME ON FIRST ITERATION=       0.3, LAST ITERATION=       0.3
     TIME TO SOLVE SCF EQUATIONS=       1.0 SECONDS (       0.0 SEC/ITER)

 FINAL UHF ENERGY IS        0.0000000000 AFTER  60 ITERATIONS

          --------------------
          SPIN SZ   =    0.500
          S-SQUARED =    0.758
          --------------------

  ----- ALPHA SET ----- 

          ------------
          EIGENVECTORS
          ------------

                      1          2          3          4          5
                  -20.3335   -20.3287   -20.3152   -20.2918   -20.2732
                     A          A          A          A          A   
    1  O  1  S   -0.000046  -0.000658  -0.000387   0.002787   0.001477
    2  O  1  S   -0.000038  -0.000426  -0.000237   0.001448   0.000487
    3  O  1  X   -0.000014  -0.000048  -0.000072   0.000430  -0.000165
    4  O  1  Y   -0.000001   0.000103  -0.000050  -0.000199  -0.000362
    5  O  1  Z    0.000011   0.000037  -0.000096  -0.000222  -0.000168
    6  O  1  S    0.000129   0.001494   0.001057  -0.004202  -0.000512
    7  O  1  X    0.000084   0.000427   0.000401  -0.002922   0.000324
    8  O  1  Y   -0.000078  -0.000823  -0.000033   0.002022   0.001124
    9  O  1  Z   -0.000031  -0.000103   0.000512   0.000696   0.000791
   10  C  2  S    0.000074   0.000077  -0.000081  -0.000859   0.000142
   11  C  2  S    0.000371   0.000156  -0.000548  -0.003315   0.000412
   12  C  2  X   -0.000075  -0.000152   0.000098   0.001649   0.000479
   13  C  2  Y   -0.000027   0.000345   0.000489   0.000049   0.000474
   14  C  2  Z    0.000029  -0.000141  -0.000044  -0.000191   0.000386
   15  C  2  S   -0.002066  -0.003234   0.000408   0.018721  -0.004291
   16  C  2  X   -0.000020   0.000295   0.001322   0.007768   0.003932
   17  C  2  Y    0.000776  -0.000215  -0.002530  -0.000914   0.002051
   18  C  2  Z    0.000246   0.002965   0.000005  -0.007144  -0.003794
   19  C  3  S   -0.000029  -0.000133   0.000226   0.000119  -0.000977
   20  C  3  S   -0.000160  -0.000981   0.000840   0.000080  -0.004167
   21  C  3  X    0.000029  -0.000624  -0.000219  -0.000557  -0.001168
   22  C  3  Y    0.000013   0.000121   0.000420  -0.000502   0.000024
   23  C  3  Z   -0.000103   0.000182  -0.000255  -0.000418  -0.000251
   24  C  3  S    0.000972   0.001901  -0.006757  -0.003869   0.024095
   25  C  3  X    0.000373   0.004580  -0.000280  -0.002145  -0.010194
   26  C  3  Y    0.000737   0.001234   0.004587  -0.001704  -0.001191
   27  C  3  Z    0.001110  -0.001504   0.002204   0.003220   0.010917
   28  H  4  S    0.000051  -0.000734   0.000829   0.000774  -0.000584
   29  H  4  S    0.000437   0.000026   0.001109   0.001032   0.000725
   30  O  5  S    0.000141  -0.001466   0.001624  -0.001225   0.983527
   31  O  5  S    0.000058  -0.000524   0.000344  -0.000162   0.098285
   32  O  5  X    0.000021  -0.000048   0.000170  -0.000113   0.002244
   33  O  5  Y    0.000035  -0.000039  -0.000343  -0.000182   0.001984
   34  O  5  Z    0.000019   0.000090   0.000119   0.000004  -0.001891
   35  O  5  S   -0.000208   0.001871   0.000047  -0.000500  -0.046759
   36  O  5  X   -0.000175   0.000649  -0.000326   0.000092  -0.008609
   37  O  5  Y   -0.000167   0.000061   0.000902   0.000742  -0.003861
   38  O  5  Z   -0.000087  -0.000549  -0.000615  -0.000055   0.004992
   39  C  6  S   -0.000046   0.000243  -0.000974   0.000126   0.000284
   40  C  6  S   -0.000266   0.000925  -0.004088   0.001011   0.001183
   41  C  6  X    0.000130  -0.000501  -0.000587   0.000258   0.000330
   42  C  6  Y    0.000098   0.000057  -0.000894   0.000377  -0.000287
   43  C  6  Z    0.000146   0.000237   0.000228   0.000515   0.000210
   44  C  6  S    0.002411  -0.007514   0.024320  -0.002497  -0.009232
   45  C  6  X    0.000505  -0.005363  -0.005468  -0.001198   0.003425
   46  C  6  Y   -0.001270   0.002000  -0.009337  -0.002209  -0.004834
   47  C  6  Z   -0.001806  -0.001416  -0.009906  -0.004003  -0.001008
   48  H  7  S    0.000146   0.000785  -0.000710   0.000842   0.000831
   49  H  7  S    0.000341   0.000921   0.000390   0.001894   0.000748
   50  O  8  S    0.001854   0.005807   0.983507  -0.003999  -0.001607
   51  O  8  S    0.000370   0.000807   0.098366   0.000026   0.000038
   52  O  8  X   -0.000034   0.000408  -0.000705   0.000109  -0.000027
   53  O  8  Y    0.000031  -0.000052   0.003087   0.000107   0.000077
   54  O  8  Z    0.000021  -0.000100   0.001839  -0.000069  -0.000078
   55  O  8  S   -0.001053  -0.000256  -0.046912  -0.001504  -0.000277
   56  O  8  X   -0.000099  -0.001027  -0.000872  -0.000657  -0.000032
   57  O  8  Y   -0.000399   0.000284  -0.009734  -0.000792   0.000191
   58  O  8  Z   -0.000138   0.000496  -0.004678   0.000227   0.000331
   59  C  9  S   -0.000109  -0.000987   0.000269   0.000059  -0.000152
   60  C  9  S   -0.000697  -0.004251   0.001064  -0.000254  -0.001074
   61  C  9  X   -0.000575   0.000343   0.000396  -0.000311   0.000382
   62  C  9  Y   -0.000140  -0.001139   0.000108  -0.000692  -0.000535
   63  C  9  Z    0.000105  -0.000311  -0.000259  -0.000339   0.000169
   64  C  9  S    0.001536   0.024087  -0.008746  -0.002374   0.002632
   65  C  9  X    0.004809   0.004417   0.005029   0.000406  -0.001313
   66  C  9  Y    0.000600  -0.010234   0.000690  -0.001831   0.004641
   67  C  9  Z   -0.000051   0.010907   0.001119   0.002826  -0.001328
   68  H 10  S   -0.000355  -0.000585   0.000836   0.000536  -0.000763
   69  H 10  S    0.000162   0.000949   0.000887   0.000970  -0.000081
   70  O 11  S    0.007182   0.983516  -0.005793   0.000602   0.001382
   71  O 11  S    0.000918   0.098409  -0.000340   0.000030  -0.000243
   72  O 11  X   -0.000035  -0.003317  -0.000082  -0.000160  -0.000053
   73  O 11  Y    0.000011   0.001038   0.000015  -0.000184  -0.000053
   74  O 11  Z   -0.000078  -0.001600   0.000114  -0.000016   0.000088
   75  O 11  S   -0.001379  -0.047340  -0.000147  -0.000477   0.001827
   76  O 11  X    0.000012   0.008517  -0.000116   0.000713  -0.000085
   77  O 11  Y   -0.000519  -0.005863   0.000101   0.000402   0.000605
   78  O 11  Z    0.000440   0.004195  -0.000467   0.000031  -0.000514
   79  C 12  S    0.000275   0.000158  -0.000085  -0.000773   0.000102
   80  C 12  S    0.001213   0.000505  -0.000524  -0.003138   0.000385
   81  C 12  X   -0.000337   0.000176   0.000594  -0.000790   0.000450
   82  C 12  Y   -0.000244   0.000497   0.000283   0.001255   0.000001
   83  C 12  Z    0.000065   0.000559  -0.000053   0.000121  -0.000243
   84  C 12  S   -0.009537  -0.004715   0.000454   0.016213  -0.004153
   85  C 12  X   -0.004847   0.000601  -0.004202  -0.003630  -0.000628
   86  C 12  Y    0.000984   0.005484  -0.000279   0.007614  -0.000164
   87  C 12  Z    0.000284  -0.004458   0.000033  -0.006188   0.003213
   88  H 13  S    0.000495   0.001013  -0.000233  -0.000706  -0.000171
   89  H 13  S    0.000856   0.001758   0.000143  -0.000081  -0.000924
   90  O 14  S    0.000734  -0.000578   0.004115   0.983675   0.001210
   91  O 14  S    0.000118  -0.000103   0.000883   0.099533   0.000055
   92  O 14  X    0.000282   0.000315  -0.000046  -0.001682  -0.000047
   93  O 14  Y   -0.000039   0.000058  -0.000084  -0.002455   0.000311
   94  O 14  Z   -0.000041   0.000065   0.000148   0.002237   0.000057
   95  O 14  S    0.000235  -0.000468  -0.002220  -0.050920  -0.000264
   96  O 14  X   -0.000748  -0.001902   0.000527   0.005189   0.000880
   97  O 14  Y   -0.000023   0.000318   0.000863   0.006291  -0.001615
   98  O 14  Z    0.000183  -0.000258  -0.000769  -0.005754  -0.000250
   99  C 15  S   -0.000841   0.000092  -0.000038   0.000165  -0.000082
  100  C 15  S   -0.003338   0.000736  -0.000179   0.000676  -0.000454
  101  C 15  X    0.001085  -0.000158  -0.000194   0.000459  -0.000053
  102  C 15  Y    0.000915  -0.000060  -0.000095  -0.000038  -0.000003
  103  C 15  Z    0.000597  -0.000271  -0.000065  -0.000401   0.000050
  104  C 15  S    0.020291  -0.002387   0.002395  -0.004795   0.002743
  105  C 15  X    0.001709   0.001112  -0.000305   0.002837  -0.001615
  106  C 15  Y    0.006675  -0.000648   0.000673  -0.002251   0.000251
  107  C 15  Z    0.007408   0.002258   0.001310   0.002387  -0.000211
  108  O 16  S    0.983431  -0.007148  -0.001765  -0.000738  -0.000137
  109  O 16  S    0.097477  -0.000566  -0.000003  -0.000004   0.000033
  110  O 16  X    0.000824  -0.000067   0.000054  -0.000176  -0.000028
  111  O 16  Y   -0.002382  -0.000051  -0.000021  -0.000129   0.000017
  112  O 16  Z   -0.002781   0.000072  -0.000040   0.000118  -0.000001
  113  O 16  S   -0.043582  -0.000158  -0.000757   0.000139  -0.000159
  114  O 16  X    0.000450   0.000263  -0.000021   0.000366   0.000201
  115  O 16  Y    0.006479   0.000329   0.000289   0.000453  -0.000037
  116  O 16  Z    0.006717  -0.000277   0.000281  -0.000582   0.000042
  117  H 17  S    0.000154  -0.000204  -0.000301  -0.000924   0.000831
  118  H 17  S    0.000020  -0.000884   0.000241  -0.000205   0.001525
  119  H 18  S    0.000049  -0.000223  -0.000408  -0.000416   0.003029
  120  H 18  S   -0.000060   0.000471  -0.000361   0.000494   0.004886
  121  H 19  S    0.000108  -0.000434   0.003089   0.000020  -0.000385
  122  H 19  S   -0.000034  -0.000334   0.004875  -0.000498   0.000746
  123  H 20  S    0.000098   0.003152  -0.000494   0.000273   0.000037
  124  H 20  S   -0.000002   0.004994   0.000918  -0.000129   0.000113
  125  H 21  S   -0.001127  -0.000419   0.000033  -0.000222  -0.000137
  126  H 21  S   -0.001146   0.000520  -0.000232  -0.000262   0.000245
  127  H 22  S   -0.001105   0.000468   0.000052   0.000667  -0.000207
  128  H 22  S   -0.000531   0.001315   0.000161   0.001615  -0.000376
  129  H 23  S    0.003040  -0.000038   0.000151  -0.000155  -0.000046
  130  H 23  S    0.005058  -0.000251  -0.000089  -0.000354   0.000114
  131  H 24  S   -0.000019  -0.000064  -0.000253   0.000529  -0.000327
  132  H 24  S   -0.000026   0.000272   0.000304  -0.000811  -0.000606

                      6          7          8          9         10
                  -20.2053   -11.1018   -11.0974   -11.0915   -11.0849
                     A          A          A          A          A   
    1  O  1  S    0.983606   0.000001   0.000028  -0.000035   0.000029
    2  O  1  S    0.098595  -0.000005   0.000259  -0.000382  -0.000362
    3  O  1  X    0.002747   0.000014   0.000040   0.000035  -0.000129
    4  O  1  Y   -0.001496  -0.000006  -0.000046   0.000120   0.000489
    5  O  1  Z    0.001658  -0.000061   0.000041  -0.000109  -0.000171
    6  O  1  S   -0.048226   0.000146  -0.001197   0.001664  -0.002282
    7  O  1  X   -0.007972  -0.000093  -0.000263  -0.000134  -0.000171
    8  O  1  Y    0.006753   0.000117   0.000332  -0.000620   0.000217
    9  O  1  Z   -0.004660   0.000271  -0.000315   0.000520  -0.000019
   10  C  2  S   -0.000979  -0.003520   0.004234  -0.040114  -0.605128
   11  C  2  S   -0.003721  -0.001514   0.001499  -0.007091  -0.064339
   12  C  2  X   -0.000038   0.000078   0.000138  -0.000660  -0.000125
   13  C  2  Y    0.001214   0.000174  -0.000074   0.000818   0.001884
   14  C  2  Z    0.000004  -0.000113   0.000410  -0.000397  -0.000319
   15  C  2  S    0.025042   0.005728  -0.005332   0.012806   0.052903
   16  C  2  X   -0.006983   0.000969  -0.001497   0.004544  -0.002526
   17  C  2  Y    0.009315  -0.002898   0.004261  -0.006431  -0.011795
   18  C  2  Z   -0.010611  -0.000417  -0.000466   0.001666   0.001181
   19  C  3  S    0.000314   0.000875  -0.007918   0.001088   0.001484
   20  C  3  S    0.001355   0.000894  -0.003624   0.001135   0.000195
   21  C  3  X    0.000019  -0.000124  -0.001059  -0.000236   0.000250
   22  C  3  Y   -0.000507   0.000022   0.000757  -0.000363  -0.000404
   23  C  3  Z   -0.000265  -0.000020   0.000215  -0.000067   0.000405
   24  C  3  S   -0.009913  -0.005999   0.008477  -0.007139   0.003494
   25  C  3  X   -0.003741  -0.002047   0.005222  -0.003141  -0.000897
   26  C  3  Y   -0.005245   0.000253  -0.001542   0.000823  -0.019752
   27  C  3  Z    0.001303  -0.001347  -0.001074  -0.001981  -0.003009
   28  H  4  S    0.001000   0.000257  -0.000844   0.000424  -0.000414
   29  H  4  S    0.000773  -0.000075  -0.001745  -0.000606  -0.001656
   30  O  5  S   -0.001421  -0.000020  -0.000058  -0.000012   0.000023
   31  O  5  S    0.000203  -0.000164  -0.000624  -0.000082   0.000172
   32  O  5  X    0.000091  -0.000075  -0.000276  -0.000077  -0.000112
   33  O  5  Y    0.000066   0.000026   0.000264  -0.000034   0.000184
   34  O  5  Z    0.000055  -0.000046  -0.000003  -0.000083  -0.000076
   35  O  5  S   -0.000859   0.000551   0.002016   0.000235  -0.000604
   36  O  5  X   -0.000120   0.000566   0.001332   0.000545   0.000455
   37  O  5  Y    0.000076  -0.000124  -0.001049   0.000059   0.000560
   38  O  5  Z   -0.000184   0.000162  -0.000122   0.000354   0.000514
   39  C  6  S   -0.000198  -0.007155  -0.010091  -0.019514   0.781389
   40  C  6  S   -0.001255  -0.002259  -0.003871  -0.003013   0.085338
   41  C  6  X   -0.000191  -0.000254   0.000564  -0.000790   0.000485
   42  C  6  Y   -0.000409  -0.000111  -0.000063   0.000048   0.001281
   43  C  6  Z   -0.000130   0.000074  -0.000306   0.000089  -0.000536
   44  C  6  S    0.004754   0.007925   0.025641   0.004095  -0.081517
   45  C  6  X    0.003951   0.002583   0.017301  -0.001091  -0.008285
   46  C  6  Y    0.002792   0.002194  -0.002425   0.000731  -0.008840
   47  C  6  Z    0.000408  -0.001312  -0.002189  -0.000181   0.006777
   48  H  7  S   -0.000720  -0.000469  -0.001991  -0.000013   0.001138
   49  H  7  S    0.000028   0.000061   0.000003  -0.001318   0.011670
   50  O  8  S    0.000353   0.000004   0.000051  -0.000011  -0.000174
   51  O  8  S   -0.000163  -0.000009   0.000138  -0.000200  -0.000462
   52  O  8  X   -0.000038  -0.000044  -0.000322  -0.000347   0.000136
   53  O  8  Y    0.000044   0.000018  -0.000278  -0.000023   0.000503
   54  O  8  Z   -0.000091  -0.000040   0.000058   0.000085   0.000377
   55  O  8  S    0.001134  -0.000039  -0.001653   0.000125   0.007159
   56  O  8  X    0.000173   0.000057  -0.000197   0.001364   0.002082
   57  O  8  Y    0.000106  -0.000224   0.000420  -0.000129   0.002119
   58  O  8  Z    0.000463   0.000182  -0.000371  -0.000396  -0.000207
   59  C  9  S    0.000156  -0.036683   0.987019   0.034352   0.009052
   60  C  9  S    0.000793  -0.004980   0.106285  -0.000209  -0.002164
   61  C  9  X    0.000223  -0.001148  -0.000608   0.000457  -0.000222
   62  C  9  Y   -0.000159  -0.000490   0.000706   0.000224   0.000444
   63  C  9  Z    0.000359   0.000274   0.000820  -0.000014   0.000120
   64  C  9  S   -0.005675   0.002903  -0.100571   0.026271   0.026335
   65  C  9  X    0.000837   0.005256   0.005352   0.008743  -0.015122
   66  C  9  Y   -0.000564   0.000787  -0.012219   0.014240   0.002142
   67  C  9  Z   -0.004281  -0.001164  -0.009854   0.004987   0.005243
   68  H 10  S   -0.000195  -0.000333   0.001098  -0.001932  -0.001687
   69  H 10  S   -0.001193  -0.001457   0.013459   0.001732   0.001220
   70  O 11  S    0.000561   0.000063  -0.000256   0.000036   0.000047
   71  O 11  S   -0.000312   0.000562  -0.000943  -0.000009   0.000207
   72  O 11  X    0.000060   0.000300  -0.000347  -0.000079   0.000074
   73  O 11  Y   -0.000125   0.000190   0.000281  -0.000554  -0.000068
   74  O 11  Z   -0.000092  -0.000016  -0.000479  -0.000064   0.000091
   75  O 11  S    0.001444  -0.001969   0.010099  -0.001160  -0.001367
   76  O 11  X   -0.000499  -0.001269  -0.001521   0.000235   0.001120
   77  O 11  Y    0.000977  -0.001438   0.004471   0.000592  -0.000483
   78  O 11  Z    0.000334   0.000393   0.000266   0.000158  -0.000416
   79  C 12  S   -0.000065  -0.012140  -0.036166   0.986698  -0.009156
   80  C 12  S   -0.000548  -0.003500  -0.007797   0.106185   0.000094
   81  C 12  X    0.000632  -0.000352  -0.000146  -0.000580  -0.000148
   82  C 12  Y   -0.000465   0.000105  -0.000520  -0.000420   0.000857
   83  C 12  Z   -0.000186   0.000249  -0.000083  -0.000432  -0.000026
   84  C 12  S    0.000944   0.022438   0.033648  -0.097973  -0.004651
   85  C 12  X   -0.004144   0.016612  -0.011071   0.000068   0.003855
   86  C 12  Y   -0.001297   0.001201  -0.013507   0.008183  -0.002096
   87  C 12  Z    0.002098  -0.005677  -0.004101   0.006331   0.000459
   88  H 13  S   -0.000549  -0.001143  -0.002270   0.001372   0.000409
   89  H 13  S   -0.000246   0.001355   0.000392   0.014740  -0.000112
   90  O 14  S   -0.002457   0.000069  -0.000005  -0.000215   0.000146
   91  O 14  S    0.001028   0.000250  -0.000475  -0.000615   0.000622
   92  O 14  X   -0.000501  -0.000558  -0.000053  -0.000017   0.000159
   93  O 14  Y    0.000431   0.000148   0.000391  -0.000510  -0.000097
   94  O 14  Z   -0.000213   0.000065  -0.000076   0.000639  -0.000391
   95  O 14  S   -0.004667  -0.002389   0.000082   0.007975  -0.005506
   96  O 14  X    0.004133   0.001137  -0.000553   0.004575   0.003387
   97  O 14  Y   -0.002372   0.000094   0.000579  -0.004132   0.000099
   98  O 14  Z    0.000634  -0.000378   0.000358  -0.001109   0.000132
   99  C 15  S   -0.000043   0.986971   0.036073   0.012319   0.003610
  100  C 15  S   -0.000182   0.102060   0.002867  -0.001676  -0.000251
  101  C 15  X   -0.000201  -0.000540   0.000783  -0.000413   0.000325
  102  C 15  Y    0.000115  -0.000410   0.000172  -0.000266   0.000062
  103  C 15  Z   -0.000004  -0.000079   0.000101  -0.000008   0.000181
  104  C 15  S    0.002725  -0.082742  -0.002893   0.023534   0.000189
  105  C 15  X   -0.001117   0.011633  -0.000143  -0.013653  -0.001590
  106  C 15  Y   -0.000201   0.003140   0.001348   0.000143  -0.000155
  107  C 15  Z    0.000582  -0.001385  -0.001217   0.004299  -0.001706
  108  O 16  S    0.000039  -0.000180  -0.000040   0.000065  -0.000019
  109  O 16  S   -0.000003  -0.000369  -0.000372   0.000294  -0.000175
  110  O 16  X    0.000057  -0.000163   0.000344   0.000354   0.000015
  111  O 16  Y   -0.000004  -0.000490   0.000009   0.000094   0.000060
  112  O 16  Z    0.000004  -0.000496  -0.000083   0.000060   0.000004
  113  O 16  S   -0.000105   0.007335   0.001159  -0.002104   0.000767
  114  O 16  X   -0.000163  -0.002447  -0.001577   0.000051  -0.000108
  115  O 16  Y    0.000076  -0.001493  -0.000364   0.000287  -0.000423
  116  O 16  Z    0.000017  -0.000638   0.000268   0.000089  -0.000116
  117  H 17  S   -0.000573  -0.000423   0.000838  -0.001220  -0.001098
  118  H 17  S    0.000369  -0.000357   0.000054  -0.002806  -0.010882
  119  H 18  S   -0.000300   0.000005   0.000160  -0.000078   0.000504
  120  H 18  S    0.000586   0.000101   0.000823   0.000215   0.000450
  121  H 19  S    0.000063   0.000026   0.000218   0.000387   0.000120
  122  H 19  S    0.000007   0.000228   0.001450   0.000123   0.000641
  123  H 20  S   -0.000054  -0.000285  -0.000137   0.000427  -0.000126
  124  H 20  S    0.000324  -0.000271   0.001925   0.001565   0.000433
  125  H 21  S   -0.000125   0.000563  -0.000269  -0.001281  -0.000227
  126  H 21  S   -0.000234   0.015170   0.002065   0.000675   0.000833
  127  H 22  S   -0.000059   0.000553   0.000024  -0.001675  -0.000365
  128  H 22  S    0.000091   0.014835  -0.001149   0.001132  -0.000702
  129  H 23  S    0.000055  -0.000224   0.000314   0.000230  -0.000101
  130  H 23  S    0.000118   0.001866   0.000455   0.001231   0.000315
  131  H 24  S    0.003154  -0.000026   0.000108  -0.000016   0.000293
  132  H 24  S    0.003941   0.000155  -0.000368   0.000418  -0.000567

                     11         12         13         14         15
                  -11.0844   -11.0562    -1.2379    -1.2219    -1.2077
                     A          A          A          A          A   
    1  O  1  S   -0.000138   0.000073  -0.024396  -0.019917   0.061451
    2  O  1  S   -0.000557   0.000317   0.023378   0.018264  -0.057540
    3  O  1  X    0.000290   0.000066   0.008948   0.007656  -0.020927
    4  O  1  Y   -0.000024   0.000425  -0.005372  -0.003344   0.010257
    5  O  1  Z    0.000350  -0.000024   0.005049   0.004068  -0.012702
    6  O  1  S    0.006315  -0.002427   0.070112   0.061488  -0.186977
    7  O  1  X    0.000022  -0.000313   0.010703   0.010792  -0.026391
    8  O  1  Y   -0.003285   0.000213  -0.005505  -0.006101   0.016541
    9  O  1  Z   -0.000388  -0.000085   0.004157   0.003703  -0.011362
   10  C  2  S    0.779869   0.008200  -0.032743  -0.023587   0.061604
   11  C  2  S    0.080014  -0.003597   0.038023   0.026539  -0.070269
   12  C  2  X    0.000905  -0.000404   0.014153   0.015800  -0.019132
   13  C  2  Y   -0.000733  -0.000429  -0.005289   0.002500  -0.002406
   14  C  2  Z   -0.000154  -0.000193  -0.011547  -0.009346   0.023100
   15  C  2  S   -0.062550   0.031827   0.047968   0.031047  -0.083200
   16  C  2  X    0.003287  -0.008308  -0.005499  -0.003201   0.008135
   17  C  2  Y    0.010028  -0.014525  -0.001932  -0.006462   0.009163
   18  C  2  Z    0.002442  -0.004427   0.001950   0.007238  -0.018488
   19  C  3  S   -0.010862   0.988302  -0.028088   0.000218   0.043386
   20  C  3  S   -0.006239   0.106361   0.030819  -0.000869  -0.043438
   21  C  3  X    0.000198   0.001071   0.003746   0.004292   0.008183
   22  C  3  Y    0.000041  -0.000386  -0.005825   0.010215  -0.006842
   23  C  3  Z   -0.000101   0.000688   0.007834   0.000256  -0.014701
   24  C  3  S    0.040636  -0.100396   0.044679   0.001571  -0.073080
   25  C  3  X    0.012673  -0.014078  -0.004444   0.009514  -0.019224
   26  C  3  Y    0.000042   0.000814  -0.006026   0.001582  -0.000538
   27  C  3  Z    0.007240  -0.008493  -0.006144  -0.005485   0.019477
   28  H  4  S   -0.002707   0.001182   0.009086  -0.000846  -0.011061
   29  H  4  S    0.002154   0.013662  -0.004860  -0.001714   0.009117
   30  O  5  S    0.000068  -0.000244  -0.033159   0.004234   0.071954
   31  O  5  S    0.000118  -0.000927   0.031760  -0.004427  -0.066192
   32  O  5  X   -0.000445   0.000352   0.009457  -0.000953  -0.016150
   33  O  5  Y    0.000046   0.000008   0.005388   0.000628  -0.015569
   34  O  5  Z    0.000058  -0.000508  -0.006292   0.000979   0.012756
   35  O  5  S   -0.002285   0.009703   0.097808  -0.009827  -0.228092
   36  O  5  X   -0.000519   0.004645   0.007969   0.000037  -0.022707
   37  O  5  Y   -0.000344  -0.000287   0.005477   0.000734  -0.014356
   38  O  5  Z   -0.000113   0.000133  -0.006375   0.000031   0.016857
   39  C  6  S    0.604831   0.004439  -0.054539   0.023868   0.025279
   40  C  6  S    0.063834  -0.002443   0.056818  -0.022698  -0.027121
   41  C  6  X    0.000717  -0.000314  -0.002849   0.006262   0.023383
   42  C  6  Y   -0.000306   0.000474  -0.023243   0.019082   0.001305
   43  C  6  Z   -0.000363  -0.000072  -0.017672   0.007813   0.009140
   44  C  6  S   -0.058333   0.025282   0.085275  -0.054389  -0.040564
   45  C  6  X   -0.002492  -0.008101   0.008900  -0.011410   0.007082
   46  C  6  Y   -0.006845   0.015046   0.004750   0.001664  -0.016274
   47  C  6  Z    0.005090  -0.002698   0.017841   0.003139  -0.008200
   48  H  7  S    0.000593  -0.001885   0.015762  -0.006498  -0.007394
   49  H  7  S    0.007567   0.000896  -0.010564   0.001130   0.005854
   50  O  8  S   -0.000167   0.000032  -0.105345   0.063328   0.064269
   51  O  8  S   -0.000719   0.000023   0.096972  -0.058899  -0.059222
   52  O  8  X    0.000113  -0.000147  -0.004932   0.004422   0.009763
   53  O  8  Y    0.000031  -0.000174   0.029599  -0.016621  -0.018414
   54  O  8  Z    0.000322  -0.000020   0.016938  -0.009971  -0.009637
   55  O  8  S    0.006152  -0.000797   0.329781  -0.196505  -0.204519
   56  O  8  X    0.001462   0.000844  -0.002778   0.003923   0.008393
   57  O  8  Y    0.003045  -0.000936   0.037476  -0.020283  -0.025058
   58  O  8  Z   -0.000242   0.000095   0.021677  -0.013062  -0.013504
   59  C  9  S    0.003766   0.007321  -0.067924   0.019340  -0.026856
   60  C  9  S   -0.000556  -0.001953   0.071800  -0.019275   0.028595
   61  C  9  X   -0.000417   0.001077   0.010390   0.002905   0.023397
   62  C  9  Y   -0.000206  -0.000750  -0.032162   0.027063  -0.046892
   63  C  9  Z    0.000116   0.000129   0.023315  -0.008288   0.013079
   64  C  9  S    0.010692   0.006481   0.114915  -0.026919   0.043879
   65  C  9  X   -0.007878  -0.003206  -0.020572  -0.012757   0.003000
   66  C  9  Y   -0.001371   0.004416   0.009912   0.000196   0.015236
   67  C  9  Z   -0.000594  -0.000688  -0.013556   0.008543  -0.006540
   68  H 10  S   -0.000892  -0.000811   0.019554  -0.004277   0.006155
   69  H 10  S   -0.000678  -0.001307  -0.010954   0.003827  -0.005346
   70  O 11  S    0.000005  -0.000060  -0.148049   0.064547  -0.125887
   71  O 11  S   -0.000140  -0.000608   0.136621  -0.059996   0.114666
   72  O 11  X    0.000062   0.000205  -0.044830   0.020234  -0.034407
   73  O 11  Y   -0.000286  -0.000245   0.011236  -0.001816   0.003324
   74  O 11  Z   -0.000109   0.000009  -0.019251   0.008495  -0.015516
   75  O 11  S   -0.000241   0.001950   0.464736  -0.200934   0.405913
   76  O 11  X    0.000574  -0.000871  -0.057402   0.026451  -0.046674
   77  O 11  Y    0.000838   0.001273   0.018313  -0.006065   0.014552
   78  O 11  Z    0.000467  -0.000221  -0.027398   0.009587  -0.022934
   79  C 12  S    0.042715  -0.000530  -0.041894  -0.030528   0.023495
   80  C 12  S    0.001512   0.000716   0.043944   0.030134  -0.027498
   81  C 12  X    0.001957  -0.000195  -0.014526   0.008815   0.025070
   82  C 12  Y    0.000037   0.000030   0.003816   0.023045  -0.035713
   83  C 12  Z   -0.000875   0.000411  -0.011225  -0.007895   0.007984
   84  C 12  S    0.002495  -0.003564   0.078376   0.062034  -0.047748
   85  C 12  X   -0.013564   0.004801   0.024151   0.007855  -0.003024
   86  C 12  Y    0.001316   0.000315  -0.016114   0.006328   0.000246
   87  C 12  Z    0.005355  -0.000643   0.007454  -0.000116   0.018169
   88  H 13  S   -0.001307   0.000671   0.012770   0.009457  -0.008820
   89  H 13  S   -0.002898  -0.000006  -0.005516  -0.001161  -0.003920
   90  O 14  S   -0.000084   0.000006  -0.074322  -0.065024   0.117363
   91  O 14  S    0.000254  -0.000347   0.066752   0.059748  -0.106117
   92  O 14  X   -0.000502   0.000302  -0.011160  -0.005900   0.024279
   93  O 14  Y   -0.000379   0.000155  -0.018822  -0.014379   0.021214
   94  O 14  Z    0.000636  -0.000060   0.013265   0.012218  -0.021045
   95  O 14  S    0.004451  -0.000294   0.236878   0.200493  -0.371652
   96  O 14  X   -0.002357   0.000958  -0.014889  -0.014061   0.035505
   97  O 14  Y    0.002406  -0.000374  -0.026261  -0.017475   0.030734
   98  O 14  Z   -0.001494   0.000181   0.022479   0.016264  -0.032342
   99  C 15  S    0.007248  -0.000333  -0.026253  -0.064838  -0.018250
  100  C 15  S   -0.000961   0.000208   0.029729   0.069347   0.019478
  101  C 15  X   -0.000033   0.000074  -0.000241   0.026364   0.018572
  102  C 15  Y    0.000253   0.000060   0.009910   0.041268   0.012017
  103  C 15  Z   -0.000103  -0.000041   0.011859   0.033365   0.011400
  104  C 15  S    0.010312  -0.002425   0.027040   0.109298   0.038743
  105  C 15  X   -0.005338   0.000723   0.000522   0.001390  -0.005539
  106  C 15  Y   -0.001520  -0.000339   0.004338  -0.006558  -0.009910
  107  C 15  Z    0.002384  -0.000608  -0.013723  -0.008161  -0.000705
  108  O 16  S    0.000011  -0.000010  -0.053943  -0.188772  -0.070971
  109  O 16  S    0.000053  -0.000074   0.049970   0.176002   0.065628
  110  O 16  X    0.000069  -0.000021   0.003318   0.018900   0.009868
  111  O 16  Y   -0.000018  -0.000005  -0.010847  -0.035506  -0.012749
  112  O 16  Z    0.000037   0.000027  -0.012798  -0.043250  -0.015379
  113  O 16  S   -0.000385   0.000390   0.169269   0.590393   0.225776
  114  O 16  X   -0.000004  -0.000001   0.004489   0.019007   0.008976
  115  O 16  Y    0.000257  -0.000091  -0.016704  -0.051033  -0.019496
  116  O 16  Z   -0.000117  -0.000178  -0.016581  -0.057804  -0.023011
  117  H 17  S    0.000379  -0.002280   0.010364   0.006723  -0.018185
  118  H 17  S    0.010567   0.000644  -0.001352  -0.003688   0.009296
  119  H 18  S   -0.000190  -0.000358   0.013288  -0.001231  -0.029643
  120  H 18  S    0.001615   0.002228  -0.000657   0.000466  -0.005446
  121  H 19  S   -0.000549  -0.000132   0.044109  -0.027195  -0.029616
  122  H 19  S    0.002269   0.000560   0.007445  -0.005035  -0.007664
  123  H 20  S   -0.000040  -0.000480   0.065053  -0.030039   0.055582
  124  H 20  S    0.000648   0.001804   0.013144  -0.007644   0.010474
  125  H 21  S   -0.000858  -0.000047   0.010167   0.018804   0.005658
  126  H 21  S   -0.000138   0.000315   0.006834  -0.009593   0.002928
  127  H 22  S   -0.000444   0.000093   0.007835   0.019303   0.004935
  128  H 22  S    0.000496  -0.000029  -0.005772  -0.006001  -0.002652
  129  H 23  S    0.000002  -0.000063   0.023418   0.086074   0.033214
  130  H 23  S    0.000534  -0.000019   0.004328   0.018751   0.008959
  131  H 24  S   -0.000066   0.000290   0.007270   0.005813  -0.019099
  132  H 24  S    0.002049   0.001490   0.000993   0.002695  -0.004885

                     16         17         18         19         20
                   -1.2033    -1.1702    -1.1165    -0.9230    -0.8880
                     A          A          A          A          A   
    1  O  1  S    0.041346  -0.010412  -0.208511  -0.010963  -0.039019
    2  O  1  S   -0.038224   0.009625   0.197994   0.010608   0.038047
    3  O  1  X   -0.015633  -0.001538   0.058422  -0.004183   0.006154
    4  O  1  Y    0.005915  -0.002521  -0.002941   0.001171   0.028547
    5  O  1  Z   -0.008254   0.002561   0.041036   0.001840   0.005425
    6  O  1  S   -0.128601   0.033059   0.664763   0.038931   0.133749
    7  O  1  X   -0.020571  -0.003088   0.067628  -0.001987   0.007123
    8  O  1  Y    0.010935  -0.005251  -0.028728   0.002365   0.015717
    9  O  1  Z   -0.009087   0.001793   0.048614   0.003529   0.005336
   10  C  2  S    0.042675   0.002052  -0.045471   0.004453   0.065245
   11  C  2  S   -0.046514  -0.003096   0.051020   0.003560  -0.066782
   12  C  2  X   -0.026652  -0.036003  -0.061846  -0.046800   0.000697
   13  C  2  Y   -0.007376  -0.003444   0.078490  -0.024376   0.061882
   14  C  2  Z    0.017060   0.002789  -0.020672   0.007904   0.009395
   15  C  2  S   -0.063808  -0.008026   0.067643  -0.041361  -0.153754
   16  C  2  X   -0.002386  -0.007959   0.009616  -0.006364  -0.015949
   17  C  2  Y    0.015398   0.000939  -0.022181   0.004700   0.030771
   18  C  2  Z   -0.007220   0.011685   0.016507   0.005422  -0.008770
   19  C  3  S   -0.007465  -0.060213   0.004241  -0.055857   0.094320
   20  C  3  S    0.006245   0.064211  -0.005385   0.058249  -0.093585
   21  C  3  X   -0.015438  -0.065141   0.013258   0.043460  -0.066139
   22  C  3  Y   -0.020210   0.007560   0.014805  -0.036809   0.016214
   23  C  3  Z    0.003075   0.027366  -0.003921   0.006504  -0.010545
   24  C  3  S    0.012305   0.102236  -0.009193   0.126291  -0.230305
   25  C  3  X   -0.003813   0.018030  -0.010584   0.013925  -0.030872
   26  C  3  Y   -0.007596   0.005355   0.024441   0.016615  -0.000779
   27  C  3  Z   -0.001722  -0.007034  -0.007945   0.007023  -0.001861
   28  H  4  S    0.001302   0.016776  -0.001347   0.028390  -0.047784
   29  H  4  S   -0.001107  -0.007532  -0.001989  -0.001719   0.006333
   30  O  5  S   -0.025515  -0.202227   0.042225   0.030142  -0.045223
   31  O  5  S    0.023588   0.187920  -0.038557  -0.026452   0.040912
   32  O  5  X    0.004983   0.032580  -0.003499   0.020027  -0.036989
   33  O  5  Y    0.001789   0.047403  -0.007071  -0.016389   0.023533
   34  O  5  Z   -0.004840  -0.033917   0.005907   0.001491  -0.000384
   35  O  5  S    0.078929   0.641262  -0.141196  -0.113302   0.168055
   36  O  5  X    0.007269   0.049406  -0.005657   0.005887  -0.019226
   37  O  5  Y    0.001971   0.050349  -0.010458  -0.013154   0.020489
   38  O  5  Z   -0.005082  -0.045038   0.011014   0.002988  -0.003128
   39  C  6  S   -0.043524   0.008742   0.004513  -0.100819   0.087102
   40  C  6  S    0.046277  -0.010210  -0.002761   0.100302  -0.081261
   41  C  6  X   -0.037860   0.002059  -0.002549   0.055483  -0.004364
   42  C  6  Y   -0.039802   0.032080  -0.005332   0.046966  -0.058098
   43  C  6  Z   -0.017296   0.006981   0.001174  -0.012808   0.007329
   44  C  6  S    0.072697  -0.014440  -0.003700   0.253119  -0.248133
   45  C  6  X    0.003704  -0.021692  -0.010494   0.010070  -0.028665
   46  C  6  Y    0.015369  -0.002304  -0.008625   0.032882  -0.021763
   47  C  6  Z    0.004059   0.002481  -0.011268  -0.011861   0.009814
   48  H  7  S    0.011844  -0.001945  -0.000275   0.051437  -0.044798
   49  H  7  S   -0.004036   0.001025   0.003554  -0.002187   0.002268
   50  O  8  S   -0.157773   0.073517  -0.009776   0.046899  -0.038663
   51  O  8  S    0.145281  -0.066612   0.010015  -0.041396   0.034725
   52  O  8  X   -0.018973   0.008034  -0.001501   0.041030  -0.034106
   53  O  8  Y    0.040013  -0.013883   0.000870   0.023206  -0.024774
   54  O  8  Z    0.023742  -0.009913   0.001341  -0.000910  -0.001487
   55  O  8  S    0.502196  -0.242851   0.027061  -0.176754   0.147219
   56  O  8  X   -0.015957   0.008982  -0.002594   0.025423  -0.024613
   57  O  8  Y    0.055228  -0.022705  -0.001213   0.006453  -0.011409
   58  O  8  Z    0.033480  -0.016706   0.000848  -0.002427   0.000648
   59  C  9  S    0.024655  -0.000063   0.009232  -0.117410   0.003726
   60  C  9  S   -0.025984   0.001854  -0.011924   0.119605  -0.001347
   61  C  9  X   -0.025245   0.004845  -0.002263  -0.028915   0.079145
   62  C  9  Y    0.010521  -0.012197  -0.016934   0.069377   0.022548
   63  C  9  Z   -0.009836   0.001169  -0.002019   0.013445  -0.003450
   64  C  9  S   -0.043587   0.007024  -0.002723   0.285631  -0.024732
   65  C  9  X   -0.003132   0.008174   0.004243  -0.009696  -0.015461
   66  C  9  Y   -0.020361  -0.006999   0.002571   0.023104  -0.016366
   67  C  9  Z    0.000926   0.011780   0.013875   0.011705  -0.009419
   68  H 10  S   -0.006677   0.001168  -0.003869   0.062498  -0.000836
   69  H 10  S    0.002429   0.002276   0.005795  -0.002767  -0.002281
   70  O 11  S    0.078234  -0.029842  -0.012782   0.060627   0.002393
   71  O 11  S   -0.071338   0.028349   0.012138  -0.053561  -0.002133
   72  O 11  X    0.019042  -0.007207  -0.003822   0.005238   0.015953
   73  O 11  Y   -0.004541  -0.000443  -0.003387   0.061750   0.013679
   74  O 11  Z    0.009205  -0.003400  -0.001096  -0.002873  -0.002048
   75  O 11  S   -0.254027   0.091979   0.040130  -0.228985  -0.006988
   76  O 11  X    0.029180  -0.008649  -0.003961   0.014392   0.016483
   77  O 11  Y   -0.005579  -0.001805  -0.002334   0.034089   0.015301
   78  O 11  Z    0.015761  -0.004275  -0.002656   0.001058  -0.001270
   79  C 12  S    0.034430   0.020979   0.040812  -0.091225  -0.101630
   80  C 12  S   -0.037808  -0.022596  -0.038793   0.093006   0.092927
   81  C 12  X    0.023065   0.011015   0.013423   0.006423   0.071280
   82  C 12  Y   -0.019574  -0.018270  -0.022509  -0.075231  -0.007852
   83  C 12  Z    0.011582   0.007098   0.012859  -0.010952  -0.020661
   84  C 12  S   -0.050394  -0.039711  -0.092842   0.222769   0.299082
   85  C 12  X    0.001243  -0.001279   0.022063   0.003896  -0.007002
   86  C 12  Y    0.013821   0.005013   0.005889  -0.020601  -0.032449
   87  C 12  Z   -0.006593  -0.001903  -0.004336  -0.007830  -0.008208
   88  H 13  S   -0.010452  -0.006605  -0.012022   0.048477   0.046436
   89  H 13  S    0.004884   0.003475   0.005664  -0.004824  -0.010225
   90  O 14  S    0.104963   0.065725   0.081662   0.073524   0.006239
   91  O 14  S   -0.095350  -0.059797  -0.075499  -0.064439  -0.004790
   92  O 14  X    0.018509   0.005520  -0.009408   0.024165   0.068709
   93  O 14  Y    0.021093   0.013755   0.031459  -0.030605  -0.024170
   94  O 14  Z   -0.018844  -0.011362  -0.012573  -0.007899  -0.004265
   95  O 14  S   -0.332459  -0.208865  -0.265387  -0.272333  -0.026557
   96  O 14  X    0.022107   0.009459  -0.002748   0.017787   0.047119
   97  O 14  Y    0.030668   0.024677   0.041739  -0.006771  -0.007999
   98  O 14  Z   -0.027345  -0.017250  -0.023905  -0.014024  -0.002694
   99  C 15  S   -0.014612   0.000468   0.007431  -0.058582  -0.105164
  100  C 15  S    0.017274   0.000146  -0.006122   0.063075   0.105018
  101  C 15  X    0.022953   0.008586   0.015917  -0.046468  -0.067244
  102  C 15  Y    0.016058   0.001793   0.001522  -0.020772  -0.022893
  103  C 15  Z    0.010690   0.001452   0.000386   0.003441   0.002328
  104  C 15  S    0.023275  -0.000904  -0.025276   0.144244   0.290001
  105  C 15  X    0.007551   0.001773   0.007564   0.004120  -0.023574
  106  C 15  Y   -0.013899  -0.005477  -0.004421  -0.024529  -0.024469
  107  C 15  Z    0.002426   0.002420  -0.001212  -0.001294  -0.006920
  108  O 16  S   -0.075552  -0.014707  -0.015107   0.025272   0.043516
  109  O 16  S    0.069897   0.013462   0.013584  -0.022571  -0.039330
  110  O 16  X    0.011289   0.003588   0.006038  -0.026850  -0.055401
  111  O 16  Y   -0.013067  -0.002173  -0.001105  -0.013054  -0.026234
  112  O 16  Z   -0.016279  -0.002765  -0.002234  -0.002106  -0.008342
  113  O 16  S    0.240605   0.048149   0.051990  -0.094804  -0.165486
  114  O 16  X    0.008797   0.002601   0.004345  -0.018490  -0.042845
  115  O 16  Y   -0.019505  -0.003606  -0.003710  -0.004569  -0.013499
  116  O 16  Z   -0.024302  -0.005047  -0.004940   0.001422  -0.001074
  117  H 17  S   -0.011811  -0.001497   0.011351   0.003868  -0.031785
  118  H 17  S    0.003912  -0.003527  -0.009005   0.003396   0.009335
  119  H 18  S    0.008800   0.085282  -0.016469  -0.022373   0.035210
  120  H 18  S    0.001723   0.016197   0.003214  -0.013681   0.022490
  121  H 19  S    0.070360  -0.031338   0.004938  -0.038830   0.031943
  122  H 19  S    0.015047  -0.001288  -0.001837  -0.025942   0.022820
  123  H 20  S   -0.031762   0.013586   0.007566  -0.050868  -0.011710
  124  H 20  S   -0.000449  -0.001438   0.002946  -0.036967  -0.000224
[...]
   15 C             0.002249                     0.001270
   16 O             0.000050                     0.000098
   17 H            -0.001123                    -0.001559
   18 H             0.134083                     0.102415
   19 H             0.010906                     0.008745
   20 H            -0.000060                     0.000011
   21 H            -0.000287                    -0.000199
   22 H             0.000383                     0.000299
   23 H             0.000014                     0.000025
   24 H             0.602814                     0.469043


          ********* ALL ELECTRONS ********

               ----- POPULATIONS IN EACH AO -----
                             MULLIKEN      LOWDIN
              1  O  1  S      1.98767     1.98230
              2  O  1  S      0.42501     0.62790
              3  O  1  X      0.72220     0.72726
              4  O  1  Y      0.53276     0.51556
              5  O  1  Z      0.80043     0.81065
              6  O  1  S      1.50748     1.09273
              7  O  1  X      0.97590     0.98150
              8  O  1  Y      0.68116     0.73462
              9  O  1  Z      1.02504     1.03932
             10  C  2  S      1.98873     1.97476
             11  C  2  S      0.36724     0.42182
             12  C  2  X      0.43731     0.42570
             13  C  2  Y      0.51633     0.50644
             14  C  2  Z      0.53566     0.49851
             15  C  2  S      0.83814     0.54680
             16  C  2  X      0.22564     0.42319
             17  C  2  Y      0.28347     0.46437
             18  C  2  Z      0.40684     0.53177
             19  C  3  S      1.99017     1.97548
             20  C  3  S      0.35198     0.42611
             21  C  3  X      0.45561     0.44878
             22  C  3  Y      0.56863     0.55794
             23  C  3  Z      0.54174     0.51121
             24  C  3  S      0.99391     0.55016
             25  C  3  X      0.26714     0.44727
             26  C  3  Y      0.31608     0.50113
             27  C  3  Z      0.47249     0.55248
             28  H  4  S      0.47714     0.49215
             29  H  4  S      0.33129     0.44636
             30  O  5  S      1.98637     1.98072
             31  O  5  S      0.41234     0.58310
             32  O  5  X      0.59762     0.59111
             33  O  5  Y      0.67819     0.67239
             34  O  5  Z      0.80242     0.81220
             35  O  5  S      1.51390     1.06221
             36  O  5  X      0.80530     0.83891
             37  O  5  Y      0.88530     0.88627
             38  O  5  Z      1.03247     1.04109
             39  C  6  S      1.99031     1.97570
             40  C  6  S      0.35299     0.42925
             41  C  6  X      0.53072     0.52605
             42  C  6  Y      0.48388     0.47533
             43  C  6  Z      0.54338     0.51272
             44  C  6  S      1.00781     0.55100
             45  C  6  X      0.32445     0.48666
             46  C  6  Y      0.25089     0.44889
             47  C  6  Z      0.47820     0.55423
             48  H  7  S      0.47570     0.49152
             49  H  7  S      0.33082     0.44637
             50  O  8  S      1.98606     1.98027
             51  O  8  S      0.40955     0.57109
             52  O  8  X      0.57309     0.55419
             53  O  8  Y      0.69864     0.70336
             54  O  8  Z      0.81408     0.82414
             55  O  8  S      1.51755     1.04878
             56  O  8  X      0.74551     0.76523
             57  O  8  Y      0.93901     0.95092
             58  O  8  Z      1.03788     1.04381
             59  C  9  S      1.99019     1.97568
             60  C  9  S      0.35356     0.42773
             61  C  9  X      0.54899     0.54113
             62  C  9  Y      0.45977     0.45483
             63  C  9  Z      0.54734     0.51712
             64  C  9  S      0.99813     0.55325
             65  C  9  X      0.30792     0.49199
             66  C  9  Y      0.24275     0.43150
             67  C  9  Z      0.48476     0.55616
             68  H 10  S      0.47567     0.49014
             69  H 10  S      0.32858     0.44686
             70  O 11  S      1.98610     1.98033
             71  O 11  S      0.41106     0.57135
             72  O 11  X      0.70448     0.70325
             73  O 11  Y      0.55446     0.53820
             74  O 11  Z      0.82263     0.83265
             75  O 11  S      1.52394     1.04711
             76  O 11  X      0.94062     0.94280
             77  O 11  Y      0.72294     0.75889
             78  O 11  Z      1.03798     1.04482
             79  C 12  S      1.99022     1.97567
             80  C 12  S      0.35434     0.42916
             81  C 12  X      0.53074     0.52241
             82  C 12  Y      0.46505     0.45413
             83  C 12  Z      0.55372     0.52354
             84  C 12  S      1.01811     0.55347
             85  C 12  X      0.29791     0.48151
             86  C 12  Y      0.22801     0.42884
             87  C 12  Z      0.49447     0.55734
             88  H 13  S      0.47358     0.48784
             89  H 13  S      0.31300     0.43738
             90  O 14  S      1.98662     1.98072
             91  O 14  S      0.41175     0.57757
             92  O 14  X      0.62270     0.62104
             93  O 14  Y      0.65973     0.65877
             94  O 14  Z      0.78246     0.78860
             95  O 14  S      1.53148     1.02603
             96  O 14  X      0.80918     0.82664
             97  O 14  Y      0.85414     0.88300
             98  O 14  Z      0.98050     0.99979
             99  C 15  S      1.98852     1.97567
            100  C 15  S      0.36455     0.42209
            101  C 15  X      0.52610     0.51721
            102  C 15  Y      0.50408     0.47388
            103  C 15  Z      0.52539     0.49358
            104  C 15  S      1.00154     0.56881
            105  C 15  X      0.34949     0.49562
            106  C 15  Y      0.39643     0.50108
            107  C 15  Z      0.43596     0.53865
            108  O 16  S      1.98597     1.98052
            109  O 16  S      0.41654     0.57553
            110  O 16  X      0.57030     0.54947
            111  O 16  Y      0.74949     0.75434
            112  O 16  Z      0.75280     0.75716
            113  O 16  S      1.51316     1.05737
            114  O 16  X      0.72091     0.75089
            115  O 16  Y      0.96399     0.97676
            116  O 16  Z      0.98161     0.99015
            117  H 17  S      0.48639     0.50254
            118  H 17  S      0.38907     0.48156
            119  H 18  S      0.39039     0.41330
            120  H 18  S      0.33611     0.41637
            121  H 19  S      0.40177     0.42044
            122  H 19  S      0.22642     0.33450
            123  H 20  S      0.40454     0.42239
            124  H 20  S      0.21392     0.32601
            125  H 21  S      0.47868     0.48592
            126  H 21  S      0.32756     0.44669
            127  H 22  S      0.47797     0.48377
            128  H 22  S      0.33341     0.44894
            129  H 23  S      0.42270     0.43929
            130  H 23  S      0.23184     0.33365
            131  H 24  S      0.38005     0.42071
            132  H 24  S      0.72515     0.70409

          ----- MULLIKEN ATOMIC OVERLAP POPULATIONS -----
          (OFF-DIAGONAL ELEMENTS NEED TO BE MULTIPLIED BY 2)

             1           2           3           4           5

    1    9.0504317
    2    0.1830416   5.0597142
    3   -0.0506924   0.1465904   5.5732384
    4    0.0030687  -0.0558717   0.3535828   0.5864553
    5   -0.0019647  -0.0407260   0.1791969  -0.0276818   8.5379220
    6    0.0017188  -0.0795446   0.0860661  -0.0605170  -0.0549552
    7   -0.0000080   0.0022981  -0.0504972   0.0045969   0.0022414
    8   -0.0000004   0.0021505  -0.0247347   0.0011087  -0.0010990
    9   -0.0000857  -0.0006847  -0.1068894  -0.0021192   0.0013648
   10    0.0000100   0.0027637   0.0066123   0.0041649   0.0000102
   11    0.0000000   0.0000164   0.0021389  -0.0000118  -0.0000003
   12    0.0009493  -0.1074104   0.0026286   0.0010623   0.0000294
   13    0.0000433   0.0001055   0.0009795   0.0001183   0.0000068
   14   -0.0351110   0.1479439  -0.0472257   0.0008843   0.0001747
   15   -0.0000046   0.0049326   0.0000212  -0.0000268   0.0000003
   16   -0.0000000  -0.0000290  -0.0000001   0.0000000  -0.0000000
   17   -0.0608429   0.3074148  -0.0925464   0.0052881  -0.0004237
   18    0.0066443   0.0139369  -0.0251180  -0.0041466   0.1104599
   19    0.0000000   0.0002751  -0.0066424  -0.0006045   0.0109642
   20    0.0000000  -0.0000420   0.0004737  -0.0000039  -0.0000012
   21    0.0000001  -0.0000455   0.0000043   0.0000023  -0.0000000
   22    0.0000005  -0.0000457   0.0000531   0.0000127   0.0000000
   23    0.0000000   0.0000050  -0.0000000  -0.0000000   0.0000000
   24   -0.4395600   0.0125709   0.0105184  -0.0009411  -0.0016191

             6           7           8           9          10

    6    5.5570564
    7    0.3521791   0.5797060
    8    0.1710585  -0.0307537   8.3926108
    9    0.1826956  -0.0617990  -0.0535489   5.5688107
   10   -0.0592026   0.0048781   0.0031052   0.3385511   0.5866047
   11   -0.0346856   0.0011443  -0.0014334   0.1863142  -0.0310509
   12   -0.0749439  -0.0007514   0.0013207   0.1058244  -0.0567625
   13   -0.0037267   0.0037755   0.0000135  -0.0608952   0.0045583
   14   -0.0000764  -0.0003060  -0.0000056  -0.0441058   0.0018804
   15    0.0046480  -0.0000934  -0.0000099  -0.0782187  -0.0043761
   16   -0.0000117   0.0000001   0.0000000   0.0014209  -0.0000072
   17    0.0024877   0.0028427  -0.0000887   0.0008242  -0.0000816
   18    0.0159810  -0.0005932  -0.0004509   0.0000978  -0.0000457
   19   -0.0387295  -0.0021530   0.2481205   0.0086419  -0.0004661
   20   -0.0052026  -0.0001529   0.0139986  -0.0553150  -0.0006693
   21    0.0003168   0.0000129   0.0000001   0.0017623   0.0006577
   22   -0.0001152   0.0000016   0.0000003   0.0008144   0.0031669
   23    0.0000014  -0.0000000  -0.0000000  -0.0001910   0.0000011
   24    0.0001447  -0.0000462  -0.0000004   0.0001342  -0.0000534

            11          12          13          14          15

   11    8.3409686
   12   -0.0340775   5.4322135
   13    0.0037757   0.3415967   0.5590826
   14    0.0001948   0.2391103  -0.0301164   8.4641200
   15   -0.0020876   0.2340719  -0.0464745  -0.0344301   5.1361669
   16    0.0000012  -0.0416696   0.0023146   0.0004005   0.2315870
   17    0.0000008  -0.0022457   0.0066431  -0.0401277  -0.0004116
   18    0.0000000   0.0000382  -0.0000116   0.0003247  -0.0000006
   19   -0.0000386  -0.0001664  -0.0000087   0.0000035   0.0000007
   20    0.2624707   0.0054596  -0.0001721  -0.0000250  -0.0001206
   21    0.0104785  -0.0650162   0.0004658   0.0016866   0.3468528
   22    0.0000958  -0.0560068   0.0048775   0.0026123   0.3476331
   23    0.0000017   0.0061500  -0.0000892  -0.0000397  -0.0474748
   24   -0.0000000   0.0011669  -0.0002828   0.0107828  -0.0001173

            16          17          18          19          20

   16    8.2646198
   17    0.0000008   0.7166643
   18    0.0000000   0.0054466   0.5917111
   19   -0.0000000   0.0000539   0.0010895   0.4083153
   20    0.0000001   0.0000006   0.0000002  -0.0004663   0.3984195
   21   -0.0304401   0.0000057  -0.0000000  -0.0000000  -0.0001820
   22   -0.0300701   0.0000053  -0.0000001  -0.0000001  -0.0000081
   23    0.2566647  -0.0000005  -0.0000000   0.0000000  -0.0000002
   24    0.0000008   0.0245561   0.0111333   0.0000026   0.0000000

            21          22          23          24

   21    0.5800750
   22   -0.0380766   0.5788563
   23   -0.0023181  -0.0024113   0.4442412
   24   -0.0000004  -0.0000213  -0.0000002   1.4768340

          TOTAL MULLIKEN AND LOWDIN ATOMIC POPULATIONS
       ATOM         MULL.POP.    CHARGE          LOW.POP.     CHARGE
    1 O             8.657639   -0.657639         8.511839   -0.511839
    2 C             5.599360    0.400640         5.793366    0.206634
    3 C             5.957758    0.042242         5.970560    0.029440
    4 H             0.808421    0.191579         0.938512    0.061488
    5 O             8.713900   -0.713900         8.467998   -0.467998
    6 C             5.962643    0.037357         5.959835    0.040165
    7 H             0.806523    0.193477         0.937892    0.062108
    8 O             8.721362   -0.721362         8.441796   -0.441796
    9 C             5.933404    0.066596         5.949394    0.050606
   10 H             0.804249    0.195751         0.936993    0.063007
   11 O             8.704216   -0.704216         8.419403   -0.419403
   12 C             5.932571    0.067429         5.926064    0.073936
   13 H             0.786580    0.213420         0.925211    0.074789
   14 O             8.638549   -0.638549         8.362161   -0.362161
   15 C             6.092068   -0.092068         5.986599    0.013401
   16 O             8.654783   -0.654783         8.392207   -0.392207
   17 H             0.875466    0.124534         0.984099    0.015901
   18 H             0.726497    0.273503         0.829664    0.170336
   19 H             0.628192    0.371808         0.754945    0.245055
   20 H             0.618462    0.381538         0.748399    0.251601
   21 H             0.806242    0.193758         0.932613    0.067387
   22 H             0.811374    0.188626         0.932705    0.067295
   23 H             0.654540    0.345460         0.772943    0.227057
   24 H             1.105202   -0.105202         1.124801   -0.124801

          -------------------------------
          BOND ORDER AND VALENCE ANALYSIS     BOND ORDER THRESHOLD=0.050
          -------------------------------

                   BOND                       BOND                       BOND
  ATOM PAIR DIST  ORDER      ATOM PAIR DIST  ORDER      ATOM PAIR DIST  ORDER
    1   2  1.426  0.991        1  18  2.421  0.057        1  24  0.995  0.450
    2   3  1.522  0.854        2  14  1.451  0.731        2  17  1.103  0.870
    3   4  1.098  0.892        3   5  1.454  0.840        3   6  1.514  0.854
    5  18  0.996  0.708        6   7  1.101  0.890        6   8  1.456  0.807
    6   9  1.522  0.882        8  19  0.996  0.792        9  10  1.100  0.884
    9  11  1.452  0.823        9  12  1.532  0.838       11  20  0.998  0.800
   12  13  1.098  0.880       12  14  1.474  0.883       12  15  1.516  0.914
   15  16  1.459  0.863       15  21  1.098  0.885       15  22  1.100  0.894
   16  23  0.995  0.836       18  24  3.328  0.118

                       TOTAL       BONDED        FREE
      ATOM            VALENCE     VALENCE     VALENCE
    1 O                 1.608       1.587       0.021
    2 C                 3.538       3.525       0.013
    3 C                 3.512       3.510       0.002
    4 H                 0.914       0.914       0.000
    5 O                 1.669       1.665       0.004
    6 C                 3.474       3.472       0.002
    7 H                 0.914       0.914       0.000
    8 O                 1.696       1.696       0.001
    9 C                 3.412       3.412       0.000
   10 H                 0.913       0.913       0.000
   11 O                 1.713       1.713       0.000
   12 C                 3.475       3.475       0.000
   13 H                 0.911       0.911       0.000
   14 O                 1.756       1.756       0.000
   15 C                 3.541       3.541       0.000
   16 O                 1.741       1.741       0.000
   17 H                 0.936       0.936       0.000
   18 H                 0.971       0.952       0.019
   19 H                 0.854       0.854       0.000
   20 H                 0.839       0.839       0.000
   21 H                 0.916       0.916       0.000
   22 H                 0.914       0.914       0.000
   23 H                 0.851       0.851       0.000
   24 H                 1.129       0.766       0.363

          -----------------------------------------
          ATOMIC SPIN DENSITY AT THE NUCLEUS (A.U.)
          -----------------------------------------
                            SPIN DENS    ALPHA DENS     BETA DENS
    1  O            8.0     0.9511666     117.61516     116.66399
    2  C            6.0     0.0059592      46.99115      46.98519
    3  C            6.0    -0.0138850      47.06512      47.07900
    4  H            1.0     0.0013426       0.18823       0.18689
    5  O            8.0     0.2670704     116.95382     116.68675
    6  C            6.0     0.0194421      47.09632      47.07688
    7  H            1.0    -0.0008271       0.18653       0.18735
    8  O            8.0     0.0538626     116.76414     116.71028
    9  C            6.0     0.0087340      47.08331      47.07458
   10  H            1.0     0.0001206       0.18684       0.18672
   11  O            8.0    -0.0006318     116.74377     116.74441
   12  C            6.0     0.0226413      47.08950      47.06686
   13  H            1.0    -0.0002870       0.18580       0.18609
   14  O            8.0    -0.0038395     116.82933     116.83317
   15  C            6.0    -0.0004251      46.99387      46.99429
   16  O            8.0    -0.0000547     116.75440     116.75445
   17  H            1.0    -0.0045590       0.18830       0.19286
   18  H            1.0     0.0011549       0.15898       0.15783
   19  H            1.0    -0.0012724       0.16213       0.16340
   20  H            1.0     0.0000041       0.16387       0.16387
   21  H            1.0    -0.0001325       0.18739       0.18752
   22  H            1.0    -0.0001120       0.18681       0.18692
   23  H            1.0     0.0000129       0.17098       0.17097
   24  H            1.0     0.0366568       0.17388       0.13722

          ---------------------
          ELECTROSTATIC MOMENTS
          ---------------------

 POINT   1           X           Y           Z (BOHR)    CHARGE
                -0.111279   -0.091083    0.009474       -1.00 (A.U.)
         DX          DY          DZ         /D/  (DEBYE)
     4.122702   -7.666278   -0.582912    8.724006
 ...... END OF PROPERTY EVALUATION ......
 CPU     0: STEP CPU TIME=     0.09 TOTAL CPU TIME=         17.4 (      0.3 MIN)
 TOTAL WALL CLOCK TIME=         25.6 SECONDS, CPU UTILIZATION IS    68.00%
               580000  WORDS OF DYNAMIC MEMORY USED
 EXECUTION OF GAMESS TERMINATED NORMALLY Thu May 21 21:04:12 2020
 DDI: 263640 bytes (0.3 MB / 0 MWords) used by master data server.
Note: The following floating-point exceptions are signalling: IEEE_DENORMALNote: The following floating-point exceptions are signalling: IEEE_DENORMALNote: The following floating-point exceptions are signalling: IEEE_DENORMALNote: The following floating-point exceptions are signalling: IEEE_DENORMALNote: The following floating-point exceptions are signalling: IEEE_DENORMAL

 ----------------------------------------
 CPU timing information for all processes
 ========================================
 0: 16.924 + 0.488 = 17.412
 1: 16.838 + 0.75 = 16.914
 2: 17.352 + 0.83 = 17.436
 3: 17.79 + 0.56 = 17.136
 4: 17.175 + 0.95 = 17.270
 5: 17.251 + 0.64 = 17.315
 6: 16.831 + 0.64 = 16.895
 7: 17.26 + 0.75 = 17.102
 ----------------------------------------




Note: The following floating-point exceptions are signalling: IEEE_DENORMALNote: The following floating-point exceptions are signalling: IEEE_DENORMALNote: The following floating-point exceptions are signalling: IEEE_DENORMAL


 ddikick.x: exited gracefully.
unset echo
----- accounting info -----
Files used on the master node pietdev were:
-rwxr-xr-x 1 piet piet     1460 mei 21 21:03 /home/piet/scr/alpha-d-glucopyranose_fukui_acid.F05*
-rw-r--r-- 1 piet piet 68812800 mei 21 21:04 /home/piet/scr/alpha-d-glucopyranose_fukui_acid.F10
ls: No match.
ls: No match.
ls: No match.
do 21 mei 2020 21:04:15 CEST
0.116u 0.023s 0:28.74 0.4%	0+0k 0+8io 0pf+0w
