----- GAMESS execution script 'rungms' -----
This job is running on host pietdev
under operating system Linux at do 21 mei 2020 21:02:42 CEST
Available scratch disk space (Kbyte units) at beginning of the job is
Filesystem     1K-blocks     Used Available Use% Mounted on
/dev/sda2      244568380 30779608 201295716  14% /
GAMESS temporary binary files will be written to /home/piet/scr
GAMESS supplementary output files will be written to /home/piet/gamess/scr
Copying input file alpha-d-glucopyranose_charge_chelpg.inp to your run's scratch directory...
cp alpha-d-glucopyranose_charge_chelpg.inp /home/piet/scr/alpha-d-glucopyranose_charge_chelpg.F05
unset echo
 
Assuming a single but multicore node.
 
/home/piet/gamess/ddikick.x /home/piet/gamess/gamess.03.x alpha-d-glucopyranose_charge_chelpg -ddi 1 8 pietdev:cpus=8 -scr /home/piet/scr

 Distributed Data Interface kickoff program.
 Initiating 8 compute processes on 1 nodes to run the following command:
 /home/piet/gamess/gamess.03.x alpha-d-glucopyranose_charge_chelpg 

          ******************************************************
          *         GAMESS VERSION = 30 SEP 2019 (R2)          *
          *             FROM IOWA STATE UNIVERSITY             *
          * M.W.SCHMIDT, K.K.BALDRIDGE, J.A.BOATZ, S.T.ELBERT, *
          *   M.S.GORDON, J.H.JENSEN, S.KOSEKI, N.MATSUNAGA,   *
          *          K.A.NGUYEN, S.J.SU, T.L.WINDUS,           *
          *       TOGETHER WITH M.DUPUIS, J.A.MONTGOMERY       *
          *         J.COMPUT.CHEM.  14, 1347-1363(1993)        *
          **************** 64 BIT LINUX VERSION ****************

  SINCE 1993, STUDENTS AND POSTDOCS WORKING AT IOWA STATE UNIVERSITY
  AND ALSO IN THEIR VARIOUS JOBS AFTER LEAVING ISU HAVE MADE IMPORTANT
  CONTRIBUTIONS TO THE CODE:
     IVANA ADAMOVIC, CHRISTINE AIKENS, YURI ALEXEEV, POOJA ARORA,
     ANDREY ASADCHEV, ROB BELL, PRADIPTA BANDYOPADHYAY, JONATHAN BENTZ,
     COLLEEN BERTONI, BRETT BODE, KURT BRORSEN, CALEB CARLIN, GALINA CHABAN,
     WEI CHEN, CHEOL HO CHOI, PAUL DAY, ALBERT DEFUSCO, NUWAN DESILVA,
     TIM DUDLEY, DMITRI FEDOROV, ALEX FINDLATER, GRAHAM FLETCHER, 
     MARK FREITAG, KURT GLAESEMANN, EMILIE B GUIDEZ, ANASTASIA GUNINA, 
     DAN KEMP, SAROM SOK LEANG, GRANT MERRILL,
     NORIYUKI MINEZAWA, JONATHAN MULLIN,
     TAKESHI NAGATA, SEAN NEDD, HEATHER NETZLOFF, BOSILJKA NJEGIC, RYAN OLSON,
     MIKE PAK, BUU PHAM, DAVID POOLE,
     SPENCER PRUITT, LUKE ROSKOP, TOSAPORN SATTASATHUCHANA,
     JIM SHOEMAKER, LYUDMILA SLIPCHENKO,
     TONY SMITH, JIE SONG, TETSUYA TAKETSUGU, SIMON WEBB,
     JORGE LUIS GALVEZ VALLEJO, PENG XU, SOOHAENG YOO,
     FEDERICO ZAHARIEV

  ADDITIONAL CODE HAS BEEN PROVIDED BY COLLABORATORS IN OTHER GROUPS:
     IOWA STATE UNIVERSITY:
          JOE IVANIC, AARON WEST, LAIMUTIS BYTAUTAS, KLAUS RUEDENBERG
     UNIVERSITY OF TOKYO: KIMIHIKO HIRAO, TAKAHITO NAKAJIMA,
          TAKAO TSUNEDA, MUNEAKI KAMIYA, SUSUMU YANAGISAWA,
          KIYOSHI YAGI, MAHITO CHIBA, SEIKEN TOKURA, NAOAKI KAWAKAMI
     UNIVERSITY OF AARHUS: FRANK JENSEN
     UNIVERSITY OF IOWA: VISVALDAS KAIRYS, HUI LI
     NATIONAL INST. OF STANDARDS AND TECHNOLOGY: WALT STEVENS, DAVID GARMER
     UNIVERSITY OF PISA: BENEDETTA MENNUCCI, JACOPO TOMASI
     UNIVERSITY OF MEMPHIS: HENRY KURTZ, PRAKASHAN KORAMBATH
     UNIVERSITY OF ALBERTA: TOBY ZENG, MARIUSZ KLOBUKOWSKI
     UNIVERSITY OF NEW ENGLAND: MARK SPACKMAN
     MIE UNIVERSITY: HIROAKI UMEDA
     NAT. INST. OF ADVANCED INDUSTRIAL SCIENCE AND TECHNOLOGY: KAZUO KITAURA
     MICHIGAN STATE UNIVERSITY:
          KAROL KOWALSKI, MARTA WLOCH, JEFFREY GOUR, JESSE LUTZ,
          WEI LI, JUN SHEN, J. EMILIANO DEUSTUA, PIOTR PIECUCH
     UNIVERSITY OF MINNESOTA:
          ANDREW SAND, PRACHI SHARMA, YINAN SHU
     UNIVERSITY OF SILESIA: MONIKA MUSIAL, STANISLAW KUCHARSKI
     FACULTES UNIVERSITAIRES NOTRE-DAME DE LA PAIX:
          OLIVIER QUINET, BENOIT CHAMPAGNE
     UNIVERSITY OF CALIFORNIA - SANTA BARBARA: BERNARD KIRTMAN
     INSTITUTE FOR MOLECULAR SCIENCE:
          KAZUYA ISHIMURA, MICHIO KATOUDA, AND SHIGERU NAGASE
     UNIVERSITY OF NOTRE DAME: ANNA POMOGAEVA, DAN CHIPMAN
     KYUSHU UNIVERSITY:
          HARUYUKI NAKANO,
          FENG LONG GU, JACEK KORCHOWIEC, MARCIN MAKOWSKI, AND YURIKO AOKI,
          HIROTOSHI MORI AND EISAKU MIYOSHI
     PENNSYLVANIA STATE UNIVERSITY:
          TZVETELIN IORDANOV, CHET SWALINA, JONATHAN SKONE,
          SHARON HAMMES-SCHIFFER
     WASEDA UNIVERSITY:
          MASATO KOBAYASHI, TOMOKO AKAMA, TSUGUKI TOUMA,
          TAKESHI YOSHIKAWA, YASUHIRO IKABATA, JUNJI SEINO,
          YUYA NAKAJIMA, HIROMI NAKAI
     NANJING UNIVERSITY: SHUHUA LI
     UNIVERSITY OF NEBRASKA:
          PEIFENG SU, DEJUN SI, NANDUN THELLAMUREGE, YALI WANG, HUI LI
     UNIVERSITY OF ZURICH: ROBERTO PEVERATI, KIM BALDRIDGE
     N. COPERNICUS UNIVERSITY AND JACKSON STATE UNIVERSITY:
          MARIA BARYSZ
     UNIVERSITY OF COPENHAGEN: Jimmy Kromann, CASPER STEINMANN
     TOKYO INSTITUTE OF TECHNOLOGY: HIROYA NAKATA
     NAGOYA UNIVERSITY: YOSHIO NISHIMOTO, STEPHAN IRLE
     MOSCOW STATE UNIVERSITY: VLADIMIR MIRONOV
     A.N.NESMEYANOV INSTITUTE OF ORGANOELEMENT COMPOUNDS OF RUSSIAN ACADEMY OF SCIENCES:
          IGOR S. GERASIMOV
     JOHANNES KEPLER UNIVERSITY LINZ:
          CHRISTIAN FRIEDL


 PARALLEL VERSION RUNNING ON        8 PROCESSORS IN        1 NODES.

 EXECUTION OF GAMESS BEGUN Thu May 21 21:02:42 2020

            ECHO OF THE FIRST FEW INPUT CARDS -
 INPUT CARD> $BASIS GBASIS=N21 NGAUSS=3 $END                                                
 INPUT CARD> $CONTRL SCFTYP=RHF DFTTYP=B3LYP MAXIT=60 MULT=1 ICHARG=0 $END                  
 INPUT CARD> $SYSTEM MEMDDI=1000 MWORDS=30 $END                                             
 INPUT CARD> $SCF DIRSCF=.TRUE. $END                                                        
 INPUT CARD> $ELPOT  IEPOT=1 WHERE=PDC $END                                                 
 INPUT CARD> $PDC PTSEL=CHELPG CONSTR=CHARGE $END                                           
 INPUT CARD> $DATA                                                                          
 INPUT CARD>                                                                                
 INPUT CARD>C1                                                                              
 INPUT CARD>O 8.0000000 -1.4277746328 2.5159749191 -0.2544729918                            
 INPUT CARD>C 6.0000000 -0.8092194040 1.3389667406 0.2599963320                             
 INPUT CARD>C 6.0000000 -1.6659253395 0.1796662270 -0.2278471025                            
 INPUT CARD>H 1.0000000 -1.6783551369 0.2228485926 -1.3244358872                            
 INPUT CARD>O 8.0000000 -3.0012969751 0.2167498462 0.3472101498                             
 INPUT CARD>C 6.0000000 -1.0376910996 -1.1191278810 0.2311964745                            
 INPUT CARD>H 1.0000000 -1.0086591334 -1.1264109088 1.3314581623                            
 INPUT CARD>O 8.0000000 -1.7454155926 -2.2825278787 -0.2830739300                           
 INPUT CARD>C 6.0000000 0.3873307443 -1.2192160160 -0.2952159139                            
 INPUT CARD>H 1.0000000 0.3471422729 -1.2049572623 -1.3942154622                            
 INPUT CARD>O 8.0000000 1.0246908871 -2.4185424665 0.2177087048                             
 INPUT CARD>C 6.0000000 1.1920915714 -0.0113095556 0.1957867842                             
 INPUT CARD>H 1.0000000 1.2344128506 -0.0308788754 1.2928714941                             
 INPUT CARD>O 8.0000000 0.5294829356 1.2139532658 -0.2866931487                             
 INPUT CARD>C 6.0000000 2.6117834271 -0.0236451456 -0.3363515157                            
 INPUT CARD>O 8.0000000 3.3598384995 0.9501677139 0.4516835264                              
 INPUT CARD>H 1.0000000 -0.7682307972 1.3295822841 1.3626133907                             
 INPUT CARD>H 1.0000000 -3.3669253864 1.1166886180 0.1261434680                             
 INPUT CARD>H 1.0000000 -2.7050241470 -2.1350774617 -0.0585558438                           
 INPUT CARD>H 1.0000000 0.3489956807 -3.1414879189 0.0851732569                             
 INPUT CARD>H 1.0000000 2.9882043388 -1.0486867194 -0.2175952105                            
 INPUT CARD>H 1.0000000 2.5755250319 0.2314098000 -1.4053726006                             
 INPUT CARD>H 1.0000000 4.2975419543 0.9470857283 0.1199745021                              
 INPUT CARD>H 1.0000000 -0.8581728496 3.2976244542 -0.0221566391                            
 INPUT CARD> $END                                                                           
   30000000 WORDS OF MEMORY AVAILABLE

     BASIS OPTIONS
     -------------
     GBASIS=N21          IGAUSS=       3      POLAR=NONE    
     NDFUNC=       0     NFFUNC=       0     DIFFSP=       F
     NPFUNC=       0      DIFFS=       F     BASNAM=        


     RUN TITLE
     ---------
                                                                                 

 THE POINT GROUP OF THE MOLECULE IS C1      
 THE ORDER OF THE PRINCIPAL AXIS IS     0

 ATOM      ATOMIC                      COORDINATES (BOHR)
           CHARGE         X                   Y                   Z
 O           8.0    -2.6981028282        4.7545031891       -0.4808842258
 C           6.0    -1.5292029375        2.5302802464        0.4913218253
 C           6.0    -3.1481424077        0.3395199383       -0.4305685908
 H           1.0    -3.1716313188        0.4211227768       -2.5028209151
 O           8.0    -5.6716288907        0.4095978172        0.6561320433
 C           6.0    -1.9609518381       -2.1148450403        0.4368979861
 H           1.0    -1.9060893771       -2.1286079672        2.5160910909
 O           8.0    -3.2983572047       -4.3133522501       -0.5349321620
 C           6.0     0.7319489733       -2.3039841901       -0.5578771845
 H           1.0     0.6560037745       -2.2770390527       -2.6346851914
 O           8.0     1.9363849987       -4.5703825514        0.4114097972
 C           6.0     2.2527264222       -0.0213719611        0.3699833742
 H           1.0     2.3327020434       -0.0583526133        2.4431728612
 O           8.0     1.0005776635        2.2940390343       -0.5417714936
 C           6.0     4.9355550165       -0.0446828461       -0.6356122002
 O           8.0     6.3491741271        1.7955566217        0.8535580981
 H           1.0    -1.4517457020        2.5125461951        2.5749659356
 H           1.0    -6.3625664014        2.1102355016        0.2383765897
 H           1.0    -5.1117544280       -4.0347113652       -0.1106544998
 H           1.0     0.6595062074       -5.9365513605        0.1609541170
 H           1.0     5.6468873957       -1.9817305466       -0.4111953241
 H           1.0     4.8670365848        0.4373011129       -2.6557691258
 H           1.0     8.1211767144        1.7897325134        0.2267189345
 H           1.0    -1.6217115358        6.2316066288       -0.0418699767

          INTERNUCLEAR DISTANCES (ANGS.)
          ------------------------------

                1 O          2 C          3 C          4 H          5 O     

   1 O       0.0000000    1.4257060 *  2.3485662 *  2.5428408 *  2.8503388 *
   2 C       1.4257060 *  0.0000000    1.5218127 *  2.1240391 *  2.4641796 *
   3 C       2.3485662 *  1.5218127 *  0.0000000    1.0975091 *  1.4544014 *
   4 H       2.5428408 *  2.1240391 *  1.0975091 *  0.0000000    2.1318097 *
   5 O       2.8503388 *  2.4641796 *  1.4544014 *  2.1318097 *  0.0000000  
   6 C       3.6880906    2.4688576 *  1.5140229 *  2.1520556 *  2.3777671 *
   7 H       3.9947228    2.6955322 *  2.1375849 *  3.0533207    2.5968116 *
   8 O       4.8090896    3.7797635    2.4640959 *  2.7140087 *  2.8672086 *
   9 C       4.1530614    2.8782446 *  2.4854116 *  2.7213787 *  3.7359747  
  10 H       4.2772280    3.2473279    2.7074044 *  2.4791407 *  4.0330955  
  11 O       5.5305519    4.1813743    3.7667790    4.0818641    4.8135345  
  12 C       3.6679149    2.4150807 *  2.8955480 *  3.2565889    4.2023146  
  13 H       3.9959957    2.6682843 *  3.2815965    3.9241423    4.3470488  
  14 O       2.3509904 *  1.4514206 *  2.4275564 *  2.6332010 *  3.7232586  
  15 C       4.7722535    3.7303622    4.2839119    4.4093490    5.6596570  
  16 O       5.0864181    4.1915334    5.1296917    5.3913809    6.4041284  
  17 H       2.1112778 *  1.1034186 *  2.1581768 *  3.0452290    2.6937009 *
  18 H       2.4213997 *  2.5708333 *  1.9740115 *  2.3988330 *  0.9962150 *
  19 H       4.8272185    3.9704577    2.5429165 *  2.8664118 *  2.4048940 *
  20 H       5.9396261    4.6310365    3.8971725    4.1732373    4.7508826  
  21 H       5.6753011    4.5110320    4.8135101    4.9617210    6.1477200  
  22 H       4.7508121    3.9314922    4.4021750    4.2546587    5.8457425  
  23 H       5.9481824    5.1236889    6.0226950    6.1904916    7.3388062  
  24 H       0.9946824 *  1.9794814 *  3.2274504    3.4384410    3.7711008  

                6 C          7 H          8 O          9 C         10 H     

   1 O       3.6880906    3.9947228    4.8090896    4.1530614    4.2772280  
   2 C       2.4688576 *  2.6955322 *  3.7797635    2.8782446 *  3.2473279  
   3 C       1.5140229 *  2.1375849 *  2.4640959 *  2.4854116 *  2.7074044 *
   4 H       2.1520556 *  3.0533207    2.7140087 *  2.7213787 *  2.4791407 *
   5 O       2.3777671 *  2.5968116 *  2.8672086 *  3.7359747    4.0330955  
   6 C       0.0000000    1.1006687 *  1.4556262 *  1.5224372 *  2.1370761 *
   7 H       1.1006687 *  0.0000000    2.1180487 *  2.1455696 *  3.0452691  
   8 O       1.4556262 *  2.1180487 *  0.0000000    2.3831463 *  2.6028047 *
   9 C       1.5224372 *  2.1455696 *  2.3831463 *  0.0000000    1.0998265 *
  10 H       2.1370761 *  3.0452691    2.6028047 *  1.0998265 *  0.0000000  
  11 O       2.4376381 *  2.6541579 *  2.8182926 *  1.4517932 *  2.1284174 *
  12 C       2.4900695 *  2.7159720 *  3.7438868    1.5322407 *  2.1602873 *
  13 H       2.7338427 *  2.4966080 *  4.0537519    2.1567835 *  3.0636817  
  14 O       2.8578859 *  3.2344395    4.1713975    2.4373331 *  2.6666424 *
  15 C       3.8523833    4.1358537    4.9082148    2.5257220 *  2.7646291 *
  16 O       4.8650658    4.9162947    6.0871840    3.7549816    4.1386284  
  17 H       2.7108845 *  2.4679301 *  4.0878499    3.2527055    3.9074356  
  18 H       3.2303628    3.4706914    3.7883276    4.4416701    4.6363595  
  19 H       1.9738565 *  2.4139597 *  0.9964931 *  3.2338010    3.4590215  
  20 H       2.4564534 *  2.7307486 *  2.2934640 *  1.9599221 *  2.4369541 *
  21 H       4.0514454    4.2872515    4.8922192    2.6076136 *  2.8955249 *
  22 H       4.1901839    4.7095961    5.1234720    2.8504311 *  2.6512194 *
  23 H       5.7224401    5.8243327    6.8636862    4.4894318    4.7465480  
  24 H       4.4276535    4.6289316    5.6562689    4.6933664    4.8588653  

               11 O         12 C         13 H         14 O         15 C     

   1 O       5.5305519    3.6679149    3.9959957    2.3509904 *  4.7722535  
   2 C       4.1813743    2.4150807 *  2.6682843 *  1.4514206 *  3.7303622  
   3 C       3.7667790    2.8955480 *  3.2815965    2.4275564 *  4.2839119  
   4 H       4.0818641    3.2565889    3.9241423    2.6332010 *  4.4093490  
   5 O       4.8135345    4.2023146    4.3470488    3.7232586    5.6596570  
   6 C       2.4376381 *  2.4900695 *  2.7338427 *  2.8578859 *  3.8523833  
   7 H       2.6541579 *  2.7159720 *  2.4966080 *  3.2344395    4.1358537  
   8 O       2.8182926 *  3.7438868    4.0537519    4.1713975    4.9082148  
   9 C       1.4517932 *  1.5322407 *  2.1567835 *  2.4373331 *  2.5257220 *
  10 H       2.1284174 *  2.1602873 *  3.0636817    2.6666424 *  2.7646291 *
  11 O       0.0000000    2.4131460 *  2.6269556 *  3.7006320    2.9259834 *
  12 C       2.4131460 *  0.0000000    1.0980751 *  1.4741459 *  1.5161953 *
  13 H       2.6269556 *  1.0980751 *  0.0000000    2.1310931 *  2.1334408 *
  14 O       3.7006320    1.4741459 *  2.1310931 *  0.0000000    2.4228271 *
  15 C       2.9259834 *  1.5161953 *  2.1334408 *  2.4228271 *  0.0000000  
  16 O       4.1055897    2.3851726 *  2.4874653 *  2.9369534 *  1.4590741 *
  17 H       4.3097348    2.6461933 *  2.4220446 *  2.1018190 *  4.0177360  
  18 H       5.6384871    4.6970060    4.8836952    3.9194250    6.1040332  
  19 H       3.7506598    4.4455136    4.6661731    4.6615544    5.7274566  
  20 H       0.9983886 *  3.2436188    3.4523017    4.3750118    3.8754142  
  21 H       2.4333884 *  2.1149603 *  2.5284832 *  3.3420989    1.0984107 *
  22 H       3.4729996    2.1299090 *  3.0245493    2.5304394 *  1.0996244 *
  23 H       4.6955893    3.2508601    3.4226981    3.7993244    1.9980825 *
  24 H       6.0230620    3.8987341    4.1457386    2.5173903 *  4.8135379  

               16 O         17 H         18 H         19 H         20 H     

   1 O       5.0864181    2.1112778 *  2.4213997 *  4.8272185    5.9396261  
   2 C       4.1915334    1.1034186 *  2.5708333 *  3.9704577    4.6310365  
   3 C       5.1296917    2.1581768 *  1.9740115 *  2.5429165 *  3.8971725  
   4 H       5.3913809    3.0452290    2.3988330 *  2.8664118 *  4.1732373  
   5 O       6.4041284    2.6937009 *  0.9962150 *  2.4048940 *  4.7508826  
   6 C       4.8650658    2.7108845 *  3.2303628    1.9738565 *  2.4564534 *
   7 H       4.9162947    2.4679301 *  3.4706914    2.4139597 *  2.7307486 *
   8 O       6.0871840    4.0878499    3.7883276    0.9964931 *  2.2934640 *
   9 C       3.7549816    3.2527055    4.4416701    3.2338010    1.9599221 *
  10 H       4.1386284    3.9074356    4.6363595    3.4590215    2.4369541 *
  11 O       4.1055897    4.3097348    5.6384871    3.7506598    0.9983886 *
  12 C       2.3851726 *  2.6461933 *  4.6970060    4.4455136    3.2436188  
  13 H       2.4874653 *  2.4220446 *  4.8836952    4.6661731    3.4523017  
  14 O       2.9369534 *  2.1018190 *  3.9194250    4.6615544    4.3750118  
  15 C       1.4590741 *  4.0177360    6.1040332    5.7274566    3.8754142  
  16 O       0.0000000    4.2443733    6.7366949    6.8236091    5.0932455  
  17 H       4.2443733    0.0000000    2.8857226 *  4.2160121    4.7823129  
  18 H       6.7366949    2.8857226 *  0.0000000    3.3235839    5.6517091  
  19 H       6.8236091    4.2160121    3.3235839    0.0000000    3.2187819  
  20 H       5.0932455    4.7823129    5.6517091    3.2187819    0.0000000  
  21 H       2.1404357 *  4.7184773    6.7226989    5.7981367    3.3818498  
  22 H       2.1401911 *  4.4775476    6.2001594    5.9412437    4.3076210  
  23 H       0.9946498 *  5.2299626    7.6663461    7.6529429    5.6840710  
  24 H       4.8504327    2.4080838 *  3.3275086    5.7381560    6.5521709  

               21 H         22 H         23 H         24 H     

   1 O       5.6753011    4.7508121    5.9481824    0.9946824 *
   2 C       4.5110320    3.9314922    5.1236889    1.9794814 *
   3 C       4.8135101    4.4021750    6.0226950    3.2274504  
   4 H       4.9617210    4.2546587    6.1904916    3.4384410  
   5 O       6.1477200    5.8457425    7.3388062    3.7711008  
   6 C       4.0514454    4.1901839    5.7224401    4.4276535  
   7 H       4.2872515    4.7095961    5.8243327    4.6289316  
   8 O       4.8922192    5.1234720    6.8636862    5.6562689  
   9 C       2.6076136 *  2.8504311 *  4.4894318    4.6933664  
  10 H       2.8955249 *  2.6512194 *  4.7465480    4.8588653  
  11 O       2.4333884 *  3.4729996    4.6955893    6.0230620  
  12 C       2.1149603 *  2.1299090 *  3.2508601    3.8987341  
  13 H       2.5284832 *  3.0245493    3.4226981    4.1457386  
  14 O       3.3420989    2.5304394 *  3.7993244    2.5173903 *
  15 C       1.0984107 *  1.0996244 *  1.9980825 *  4.8135379  
  16 O       2.1404357 *  2.1401911 *  0.9946498 *  4.8504327  
  17 H       4.7184773    4.4775476    5.2299626    2.4080838 *
  18 H       6.7226989    6.2001594    7.6663461    3.3275086  
  19 H       5.7981367    5.9412437    7.6529429    5.7381560  
  20 H       3.3818498    4.3076210    5.6840710    6.5521709  
  21 H       0.0000000    1.7943708 *  2.4106899 *  5.8071710  
  22 H       1.7943708 *  0.0000000    2.4091945 *  4.8067910  
  23 H       2.4106899 *  2.4091945 *  0.0000000    5.6680357  
  24 H       5.8071710    4.8067910    5.6680357    0.0000000  

  * ... LESS THAN  3.000


     ATOMIC BASIS SET
     ----------------
 THE CONTRACTED PRIMITIVE FUNCTIONS HAVE BEEN UNNORMALIZED
 THE CONTRACTED BASIS FUNCTIONS ARE NOW NORMALIZED TO UNITY

  SHELL TYPE  PRIMITIVE        EXPONENT          CONTRACTION COEFFICIENT(S)

 O         

      1   S       1           322.0370000    0.059239393389
      1   S       2            48.4308000    0.351499960776
      1   S       3            10.4206000    0.707657921031

      2   L       4             7.4029400   -0.404453583190    0.244586106967
      2   L       5             1.5762000    1.221561761397    0.853955373466

      3   L       6             0.3736840    1.000000000000    1.000000000000

 C         

      4   S       7           172.2560000    0.061766907377
      4   S       8            25.9109000    0.358794042852
      4   S       9             5.5333500    0.700713083689

      5   L      10             3.6649800   -0.395895162119    0.236459946619
      5   L      11             0.7705450    1.215834355681    0.860618805716

      6   L      12             0.1958570    1.000000000000    1.000000000000

 C         

      7   S      13           172.2560000    0.061766907377
      7   S      14            25.9109000    0.358794042852
      7   S      15             5.5333500    0.700713083689

      8   L      16             3.6649800   -0.395895162119    0.236459946619
      8   L      17             0.7705450    1.215834355681    0.860618805716

      9   L      18             0.1958570    1.000000000000    1.000000000000

 H         

     10   S      19             5.4471780    0.156284978695
     10   S      20             0.8245472    0.904690876670

     11   S      21             0.1831916    1.000000000000

 O         

     12   S      22           322.0370000    0.059239393389
     12   S      23            48.4308000    0.351499960776
     12   S      24            10.4206000    0.707657921031

     13   L      25             7.4029400   -0.404453583190    0.244586106967
     13   L      26             1.5762000    1.221561761397    0.853955373466

     14   L      27             0.3736840    1.000000000000    1.000000000000

 C         

     15   S      28           172.2560000    0.061766907377
     15   S      29            25.9109000    0.358794042852
     15   S      30             5.5333500    0.700713083689

     16   L      31             3.6649800   -0.395895162119    0.236459946619
     16   L      32             0.7705450    1.215834355681    0.860618805716

     17   L      33             0.1958570    1.000000000000    1.000000000000

 H         

     18   S      34             5.4471780    0.156284978695
     18   S      35             0.8245472    0.904690876670

     19   S      36             0.1831916    1.000000000000

 O         

     20   S      37           322.0370000    0.059239393389
     20   S      38            48.4308000    0.351499960776
     20   S      39            10.4206000    0.707657921031

     21   L      40             7.4029400   -0.404453583190    0.244586106967
     21   L      41             1.5762000    1.221561761397    0.853955373466

     22   L      42             0.3736840    1.000000000000    1.000000000000

 C         

     23   S      43           172.2560000    0.061766907377
     23   S      44            25.9109000    0.358794042852
     23   S      45             5.5333500    0.700713083689

     24   L      46             3.6649800   -0.395895162119    0.236459946619
     24   L      47             0.7705450    1.215834355681    0.860618805716

     25   L      48             0.1958570    1.000000000000    1.000000000000

 H         

     26   S      49             5.4471780    0.156284978695
     26   S      50             0.8245472    0.904690876670

     27   S      51             0.1831916    1.000000000000

 O         

     28   S      52           322.0370000    0.059239393389
     28   S      53            48.4308000    0.351499960776
     28   S      54            10.4206000    0.707657921031

     29   L      55             7.4029400   -0.404453583190    0.244586106967
     29   L      56             1.5762000    1.221561761397    0.853955373466

     30   L      57             0.3736840    1.000000000000    1.000000000000

 C         

     31   S      58           172.2560000    0.061766907377
     31   S      59            25.9109000    0.358794042852
     31   S      60             5.5333500    0.700713083689

     32   L      61             3.6649800   -0.395895162119    0.236459946619
     32   L      62             0.7705450    1.215834355681    0.860618805716

     33   L      63             0.1958570    1.000000000000    1.000000000000

 H         

     34   S      64             5.4471780    0.156284978695
     34   S      65             0.8245472    0.904690876670

     35   S      66             0.1831916    1.000000000000

 O         

     36   S      67           322.0370000    0.059239393389
     36   S      68            48.4308000    0.351499960776
     36   S      69            10.4206000    0.707657921031

     37   L      70             7.4029400   -0.404453583190    0.244586106967
     37   L      71             1.5762000    1.221561761397    0.853955373466

     38   L      72             0.3736840    1.000000000000    1.000000000000

 C         

     39   S      73           172.2560000    0.061766907377
     39   S      74            25.9109000    0.358794042852
     39   S      75             5.5333500    0.700713083689

     40   L      76             3.6649800   -0.395895162119    0.236459946619
     40   L      77             0.7705450    1.215834355681    0.860618805716

     41   L      78             0.1958570    1.000000000000    1.000000000000

 O         

     42   S      79           322.0370000    0.059239393389
     42   S      80            48.4308000    0.351499960776
     42   S      81            10.4206000    0.707657921031

     43   L      82             7.4029400   -0.404453583190    0.244586106967
     43   L      83             1.5762000    1.221561761397    0.853955373466

     44   L      84             0.3736840    1.000000000000    1.000000000000

 H         

     45   S      85             5.4471780    0.156284978695
     45   S      86             0.8245472    0.904690876670

     46   S      87             0.1831916    1.000000000000

 H         

     47   S      88             5.4471780    0.156284978695
     47   S      89             0.8245472    0.904690876670

     48   S      90             0.1831916    1.000000000000

 H         

     49   S      91             5.4471780    0.156284978695
     49   S      92             0.8245472    0.904690876670

     50   S      93             0.1831916    1.000000000000

 H         

     51   S      94             5.4471780    0.156284978695
     51   S      95             0.8245472    0.904690876670

     52   S      96             0.1831916    1.000000000000

 H         

     53   S      97             5.4471780    0.156284978695
     53   S      98             0.8245472    0.904690876670

     54   S      99             0.1831916    1.000000000000

 H         

     55   S     100             5.4471780    0.156284978695
     55   S     101             0.8245472    0.904690876670

     56   S     102             0.1831916    1.000000000000

 H         

     57   S     103             5.4471780    0.156284978695
     57   S     104             0.8245472    0.904690876670

     58   S     105             0.1831916    1.000000000000

 H         

     59   S     106             5.4471780    0.156284978695
     59   S     107             0.8245472    0.904690876670

     60   S     108             0.1831916    1.000000000000

 TOTAL NUMBER OF BASIS SET SHELLS             =   60
 NUMBER OF CARTESIAN GAUSSIAN BASIS FUNCTIONS =  132
 NUMBER OF ELECTRONS                          =   96
 CHARGE OF MOLECULE                           =    0
 SPIN MULTIPLICITY                            =    1
 NUMBER OF OCCUPIED ORBITALS (ALPHA)          =   48
 NUMBER OF OCCUPIED ORBITALS (BETA )          =   48
 TOTAL NUMBER OF ATOMS                        =   24
 THE NUCLEAR REPULSION ENERGY IS      816.4741506658

 SELECTED MURRAY-HANDY-LAMING RADIAL GRID

 LEGACY BECKE'S FUZZY CELL METHOD

 SELECTED ORIGINAL BECKE'S PARTITION FUNCTION

     LEBEDEV GRID-BASED DFT OPTIONS
     ------------------------------
     DFTTYP=B3LYP   
     NRAD  =      96     NLEB  =     302
     NRAD0 =      24     NLEB0 =     110
     SWOFF =    5.00E-03 (PURE SCF -> DFT)
     SWITCH=    3.00E-04 (COARSE -> TIGHT GRID)
     THRESH=    0.00E+00 GTHRE=    1.00E+00

 GRIMME'S EMPIRICAL DISPERSION CORRECTION= F

     $CONTRL OPTIONS
     ---------------
 SCFTYP=RHF          RUNTYP=ENERGY       EXETYP=RUN     
 MPLEVL=       0     CITYP =NONE         CCTYP =NONE         VBTYP =NONE    
 DFTTYP=B3LYP        TDDFT =NONE    
 MULT  =       1     ICHARG=       0     NZVAR =       0     COORD =UNIQUE  
 PP    =NONE         RELWFN=NONE         LOCAL =NONE         NUMGRD=       F
 ISPHER=      -1     NOSYM =       0     MAXIT =      60     UNITS =ANGS    
 PLTORB=       F     MOLPLT=       F     AIMPAC=       F     FRIEND=        
 NPRINT=       7     IREST =       0     GEOM  =INPUT   
 NORMF =       0     NORMP =       0     ITOL  =      20     ICUT  =       9
 INTTYP=BEST         GRDTYP=BEST         QMTTOL= 1.0E-06

     $SYSTEM OPTIONS
     ---------------
  REPLICATED MEMORY=    30000000 WORDS (ON EVERY NODE).
 DISTRIBUTED MEMDDI=        1000 MILLION WORDS IN AGGREGATE,
 MEMDDI DISTRIBUTED OVER   8 PROCESSORS IS   125000000 WORDS/PROCESSOR.
 TOTAL MEMORY REQUESTED ON EACH PROCESSOR=   155000000 WORDS.
 TIMLIM=      525600.00 MINUTES, OR     365.0 DAYS.
 PARALL= T  BALTYP=  DLB     KDIAG=    0  COREFL= F
 MXSEQ2=     300 MXSEQ3=     150  mem10=         0

     INPUT FOR POTENTIAL-DERIVED CHARGES 
     -----------------------------------
     VDWSCL=    1.00   RMAX=    3.00   DELR=    0.80
     VDWINC=    0.20 PTDENS=    0.28
     LAYER =       4  NFREQ=      30 MAXPDC=   10000
     CONSTR=CHARGE    UNITS=ANGS      PTSEL=CHELPG  
     CENTER=  0.0000  0.0000  0.0000
     DPOLE =  0.0000  0.0000  0.0000
     QPOLE =  0.0000  0.0000  0.0000  0.0000  0.0000  0.0000


          ----------------
          PROPERTIES INPUT
          ----------------

     MOMENTS            FIELD           POTENTIAL          DENSITY
 IEMOM =       1   IEFLD =       0   IEPOT =       1   IEDEN =       0
 WHERE =COMASS     WHERE =NUCLEI     WHERE =PDC        WHERE =NUCLEI  
 OUTPUT=BOTH       OUTPUT=BOTH       OUTPUT=BOTH       OUTPUT=BOTH    
 IEMINT=       0   IEFINT=       0                     IEDINT=       0
                                                       MORB  =       0
          EXTRAPOLATION IN EFFECT
          DIIS IN EFFECT
 ORBITAL PRINTING OPTION: NPREO=     1   132     2     1

     -------------------------------
     INTEGRAL TRANSFORMATION OPTIONS
     -------------------------------
     NWORD  =            0
     CUTOFF = 1.0E-09     MPTRAN =       0
     DIRTRF =       T     AOINTS =DUP     

          ----------------------
          INTEGRAL INPUT OPTIONS
          ----------------------
 NOPK  =       1 NORDER=       0 SCHWRZ=       T

     ------------------------------------------
     THE POINT GROUP IS C1 , NAXIS= 0, ORDER= 1
     ------------------------------------------

     DIMENSIONS OF THE SYMMETRY SUBSPACES ARE
 A   =  132

 ..... DONE SETTING UP THE RUN .....
 CPU     0: STEP CPU TIME=     0.03 TOTAL CPU TIME=          0.0 (      0.0 MIN)
 TOTAL WALL CLOCK TIME=          0.0 SECONDS, CPU UTILIZATION IS   100.00%

          ********************
          1 ELECTRON INTEGRALS
          ********************
 ...... END OF ONE-ELECTRON INTEGRALS ......
 CPU     0: STEP CPU TIME=     0.00 TOTAL CPU TIME=          0.0 (      0.0 MIN)
 TOTAL WALL CLOCK TIME=          0.0 SECONDS, CPU UTILIZATION IS    60.00%

          -------------
          GUESS OPTIONS
          -------------
          GUESS =HUCKEL            NORB  =       0          NORDER=       0
          MIX   =       F          PRTMO =       F          PUNMO =       F
          TOLZ  = 1.0E-08          TOLE  = 1.0E-05
          SYMDEN=       F          PURIFY=       F

 INITIAL GUESS ORBITALS GENERATED BY HUCKEL   ROUTINE.
 HUCKEL GUESS REQUIRES    164928 WORDS.

 SYMMETRIES FOR INITIAL GUESS ORBITALS FOLLOW.   BOTH SET(S).
    48 ORBITALS ARE OCCUPIED (   12 CORE ORBITALS).
    13=A       14=A       15=A       16=A       17=A       18=A       19=A   
    20=A       21=A       22=A       23=A       24=A       25=A       26=A   
    27=A       28=A       29=A       30=A       31=A       32=A       33=A   
    34=A       35=A       36=A       37=A       38=A       39=A       40=A   
    41=A       42=A       43=A       44=A       45=A       46=A       47=A   
    48=A       49=A       50=A       51=A       52=A       53=A       54=A   
    55=A       56=A       57=A       58=A   
 ...... END OF INITIAL ORBITAL SELECTION ......
 CPU     0: STEP CPU TIME=     0.03 TOTAL CPU TIME=          0.1 (      0.0 MIN)
 TOTAL WALL CLOCK TIME=          0.1 SECONDS, CPU UTILIZATION IS    75.00%

                    ----------------------
                    AO INTEGRAL TECHNOLOGY
                    ----------------------
     S,P,L SHELL ROTATED AXIS INTEGRALS, REPROGRAMMED BY
        KAZUYA ISHIMURA (IMS) AND JOSE SIERRA (SYNSTAR).
     S,P,D,L SHELL ROTATED AXIS INTEGRALS PROGRAMMED BY
        KAZUYA ISHIMURA (INSTITUTE FOR MOLECULAR SCIENCE).
     S,P,D,F,G SHELL TO TOTAL QUARTET ANGULAR MOMENTUM SUM 5,
        ERIC PROGRAM BY GRAHAM FLETCHER (ELORET AND NASA ADVANCED
        SUPERCOMPUTING DIVISION, AMES RESEARCH CENTER).
     S,P,D,F,G,L SHELL GENERAL RYS QUADRATURE PROGRAMMED BY
        MICHEL DUPUIS (PACIFIC NORTHWEST NATIONAL LABORATORY).

          --------------------
          2 ELECTRON INTEGRALS
          --------------------

 DIRECT SCF METHOD SKIPS INTEGRAL STORAGE ON DISK.
 DIRECT TRANSFORMATION SKIPS AO INTEGRAL STORAGE ON DISK.
  ...... END OF TWO-ELECTRON INTEGRALS .....
 CPU     0: STEP CPU TIME=     0.02 TOTAL CPU TIME=          0.1 (      0.0 MIN)
 TOTAL WALL CLOCK TIME=          0.1 SECONDS, CPU UTILIZATION IS    80.00%

          --------------------------
             R-B3LYP SCF CALCULATION
          --------------------------

     NUCLEAR ENERGY =       816.4741506658
     MAXIT =   60     NPUNCH=    2
     EXTRAP=T  DAMP=F  SHIFT=F  RSTRCT=F  DIIS=T  DEM=F  SOSCF=F
         DENSITY MATRIX CONVERGENCE THRESHOLD=  2.00E-05
     COARSE -> FINE DFT GRID SWITCH THRESHOLD=  3.00E-04 (SWITCH IN $DFT)
                   HF -> DFT SWITCH THRESHOLD=  5.00E-03 (SWOFF IN $DFT)
     MEMORY REQUIRED FOR RHF ITERS=    955663 WORDS.

 DIRECT SCF CALCULATION, SCHWRZ=T   FDIFF=T,  DIRTHR=  0.00E+00 NITDIR=10
 SCHWARZ INEQUALITY OVERHEAD:      7999 INTEGRALS, T=        0.00

 DFT CODE IS SWITCHING FROM THE FINE GRID NRAD= 96,  NLEB=  302
                      TO THE COARSE GRID NRAD0= 24, NLEB0=  110

     EXCHANGE FUNCTIONAL   =B88&HFX   
     CORRELATION FUNCTIONAL=LYP88&VWN5
     DFT THRESHOLD         =.575E-08
     GRID CHANGE THRESHOLD =.300E-03
 FOR AN EULER-MACLAURIN QUADRATURE USING  96 RADIAL POINTS:
 SMALLEST GAUSSIAN PRIMITIVE EXPONENT=        0.1831915800 OF TYPE -S-
 ON ATOM NUMBER   4 HAS RADIAL NORMALIZATION=  1.000000
  LARGEST GAUSSIAN PRIMITIVE EXPONENT=      322.0370000000 OF TYPE -S-
 ON ATOM NUMBER   1 HAS RADIAL NORMALIZATION=  1.000000
 DFT IS SWITCHED OFF, PERFORMING PURE SCF UNTIL SWOFF THRESHOLD IS REACHED.

                                                                                   NONZERO     BLOCKS
 ITER EX DEM     TOTAL ENERGY        E CHANGE  DENSITY CHANGE    DIIS ERROR      INTEGRALS    SKIPPED
   1  0  0     -677.6698140501  -677.6698140501   0.787751290   0.555338860       20264151     888854
          * * *   INITIATING DIIS PROCEDURE   * * *
   2  1  0     -679.4297612415    -1.7599471914   0.133447969   0.078108664       20239623     901873
   3  2  0     -679.5201481976    -0.0903869560   0.091480711   0.042783245       19996274     949824
   4  3  0     -679.5341652473    -0.0140170497   0.019691113   0.013738013       19738541     983165
   5  4  0     -679.5367600504    -0.0025948031   0.004489641   0.002124577       19287132    1018365
 CONVERGED TO SWOFF, SO DFT CALCULATION IS NOW SWITCHED ON.
          * * *   INITIATING DIIS PROCEDURE   * * *
   6  5  0     -682.9322020547    -3.3954420043   0.139071710   0.054984937       20287117     878158
   7  6  0     -682.9826205677    -0.0504185130   0.121135750   0.031696169       20111805     934622
   8  7  0     -682.9840576823    -0.0014371146   0.064456144   0.029057509       19867909     966320
   9  8  0     -682.9929438663    -0.0088861840   0.005436919   0.006924607       19611752     994095
  10  9  0     -682.9932741049    -0.0003302386   0.000787089   0.000748604       18718525    1052848
  11 10  0     -682.9932780667    -0.0000039618   0.000211334   0.000291297       17473475    1119071
 DFT CODE IS SWITCHING BACK TO THE FINE GRID
          * * *   INITIATING DIIS PROCEDURE   * * *
  12 11  0     -683.0013894974    -0.0081114307   0.002361541   0.002002144       20294708     873823
  13 12  0     -683.0014369044    -0.0000474070   0.001522515   0.000478453       18598699    1065983
  14 13  0     -683.0014368567     0.0000000476   0.000774587   0.000597188       17695664    1110820
  15 14  0     -683.0014406023    -0.0000037455   0.000105789   0.000099007       17108042    1140833
  16 15  0     -683.0014407170    -0.0000001147   0.000044502   0.000018240       15390858    1209191
  17 16  0     -683.0014407214    -0.0000000044   0.000011015   0.000011374       13828454    1274854
  18 17  0     -683.0014407218    -0.0000000005   0.000003426   0.000002283       12565397    1319245

          -----------------
          DENSITY CONVERGED
          -----------------
     TIME TO FORM FOCK OPERATORS=      23.1 SECONDS (       1.3 SEC/ITER)
     FOCK TIME ON FIRST ITERATION=       0.2, LAST ITERATION=       2.9
     TIME TO SOLVE SCF EQUATIONS=       0.3 SECONDS (       0.0 SEC/ITER)

 FINAL R-B3LYP ENERGY IS     -683.0014407218 AFTER  18 ITERATIONS
 DFT EXCHANGE + CORRELATION ENERGY =       -71.1532342188
 TOTAL ELECTRON NUMBER             =        95.9999847836

          ------------
          EIGENVECTORS
          ------------

                      1          2          3          4          5
                  -19.0490   -19.0418   -19.0346   -19.0314   -19.0230
                     A          A          A          A          A   
    1  O  1  S    0.981898  -0.035733  -0.007788   0.003005   0.003143
    2  O  1  S    0.105866  -0.002559  -0.000467   0.000069  -0.000050
    3  O  1  X    0.003160   0.000358  -0.000215  -0.000071  -0.000042
    4  O  1  Y   -0.001166  -0.000175  -0.000393  -0.000044   0.000106
    5  O  1  Z    0.001952  -0.000325  -0.000210  -0.000091   0.000047
    6  O  1  S   -0.054009  -0.002548  -0.000063   0.001091   0.001414
    7  O  1  X   -0.008969  -0.002872   0.000431   0.000455   0.000428
    8  O  1  Y    0.007245   0.001963   0.001182  -0.000096  -0.000866
    9  O  1  Z   -0.005166   0.000977   0.000939   0.000513  -0.000132
   10  C  2  S   -0.001099  -0.000900   0.000160  -0.000080   0.000082
   11  C  2  S   -0.004269  -0.003556   0.000472  -0.000565   0.000164
   12  C  2  X    0.000064   0.001726   0.000529   0.000065  -0.000166
   13  C  2  Y    0.001262   0.000006   0.000517   0.000541   0.000384
   14  C  2  Z    0.000028  -0.000161   0.000428  -0.000058  -0.000151
   15  C  2  S    0.028221   0.019563  -0.004888   0.000250  -0.003493
   16  C  2  X   -0.007293   0.008884   0.004460   0.001214   0.000347
   17  C  2  Y    0.010213  -0.001367   0.002104  -0.002786  -0.000133
   18  C  2  Z   -0.011942  -0.007523  -0.004144   0.000238   0.003178
   19  C  3  S    0.000339   0.000122  -0.001063   0.000271  -0.000159
   20  C  3  S    0.001458   0.000065  -0.004614   0.001028  -0.001128
   21  C  3  X   -0.000008  -0.000600  -0.001211  -0.000212  -0.000701
   22  C  3  Y   -0.000557  -0.000512   0.000040   0.000456   0.000124
   23  C  3  Z   -0.000314  -0.000463  -0.000322  -0.000271   0.000198
   24  C  3  S   -0.010737  -0.004006   0.026385  -0.008022   0.002366
   25  C  3  X   -0.004274  -0.002221  -0.011232   0.000099   0.004929
   26  C  3  Y   -0.005945  -0.001605  -0.001156   0.005134   0.001289
   27  C  3  Z    0.001683   0.003589   0.012129   0.002095  -0.001555
   28  H  4  S    0.001135   0.000843  -0.000604   0.000914  -0.000821
   29  H  4  S    0.000891   0.001148   0.000838   0.001205   0.000035
   30  O  5  S    0.007754  -0.003888   0.982163  -0.024612   0.007713
   31  O  5  S    0.001201  -0.000464   0.105352  -0.002443   0.000409
   32  O  5  X    0.000121  -0.000132   0.002363   0.000126  -0.000034
   33  O  5  Y    0.000088  -0.000218   0.002182  -0.000436  -0.000015
   34  O  5  Z    0.000041   0.000010  -0.001988   0.000187   0.000079
   35  O  5  S   -0.001412  -0.000405  -0.052210   0.001467   0.001575
   36  O  5  X   -0.000215   0.000106  -0.009447  -0.000106   0.000635
   37  O  5  Y    0.000097   0.000851  -0.004213   0.001084   0.000005
   38  O  5  Z   -0.000161  -0.000079   0.005437  -0.000834  -0.000548
   39  C  6  S   -0.000205   0.000129   0.000283  -0.001071   0.000284
   40  C  6  S   -0.001298   0.001081   0.001183  -0.004580   0.001096
   41  C  6  X   -0.000191   0.000282   0.000357  -0.000633  -0.000521
   42  C  6  Y   -0.000439   0.000416  -0.000334  -0.000904   0.000069
   43  C  6  Z   -0.000123   0.000578   0.000238   0.000278   0.000269
   44  C  6  S    0.004867  -0.002495  -0.009425   0.026922  -0.008690
   45  C  6  X    0.004373  -0.001514   0.003603  -0.006131  -0.005766
   46  C  6  Y    0.002916  -0.002672  -0.005663  -0.010085   0.002337
   47  C  6  Z    0.000345  -0.004610  -0.001405  -0.010889  -0.001488
   48  H  7  S   -0.000748   0.000941   0.000899  -0.000786   0.000896
   49  H  7  S    0.000108   0.002100   0.000825   0.000413   0.001044
   50  O  8  S   -0.002448   0.010499   0.024772   0.982109  -0.011066
   51  O  8  S   -0.000465   0.001599   0.002880   0.105398  -0.000931
   52  O  8  X   -0.000038   0.000111  -0.000053  -0.000680   0.000462
   53  O  8  Y    0.000046   0.000165   0.000176   0.003223  -0.000112
   54  O  8  Z   -0.000109  -0.000045  -0.000032   0.001877  -0.000145
   55  O  8  S    0.001337  -0.002456  -0.001728  -0.052290   0.000582
   56  O  8  X    0.000175  -0.000746  -0.000061  -0.001044  -0.001109
   57  O  8  Y    0.000122  -0.001030  -0.000086  -0.010611   0.000477
   58  O  8  Z    0.000533   0.000164   0.000217  -0.005071   0.000640
   59  C  9  S    0.000175   0.000064  -0.000152   0.000280  -0.001086
   60  C  9  S    0.000860  -0.000269  -0.001120   0.001123  -0.004765
   61  C  9  X    0.000233  -0.000342   0.000429   0.000440   0.000315
   62  C  9  Y   -0.000205  -0.000737  -0.000577   0.000130  -0.001190
   63  C  9  Z    0.000386  -0.000393   0.000177  -0.000286  -0.000373
   64  C  9  S   -0.006349  -0.002606   0.002461  -0.009256   0.026655
   65  C  9  X    0.000869   0.000520  -0.001348   0.005659   0.004903
   66  C  9  Y   -0.000607  -0.001991   0.005235   0.000412  -0.011177
   67  C  9  Z   -0.004645   0.003303  -0.001483   0.001394   0.012004
   68  H 10  S   -0.000202   0.000621  -0.000809   0.000922  -0.000651
   69  H 10  S   -0.001279   0.001138  -0.000055   0.000963   0.001046
   70  O 11  S   -0.003379  -0.001112  -0.007517   0.011277   0.982445
   71  O 11  S   -0.000770  -0.000130  -0.001215   0.001493   0.105521
   72  O 11  X    0.000071  -0.000174  -0.000032  -0.000151  -0.003368
   73  O 11  Y   -0.000151  -0.000200  -0.000068   0.000039   0.001122
   74  O 11  Z   -0.000095  -0.000009   0.000116   0.000092  -0.001616
   75  O 11  S    0.001793  -0.000522   0.002459  -0.001138  -0.052773
   76  O 11  X   -0.000551   0.000790  -0.000173   0.000033   0.009209
   77  O 11  Y    0.001120   0.000405   0.000718  -0.000021  -0.006467
   78  O 11  Z    0.000346   0.000008  -0.000624  -0.000412   0.004550
   79  C 12  S   -0.000103  -0.000840   0.000107  -0.000081   0.000178
   80  C 12  S   -0.000733  -0.003490   0.000402  -0.000533   0.000575
   81  C 12  X    0.000665  -0.000843   0.000508   0.000661   0.000178
   82  C 12  Y   -0.000466   0.001314   0.000011   0.000301   0.000549
   83  C 12  Z   -0.000202   0.000175  -0.000274  -0.000042   0.000612
   84  C 12  S    0.001703   0.017721  -0.004504   0.000279  -0.005355
   85  C 12  X   -0.004687  -0.003860  -0.000805  -0.004600   0.000687
   86  C 12  Y   -0.001122   0.008388  -0.000212  -0.000340   0.006051
   87  C 12  Z    0.002091  -0.006910   0.003554  -0.000046  -0.004856
   88  H 13  S   -0.000639  -0.000740  -0.000202  -0.000224   0.001121
   89  H 13  S   -0.000290  -0.000058  -0.001026   0.000225   0.001922
   90  O 14  S    0.036150   0.981964   0.003328  -0.010358   0.001379
   91  O 14  S    0.005322   0.106668   0.000291  -0.000606   0.000093
   92  O 14  X   -0.000629  -0.001777  -0.000054  -0.000018   0.000346
   93  O 14  Y    0.000390  -0.002338   0.000333  -0.000064   0.000068
   94  O 14  Z   -0.000145   0.002259   0.000072   0.000129   0.000074
   95  O 14  S   -0.007303  -0.056541  -0.000433  -0.001642  -0.000592
   96  O 14  X    0.004756   0.005533   0.000982   0.000448  -0.002072
   97  O 14  Y   -0.002361   0.006828  -0.001723   0.000897   0.000310
   98  O 14  Z    0.000449  -0.006245  -0.000312  -0.000750  -0.000282
   99  C 15  S   -0.000042   0.000179  -0.000093  -0.000044   0.000093
  100  C 15  S   -0.000178   0.000737  -0.000513  -0.000197   0.000776
  101  C 15  X   -0.000200   0.000513  -0.000059  -0.000218  -0.000154
  102  C 15  Y    0.000125  -0.000050  -0.000006  -0.000100  -0.000055
  103  C 15  Z   -0.000020  -0.000439   0.000055  -0.000069  -0.000290
  104  C 15  S    0.002810  -0.005298   0.003105   0.002694  -0.002421
  105  C 15  X   -0.001127   0.003161  -0.001785  -0.000308   0.001239
  106  C 15  Y   -0.000313  -0.002409   0.000304   0.000789  -0.000613
  107  C 15  Z    0.000720   0.002629  -0.000208   0.001493   0.002558
  108  O 16  S   -0.000132   0.001393   0.000561   0.002290   0.005061
  109  O 16  S   -0.000020   0.000229   0.000115   0.000432   0.000691
  110  O 16  X    0.000055  -0.000195  -0.000029   0.000067  -0.000066
  111  O 16  Y   -0.000008  -0.000147   0.000016  -0.000033  -0.000087
  112  O 16  Z    0.000009   0.000121  -0.000005  -0.000057   0.000044
  113  O 16  S   -0.000098   0.000032  -0.000228  -0.001038  -0.000756
  114  O 16  X   -0.000161   0.000414   0.000221  -0.000031   0.000301
  115  O 16  Y    0.000098   0.000513  -0.000030   0.000349   0.000442
  116  O 16  Z   -0.000007  -0.000614   0.000061   0.000344  -0.000220
  117  H 17  S   -0.000657  -0.000973   0.000920  -0.000343  -0.000217
  118  H 17  S    0.000392  -0.000195   0.001698   0.000218  -0.000961
  119  H 18  S   -0.000315  -0.000465   0.003205  -0.000532  -0.000210
  120  H 18  S    0.000680   0.000494   0.005387  -0.000539   0.000580
  121  H 19  S    0.000059   0.000067  -0.000330   0.003262  -0.000535
  122  H 19  S   -0.000017  -0.000468   0.000955   0.005333  -0.000455
  123  H 20  S   -0.000057   0.000290  -0.000002  -0.000490   0.003330
  124  H 20  S    0.000324  -0.000152   0.000099   0.001112   0.005468
  125  H 21  S   -0.000147  -0.000239  -0.000147   0.000031  -0.000483
  126  H 21  S   -0.000264  -0.000275   0.000259  -0.000256   0.000600
  127  H 22  S   -0.000041   0.000733  -0.000231   0.000056   0.000501
  128  H 22  S    0.000157   0.001766  -0.000420   0.000188   0.001435
  129  H 23  S    0.000052  -0.000163  -0.000045   0.000185  -0.000005
  130  H 23  S    0.000116  -0.000386   0.000128  -0.000076  -0.000206
  131  H 24  S    0.003447   0.000440  -0.000395  -0.000268  -0.000056
  132  H 24  S    0.004439  -0.001067  -0.000702   0.000389   0.000305

                      6          7          8          9         10
                  -19.0154   -10.2253   -10.1744   -10.1734   -10.1723
                     A          A          A          A          A   
    1  O  1  S    0.000160  -0.000047  -0.000041  -0.000093   0.000045
    2  O  1  S   -0.000018  -0.000128  -0.000414  -0.000826   0.000090
    3  O  1  X   -0.000015   0.000275   0.000044   0.000054   0.000058
    4  O  1  Y   -0.000001  -0.000188   0.000122   0.000278   0.000516
    5  O  1  Z    0.000013   0.000370  -0.000117   0.000079  -0.000016
    6  O  1  S    0.000122   0.006652   0.002124   0.003288  -0.001528
    7  O  1  X    0.000093  -0.000055  -0.000101   0.000024  -0.000206
    8  O  1  Y   -0.000082  -0.002647  -0.000734  -0.002103  -0.000341
    9  O  1  Z   -0.000040  -0.000484   0.000644  -0.000142  -0.000052
   10  C  2  S    0.000083   0.986675   0.005585   0.001953   0.009087
   11  C  2  S    0.000417   0.113600  -0.002856  -0.000728  -0.003914
   12  C  2  X   -0.000086   0.000557  -0.000762   0.000492  -0.000134
   13  C  2  Y   -0.000037  -0.001487   0.000721   0.001233  -0.000049
   14  C  2  Z    0.000034   0.000078  -0.000500  -0.000454  -0.000309
   15  C  2  S   -0.002281  -0.092244   0.012481  -0.004490   0.032878
   16  C  2  X   -0.000057   0.004524   0.005049   0.003118  -0.008059
   17  C  2  Y    0.000870   0.017228  -0.007796  -0.000243  -0.016231
   18  C  2  Z    0.000262   0.001059   0.001577   0.004137  -0.003894
   19  C  3  S   -0.000031  -0.010889   0.056770  -0.272709   0.871054
   20  C  3  S   -0.000163  -0.005898   0.008512  -0.035203   0.104264
   21  C  3  X    0.000044  -0.000152   0.000007   0.000085   0.001660
   22  C  3  Y    0.000012   0.000089  -0.000557  -0.000173  -0.000426
   23  C  3  Z   -0.000115  -0.000478  -0.000100  -0.000073   0.000585
   24  C  3  S    0.001072   0.033371  -0.016659   0.057664  -0.096760
   25  C  3  X    0.000363   0.011845  -0.005471   0.010622  -0.014634
   26  C  3  Y    0.000782   0.013540   0.003354  -0.016252  -0.002024
   27  C  3  Z    0.001218   0.008570  -0.002315   0.004797  -0.007090
   28  H  4  S    0.000062  -0.002071   0.000758  -0.002142   0.000749
   29  H  4  S    0.000473   0.003141   0.000643  -0.003791   0.014455
   30  O  5  S   -0.000522   0.000037  -0.000014   0.000115  -0.000129
   31  O  5  S   -0.000003  -0.000030  -0.000039   0.000589  -0.000596
   32  O  5  X    0.000022  -0.000314   0.000000  -0.000395   0.000223
   33  O  5  Y    0.000040  -0.000081  -0.000110   0.000138  -0.000066
   34  O  5  Z    0.000020   0.000109  -0.000111   0.000099  -0.000422
   35  O  5  S   -0.000220  -0.001535   0.000520  -0.005111   0.008016
   36  O  5  X   -0.000196  -0.000729   0.000556  -0.001424   0.003757
   37  O  5  Y   -0.000188  -0.000648   0.000213   0.000459   0.000247
   38  O  5  Z   -0.000089  -0.000475   0.000381   0.000332   0.000305
   39  C  6  S   -0.000050  -0.004658  -0.096651   0.932961   0.196036
   40  C  6  S   -0.000289  -0.002484  -0.012186   0.112652   0.021847
   41  C  6  X    0.000150   0.000329  -0.000977   0.000639  -0.000102
   42  C  6  Y    0.000110  -0.001143  -0.000077   0.001050   0.000478
   43  C  6  Z    0.000155   0.000040   0.000196  -0.000615  -0.000034
   44  C  6  S    0.002643   0.004891   0.009978  -0.118251  -0.008869
   45  C  6  X    0.000646   0.003656  -0.004465  -0.009175  -0.017509
   46  C  6  Y   -0.001376   0.000064   0.003256  -0.016106   0.013485
   47  C  6  Z   -0.001914  -0.000234  -0.000632   0.010078   0.000196
   48  H  7  S    0.000151  -0.000272   0.000201   0.001876  -0.000738
   49  H  7  S    0.000359  -0.001313  -0.002740   0.014321   0.003990
   50  O  8  S   -0.002207  -0.000024  -0.000006  -0.000189  -0.000027
   51  O  8  S   -0.000041  -0.000296  -0.000175  -0.000944  -0.000207
   52  O  8  X   -0.000042   0.000022  -0.000325   0.000161   0.000063
   53  O  8  Y    0.000020  -0.000322  -0.000012   0.000351   0.000022
   54  O  8  Z    0.000017   0.000019   0.000045   0.000448   0.000025
   55  O  8  S   -0.000936   0.000438  -0.000406   0.010295   0.001974
   56  O  8  X   -0.000083  -0.000222   0.001330   0.002463   0.001254
   57  O  8  Y   -0.000396   0.001205  -0.000544   0.003806  -0.000348
   58  O  8  Z   -0.000140  -0.000049  -0.000322  -0.000398   0.000248
   59  C  9  S   -0.000110   0.001304  -0.151802  -0.152362  -0.410506
   60  C  9  S   -0.000728   0.001668  -0.022191  -0.020856  -0.051793
   61  C  9  X   -0.000640  -0.000236   0.000583  -0.000348   0.001297
   62  C  9  Y   -0.000139  -0.000494  -0.000228   0.000302  -0.001125
   63  C  9  Z    0.000121   0.000028  -0.000283  -0.000113  -0.000189
   64  C  9  S    0.001504  -0.010700   0.046979   0.046588   0.056372
   65  C  9  X    0.005231   0.003058   0.009674  -0.017163  -0.010313
   66  C  9  Y    0.000844  -0.003474   0.018132   0.002762   0.008594
   67  C  9  Z   -0.000195  -0.004460   0.006935   0.006172   0.003947
   68  H 10  S   -0.000393   0.000481  -0.002102  -0.001978  -0.001322
   69  H 10  S    0.000162  -0.001450  -0.001045  -0.001337  -0.007831
   70  O 11  S   -0.005034  -0.000031   0.000063   0.000088   0.000029
   71  O 11  S   -0.000321  -0.000275   0.000110   0.000409  -0.000103
   72  O 11  X    0.000007   0.000006  -0.000034   0.000068   0.000355
   73  O 11  Y   -0.000001  -0.000178  -0.000647  -0.000227  -0.000263
   74  O 11  Z   -0.000065  -0.000159   0.000012   0.000078   0.000208
   75  O 11  S   -0.000872   0.000865  -0.002952  -0.003612  -0.002862
   76  O 11  X   -0.000105  -0.000288   0.000422   0.001812   0.000015
   77  O 11  Y   -0.000498   0.001078  -0.000045  -0.000906  -0.000861
   78  O 11  Z    0.000429   0.000692   0.000109  -0.000037  -0.000395
   79  C 12  S    0.000302  -0.006429   0.968925   0.084841  -0.094648
   80  C 12  S    0.001337  -0.004197   0.116204   0.009474  -0.008943
   81  C 12  X   -0.000387   0.001844  -0.000798   0.001175   0.000121
   82  C 12  Y   -0.000291  -0.000526  -0.000269   0.000783   0.000358
   83  C 12  Z    0.000056  -0.000735  -0.000364  -0.000756   0.000333
   84  C 12  S   -0.010526   0.010534  -0.114736  -0.014130  -0.006398
   85  C 12  X   -0.005265  -0.014712   0.002173  -0.005420   0.009244
   86  C 12  Y    0.001071   0.002097   0.011832   0.001891   0.005430
   87  C 12  Z    0.000440   0.004079   0.007633   0.005347   0.001168
   88  H 13  S    0.000526  -0.001498   0.001610  -0.000247   0.001439
   89  H 13  S    0.000903  -0.003265   0.016086  -0.001104  -0.002511
   90  O 14  S   -0.001381  -0.000075  -0.000163   0.000061   0.000039
   91  O 14  S   -0.000100  -0.000242  -0.000696   0.000850   0.000088
   92  O 14  X    0.000318  -0.000333  -0.000068  -0.000288   0.000283
   93  O 14  Y   -0.000038  -0.000254  -0.000438  -0.000481  -0.000051
   94  O 14  Z   -0.000049   0.000703   0.000663   0.000163  -0.000078
   95  O 14  S    0.000391   0.007068   0.009042  -0.001122  -0.001665
   96  O 14  X   -0.000837  -0.004464   0.004748   0.001448   0.000837
   97  O 14  Y   -0.000050   0.002236  -0.004489   0.001461   0.000208
   98  O 14  Z    0.000210  -0.001416  -0.001353  -0.001087  -0.000019
   99  C 15  S   -0.000919  -0.001185  -0.025793  -0.011830   0.009002
  100  C 15  S   -0.003739  -0.001051  -0.005954  -0.003099   0.001731
  101  C 15  X    0.001152  -0.000226  -0.000323   0.000095  -0.000228
  102  C 15  Y    0.000944   0.000200  -0.000340   0.000152   0.000044
  103  C 15  Z    0.000611  -0.000218  -0.000160   0.000066  -0.000062
  104  C 15  S    0.022327   0.008077   0.028325   0.010980  -0.004969
  105  C 15  X    0.001800  -0.002931  -0.014858  -0.006088   0.001887
  106  C 15  Y    0.007362  -0.001264  -0.000200  -0.001260  -0.001097
  107  C 15  Z    0.008124   0.003057   0.005014   0.000856  -0.000613
  108  O 16  S    0.982420   0.000020   0.000077   0.000007  -0.000006
  109  O 16  S    0.104539   0.000149   0.000404   0.000005   0.000031
  110  O 16  X    0.000748   0.000036   0.000314   0.000030  -0.000222
  111  O 16  Y   -0.002393  -0.000060   0.000107   0.000050  -0.000026
  112  O 16  Z   -0.002806   0.000029   0.000100   0.000043   0.000049
  113  O 16  S   -0.048634  -0.000778  -0.002725  -0.000194   0.000388
  114  O 16  X    0.000595   0.000065   0.000412   0.000217   0.000653
  115  O 16  Y    0.007015   0.000509   0.000431  -0.000053  -0.000036
  116  O 16  Z    0.007263  -0.000026   0.000046  -0.000144  -0.000360
  117  H 17  S    0.000175   0.000739  -0.001554  -0.000246  -0.002603
  118  H 17  S    0.000025   0.016995  -0.002101  -0.002567   0.000615
  119  H 18  S    0.000058  -0.000540  -0.000188   0.000368  -0.000324
  120  H 18  S   -0.000077   0.001129   0.000132   0.000626   0.002079
  121  H 19  S    0.000112  -0.000581   0.000360  -0.000198  -0.000334
  122  H 19  S   -0.000053   0.001554  -0.000241   0.001619   0.000271
  123  H 20  S    0.000066   0.000028   0.000482   0.000057  -0.000513
  124  H 20  S   -0.000072   0.000212   0.001379   0.000007   0.000822
  125  H 21  S   -0.001219  -0.000537  -0.001282  -0.000770   0.000107
  126  H 21  S   -0.001251  -0.000800  -0.000203  -0.000033  -0.000191
  127  H 22  S   -0.001211  -0.000050  -0.001764  -0.000740   0.000182
  128  H 22  S   -0.000596   0.000791   0.001083  -0.000191   0.000713
  129  H 23  S    0.003198   0.000063   0.000198  -0.000097  -0.000263
  130  H 23  S    0.005549   0.000183   0.001147   0.000587  -0.000219
  131  H 24  S   -0.000020  -0.000221  -0.000046   0.000082   0.000286
  132  H 24  S   -0.000029   0.002148   0.000651   0.000533   0.001784

                     11         12         13         14         15
                  -10.1711   -10.1606    -1.0636    -1.0256    -1.0141
                     A          A          A          A          A   
    1  O  1  S    0.000031  -0.000000  -0.143799   0.062048  -0.061662
    2  O  1  S    0.000122  -0.000020   0.132952  -0.056971   0.057564
    3  O  1  X    0.000097   0.000024   0.058874  -0.026182   0.018022
    4  O  1  Y    0.000277   0.000002  -0.018824   0.001142  -0.003243
    5  O  1  Z    0.000040  -0.000067   0.036402  -0.015135   0.015913
    6  O  1  S   -0.001226   0.000243   0.438079  -0.197729   0.194893
    7  O  1  X   -0.000445  -0.000140   0.067583  -0.030730   0.017901
    8  O  1  Y   -0.000311   0.000069  -0.026568   0.008074  -0.009879
    9  O  1  Z   -0.000350   0.000304   0.037895  -0.018369   0.017184
   10  C  2  S    0.004672   0.000990  -0.099015   0.020533  -0.001542
   11  C  2  S   -0.001353  -0.001288   0.109634  -0.022058   0.001423
   12  C  2  X    0.000026   0.000085   0.014890  -0.006109  -0.058291
   13  C  2  Y    0.000275   0.000246   0.034586  -0.032936   0.022910
   14  C  2  Z    0.000190  -0.000129  -0.040774   0.011556   0.000786
   15  C  2  S    0.010957   0.006237   0.147968  -0.030735  -0.010737
   16  C  2  X   -0.004235   0.001290  -0.002388  -0.011389  -0.007502
   17  C  2  Y   -0.003937  -0.003229  -0.015488   0.012022   0.000574
   18  C  2  Z   -0.001245  -0.000391   0.023927  -0.005926   0.018732
   19  C  3  S    0.371745  -0.000558  -0.042112  -0.043698  -0.047889
   20  C  3  S    0.040747   0.000596   0.042193   0.045850   0.048697
   21  C  3  X   -0.000555  -0.000211   0.002194  -0.028612  -0.058742
   22  C  3  Y    0.000607   0.000050   0.016941  -0.020243   0.008719
   23  C  3  Z    0.000545  -0.000021   0.013063   0.016533   0.022952
   24  C  3  S   -0.027933  -0.005550   0.069843   0.073855   0.083101
   25  C  3  X    0.000780  -0.001884   0.009973  -0.003949   0.013081
   26  C  3  Y   -0.005522  -0.000063   0.011261  -0.012912   0.019130
   27  C  3  Z   -0.004417  -0.001477  -0.019749  -0.004596  -0.011872
   28  H  4  S   -0.001006   0.000206   0.010802   0.012553   0.011169
   29  H  4  S    0.004101  -0.000184  -0.010615  -0.006468  -0.008855
   30  O  5  S   -0.000117  -0.000023  -0.048497  -0.093287  -0.143545
   31  O  5  S   -0.000977  -0.000214   0.045179   0.087586   0.133734
   32  O  5  X   -0.000318  -0.000115   0.015843   0.024614   0.032254
   33  O  5  Y    0.000307   0.000047   0.016223   0.024740   0.047413
   34  O  5  Z   -0.000208  -0.000054  -0.012101  -0.022741  -0.034371
   35  O  5  S    0.005615   0.000659   0.146095   0.282323   0.444363
   36  O  5  X    0.003354   0.000720   0.018205   0.026409   0.043986
   37  O  5  Y   -0.001064  -0.000199   0.013781   0.024936   0.045145
   38  O  5  Z    0.000112   0.000194  -0.012468  -0.023869  -0.038166
   39  C  6  S    0.237315   0.012085  -0.021187  -0.073099   0.006416
   40  C  6  S    0.024200  -0.000445   0.022365   0.073729  -0.007160
   41  C  6  X    0.000272  -0.000277  -0.002068  -0.026066  -0.020426
   42  C  6  Y    0.000383  -0.000104   0.005189  -0.038983   0.014514
   43  C  6  Z   -0.000363   0.000064  -0.006109  -0.024856   0.003515
   44  C  6  S    0.007301   0.008325   0.030028   0.125944  -0.001787
   45  C  6  X    0.010772   0.003773  -0.009679   0.005402  -0.024896
   46  C  6  Y    0.000895   0.001982   0.005501   0.011884   0.007043
   47  C  6  Z   -0.000720  -0.001479   0.010352   0.017978  -0.008751
   48  H  7  S   -0.002437  -0.000614   0.006435   0.019667  -0.001557
   49  H  7  S    0.004092   0.000336  -0.006270  -0.012572   0.003937
   50  O  8  S    0.000004   0.000003  -0.021727  -0.150806   0.009741
   51  O  8  S   -0.000167  -0.000028   0.020322   0.140626  -0.007700
   52  O  8  X   -0.000423  -0.000087  -0.001970  -0.019848  -0.003535
   53  O  8  Y   -0.000283   0.000008   0.009895   0.058396  -0.001735
   54  O  8  Z    0.000183  -0.000024   0.005119   0.034460  -0.001867
   55  O  8  S    0.000849   0.000055   0.064326   0.460941  -0.036252
   56  O  8  X    0.001202   0.000182  -0.000873  -0.013294  -0.003050
   57  O  8  Y    0.001062  -0.000152   0.010056   0.065109  -0.003849
   58  O  8  Z   -0.000510   0.000145   0.004608   0.037328  -0.003401
   59  C  9  S    0.871484   0.018857  -0.019836  -0.047843   0.049925
   60  C  9  S    0.101070   0.000790   0.019688   0.049636  -0.051590
   61  C  9  X   -0.000161  -0.001334   0.000031  -0.004254  -0.019337
   62  C  9  Y    0.000608  -0.000496   0.008355  -0.030610   0.022953
   63  C  9  Z    0.000794   0.000366   0.004907   0.016854  -0.018754
   64  C  9  S   -0.083297  -0.000791   0.041187   0.080347  -0.079037
   65  C  9  X    0.000407   0.006513  -0.014368  -0.012739   0.017875
   66  C  9  Y   -0.007270   0.000981   0.003801  -0.008098  -0.020507
   67  C  9  Z   -0.007812  -0.001617   0.003419  -0.011941   0.021225
   68  H 10  S   -0.000503  -0.000475   0.006087   0.013388  -0.012454
   69  H 10  S    0.013187  -0.000737  -0.000397  -0.009345   0.012032
   70  O 11  S   -0.000184   0.000058  -0.016450  -0.090828   0.101426
   71  O 11  S   -0.001263   0.000575   0.015713   0.085626  -0.093112
   72  O 11  X   -0.000158   0.000321  -0.007312  -0.041953   0.043003
   73  O 11  Y   -0.000200   0.000197   0.003815   0.008122  -0.009600
   74  O 11  Z   -0.000394  -0.000054  -0.002977  -0.017780   0.019070
   75  O 11  S    0.010126  -0.001699   0.048003   0.271999  -0.319547
   76  O 11  X   -0.001306  -0.001487  -0.007700  -0.042959   0.048583
   77  O 11  Y    0.005080  -0.001325   0.000787   0.012783  -0.017323
   78  O 11  Z    0.000222   0.000485  -0.004899  -0.017558   0.023410
   79  C 12  S    0.136952   0.029763  -0.041512  -0.004905   0.050290
   80  C 12  S    0.012616   0.000784   0.045866   0.003192  -0.050384
   81  C 12  X    0.000139  -0.000688  -0.026044  -0.002607   0.015681
   82  C 12  Y   -0.000146   0.000077   0.030342  -0.016547  -0.017978
   83  C 12  Z   -0.000068   0.000354  -0.012467   0.000037   0.015266
   84  C 12  S    0.010678   0.021625   0.071469   0.019074  -0.091967
   85  C 12  X   -0.011442   0.017584   0.022439   0.008546  -0.006270
   86  C 12  Y   -0.011798   0.000992  -0.010055  -0.007765   0.016447
   87  C 12  Z   -0.001628  -0.006038  -0.006095   0.001998  -0.016832
   88  H 13  S   -0.001773  -0.001347   0.013045   0.001197  -0.013681
   89  H 13  S    0.002533   0.002278  -0.000563  -0.001054   0.010313
   90  O 14  S   -0.000026   0.000062  -0.131309   0.023510   0.095754
   91  O 14  S   -0.000596   0.000215   0.119414  -0.022353  -0.088852
   92  O 14  X    0.000044  -0.000651  -0.039688   0.009158   0.010154
   93  O 14  Y    0.000280   0.000169  -0.029989  -0.000078   0.033760
   94  O 14  Z    0.000032   0.000106   0.035166  -0.006809  -0.025292
   95  O 14  S    0.001272  -0.002176   0.402518  -0.067052  -0.297186
   96  O 14  X    0.000921   0.001578  -0.046167   0.009707   0.010719
   97  O 14  Y    0.000040  -0.000092  -0.033737  -0.000016   0.042497
   98  O 14  Z   -0.000021  -0.000498   0.041257  -0.003741  -0.031534
   99  C 15  S   -0.023828   0.985779  -0.011014  -0.001862   0.028061
  100  C 15  S   -0.004489   0.112489   0.012028   0.003570  -0.028464
  101  C 15  X    0.000861  -0.000776  -0.006213  -0.000592   0.002618
  102  C 15  Y    0.000230  -0.000484   0.003465  -0.001158  -0.011500
  103  C 15  Z    0.000095  -0.000137   0.004033   0.000845  -0.012072
  104  C 15  S    0.008068  -0.091560   0.001288  -0.007056  -0.046374
  105  C 15  X   -0.004536   0.012188   0.003634   0.002178   0.007315
  106  C 15  Y    0.000663   0.003596   0.010882  -0.002156  -0.007646
  107  C 15  Z   -0.000490  -0.001281  -0.010102  -0.004375   0.010503
  108  O 16  S   -0.000022  -0.000113  -0.010878  -0.001715   0.047675
  109  O 16  S   -0.000339  -0.000488   0.010320   0.001128  -0.044824
  110  O 16  X    0.000418  -0.000022  -0.000775   0.000228  -0.004354
  111  O 16  Y    0.000065  -0.000378  -0.003399  -0.000559   0.013741
  112  O 16  Z   -0.000019  -0.000418  -0.004215  -0.000458   0.016835
  113  O 16  S    0.000512   0.007994   0.031410   0.007484  -0.143766
  114  O 16  X   -0.001386  -0.002774   0.000295  -0.000325  -0.004759
  115  O 16  Y   -0.000289  -0.001554  -0.004406  -0.001583   0.016255
  116  O 16  Z    0.000192  -0.000592  -0.002713  -0.001401   0.016942
  117  H 17  S   -0.000537  -0.000485   0.026410  -0.004193  -0.001010
  118  H 17  S   -0.000699  -0.000479  -0.015321   0.004655  -0.006964
  119  H 18  S    0.000073   0.000016   0.024001   0.043305   0.070783
  120  H 18  S    0.002223   0.000210   0.005577   0.004829   0.018197
  121  H 19  S    0.000161   0.000060   0.010322   0.072498  -0.001855
  122  H 19  S    0.002238   0.000403   0.001981   0.016536   0.004010
  123  H 20  S   -0.000240  -0.000310   0.007102   0.045808  -0.047663
  124  H 20  S    0.003202  -0.000086   0.000113   0.012250  -0.010290
  125  H 21  S   -0.000763   0.000120   0.004554   0.001674  -0.009319
  126  H 21  S    0.001429   0.017111   0.003897   0.003705  -0.006113
  127  H 22  S   -0.000440   0.000107   0.002922   0.000815  -0.007613
  128  H 22  S   -0.001984   0.016620  -0.003371  -0.000936   0.005915
  129  H 23  S    0.000313  -0.000179   0.004524   0.000627  -0.022464
  130  H 23  S    0.000715   0.002208  -0.000321   0.000178  -0.004728
  131  H 24  S    0.000288  -0.000020   0.063454  -0.030100   0.029999
  132  H 24  S    0.000609   0.000199   0.014538  -0.009116   0.005916

                     16         17         18         19         20
                   -0.9999    -0.9918    -0.9888    -0.7897    -0.7708
                     A          A          A          A          A   
    1  O  1  S   -0.120721  -0.009296  -0.077118   0.002309  -0.042993
    2  O  1  S    0.113331   0.008413   0.072556  -0.002371   0.041077
    3  O  1  X    0.044820   0.000626   0.026286  -0.009924   0.009521
    4  O  1  Y    0.003038  -0.000727   0.003641  -0.014763   0.060452
    5  O  1  Z    0.029481   0.002503   0.018929   0.000226   0.004702
    6  O  1  S    0.382541   0.031412   0.245908  -0.005419   0.153211
    7  O  1  X    0.047330  -0.000228   0.027322  -0.007789   0.010818
    8  O  1  Y   -0.006891  -0.003091  -0.003707  -0.008858   0.040973
    9  O  1  Z    0.036176   0.003349   0.022922   0.002257   0.006594
   10  C  2  S   -0.005365   0.004853   0.007751  -0.020135   0.091415
   11  C  2  S    0.006306  -0.006667  -0.007844   0.027955  -0.091559
   12  C  2  X   -0.047739  -0.022396  -0.047677  -0.061293  -0.004242
   13  C  2  Y    0.059678   0.003601   0.039651  -0.051236   0.054076
   14  C  2  Z   -0.005223   0.003120   0.001828   0.005567   0.018197
   15  C  2  S    0.008664  -0.012105  -0.018109   0.012079  -0.241788
   16  C  2  X    0.013705  -0.000922   0.002451  -0.005812  -0.015021
   17  C  2  Y   -0.007508  -0.002558  -0.001865  -0.010416   0.034397
   18  C  2  Z    0.000081   0.004502   0.003744   0.008706  -0.001734
   19  C  3  S    0.031393  -0.015643   0.009867  -0.093826   0.084492
   20  C  3  S   -0.033084   0.018846  -0.010778   0.094377  -0.082893
   21  C  3  X    0.030271  -0.030894  -0.000074   0.067738  -0.056877
   22  C  3  Y   -0.002959   0.014455  -0.001358  -0.037001  -0.014924
   23  C  3  Z   -0.015496   0.010183  -0.003788   0.012717  -0.010754
   24  C  3  S   -0.057151   0.032795  -0.018012   0.227393  -0.217286
   25  C  3  X   -0.022498   0.002744  -0.009555   0.030008  -0.023773
   26  C  3  Y    0.011930   0.012032   0.009721   0.017957   0.007792
   27  C  3  Z    0.004463   0.008349  -0.001541   0.011620  -0.005486
   28  H  4  S   -0.007917   0.004957  -0.003259   0.046013  -0.042242
   29  H  4  S    0.004893  -0.000039   0.000249  -0.003933   0.006980
   30  O  5  S    0.096060  -0.078380   0.020199   0.046416  -0.040940
   31  O  5  S   -0.088674   0.074088  -0.018360  -0.042734   0.038276
   32  O  5  X   -0.019819   0.013987  -0.004204   0.036992  -0.035927
   33  O  5  Y   -0.031101   0.029968  -0.006399  -0.035379   0.027577
   34  O  5  Z    0.021963  -0.018008   0.004302   0.004995  -0.003185
   35  O  5  S   -0.305202   0.241981  -0.066154  -0.168693   0.148797
   36  O  5  X   -0.026898   0.017986  -0.005085   0.014860  -0.017887
   37  O  5  Y   -0.032566   0.031001  -0.007108  -0.028491   0.022056
   38  O  5  Z    0.027828  -0.020702   0.006612   0.006378  -0.005823
   39  C  6  S   -0.012461   0.035887  -0.002686  -0.117263   0.035994
   40  C  6  S    0.013328  -0.039421   0.005257   0.115426  -0.033822
   41  C  6  X   -0.000056   0.040788  -0.007119   0.050226   0.022661
   42  C  6  Y   -0.026404   0.041723  -0.012991   0.073203  -0.044326
   43  C  6  Z   -0.005481   0.018181  -0.002081  -0.014520   0.002310
   44  C  6  S    0.034192  -0.063679  -0.001495   0.295867  -0.098827
   45  C  6  X    0.007498  -0.007009  -0.009900   0.019810  -0.024293
   46  C  6  Y   -0.011112  -0.021986  -0.001347   0.037494   0.001127
   47  C  6  Z   -0.011324  -0.002379  -0.002964  -0.017959   0.003443
   48  H  7  S    0.004053  -0.009103   0.001273   0.058728  -0.018003
   49  H  7  S    0.001980   0.005410   0.001563  -0.002845   0.002375
   50  O  8  S   -0.050554   0.144498  -0.027547   0.057440  -0.018758
   51  O  8  S    0.047940  -0.134300   0.026040  -0.053469   0.018048
   52  O  8  X   -0.005622   0.029863  -0.005175   0.054220  -0.013995
   53  O  8  Y    0.016723  -0.050349   0.009051   0.017825  -0.007342
   54  O  8  Z    0.011286  -0.031379   0.006150  -0.007511   0.001710
   55  O  8  S    0.152541  -0.456177   0.084636  -0.206463   0.066907
   56  O  8  X   -0.006062   0.025467  -0.004272   0.033121  -0.009916
   57  O  8  Y    0.016041  -0.061643   0.009741  -0.000043  -0.002381
   58  O  8  Z    0.012203  -0.038147   0.006575  -0.007790   0.002727
   59  C  9  S   -0.019152  -0.044329   0.005160  -0.101606  -0.046598
   60  C  9  S    0.017725   0.048122  -0.005903   0.103459   0.047421
   61  C  9  X    0.002471   0.033738   0.001100  -0.046837   0.053834
   62  C  9  Y   -0.037642  -0.050723  -0.009926   0.065588   0.048270
   63  C  9  Z    0.009101   0.020310  -0.001697   0.013875   0.002936
   64  C  9  S    0.037354   0.084134   0.004113   0.236857   0.105681
   65  C  9  X    0.006890   0.005494  -0.008374   0.001441  -0.016227
   66  C  9  Y    0.006082   0.016232  -0.001209   0.027588  -0.007260
   67  C  9  Z   -0.001023   0.001833   0.010615   0.013741  -0.000518
   68  H 10  S    0.003601   0.012049  -0.001199   0.052435   0.024723
   69  H 10  S   -0.001684  -0.005606   0.003202  -0.002153  -0.002925
   70  O 11  S   -0.071199  -0.151173  -0.002589   0.057363   0.028062
   71  O 11  S    0.066844   0.140930   0.002455  -0.053288  -0.025830
   72  O 11  X   -0.031879  -0.061981  -0.001450   0.017210   0.020355
   73  O 11  Y    0.002348   0.008490  -0.000780   0.049454   0.038501
   74  O 11  Z   -0.013482  -0.027892  -0.000438   0.004275  -0.000330
   75  O 11  S    0.218313   0.471305   0.007399  -0.205490  -0.102822
   76  O 11  X   -0.034460  -0.068404   0.000991   0.021589   0.023552
   77  O 11  Y    0.007144   0.013955   0.001148   0.023358   0.025982
   78  O 11  Z   -0.014680  -0.033004  -0.001388   0.006278   0.002546
   79  C 12  S    0.039627  -0.000038   0.017619  -0.058547  -0.130155
   80  C 12  S   -0.037876  -0.001444  -0.020805   0.061539   0.123156
   81  C 12  X    0.004534   0.006045   0.035593  -0.011790   0.045324
   82  C 12  Y   -0.033908  -0.022886  -0.022980  -0.066671  -0.019540
   83  C 12  Z    0.012171   0.001132   0.008998  -0.004656  -0.027882
   84  C 12  S   -0.085445  -0.009761  -0.027796   0.128266   0.360276
   85  C 12  X    0.010915   0.001576   0.022730  -0.002515  -0.012961
   86  C 12  Y   -0.005907  -0.008353   0.013786  -0.008148  -0.022217
   87  C 12  Z   -0.000222   0.013989   0.001950  -0.004690  -0.015039
   88  H 13  S   -0.010955  -0.000745  -0.004681   0.032678   0.058519
   89  H 13  S    0.002651  -0.003832   0.002286  -0.001550  -0.012418
   90  O 14  S    0.090056   0.037948   0.089887   0.069456   0.011192
   91  O 14  S   -0.084187  -0.035397  -0.083128  -0.063176  -0.009914
   92  O 14  X    0.005561   0.007450   0.018157   0.012588   0.094431
   93  O 14  Y    0.035193   0.008829   0.028647  -0.019073  -0.048386
   94  O 14  Z   -0.023857  -0.010085  -0.023531  -0.014188  -0.007692
   95  O 14  S   -0.280263  -0.116270  -0.285477  -0.252637  -0.043644
   96  O 14  X    0.014586   0.012187   0.019223   0.011443   0.060571
   97  O 14  Y    0.036971   0.012805   0.035877  -0.004295  -0.023452
   98  O 14  Z   -0.030302  -0.012490  -0.031029  -0.019441  -0.005751
   99  C 15  S    0.043017  -0.003686  -0.060227  -0.027895  -0.090921
  100  C 15  S   -0.043956   0.003651   0.066050   0.031022   0.092161
  101  C 15  X   -0.010854   0.000800   0.043885  -0.026922  -0.077728
  102  C 15  Y   -0.027433  -0.001808   0.044056  -0.013836  -0.020422
  103  C 15  Z   -0.021139   0.001771   0.035594   0.002263   0.005317
  104  C 15  S   -0.082969   0.008187   0.100056   0.065483   0.232354
  105  C 15  X    0.001743  -0.006454   0.009205   0.006782  -0.019547
  106  C 15  Y   -0.000391  -0.000528  -0.015819  -0.016804  -0.021439
  107  C 15  Z    0.002449  -0.002422  -0.006584   0.003178  -0.001361
  108  O 16  S    0.101153  -0.005610  -0.187194   0.012995   0.044428
  109  O 16  S   -0.095602   0.005039   0.175786  -0.011944  -0.041822
  110  O 16  X   -0.014003   0.001069   0.033547  -0.013698  -0.055698
  111  O 16  Y    0.027858  -0.001652  -0.049603  -0.004046  -0.013869
  112  O 16  Z    0.035113  -0.001758  -0.063484   0.002311   0.004842
  113  O 16  S   -0.305602   0.018365   0.576015  -0.046693  -0.159094
  114  O 16  X   -0.011958   0.001432   0.026301  -0.008041  -0.040026
  115  O 16  Y    0.030686  -0.002733  -0.057843   0.000466  -0.002431
  116  O 16  Z    0.036688  -0.002652  -0.070975   0.003117   0.009585
  117  H 17  S   -0.000342  -0.002293  -0.003541   0.016345  -0.042829
  118  H 17  S   -0.001311   0.000014  -0.001351   0.001383   0.011927
  119  H 18  S   -0.046917   0.040971  -0.009752  -0.043949   0.038204
  120  H 18  S   -0.006257   0.008858   0.001222  -0.026696   0.025618
  121  H 19  S    0.023868  -0.072701   0.013972  -0.051450   0.014643
  122  H 19  S    0.000561  -0.014024   0.001519  -0.032761   0.011268
  123  H 20  S    0.036451   0.072480   0.002241  -0.048665  -0.033133
  124  H 20  S    0.009930   0.008370   0.002229  -0.033462  -0.015799
  125  H 21  S   -0.011540   0.002324   0.016898   0.017521   0.046920
  126  H 21  S    0.008346   0.008277  -0.009197  -0.015476  -0.012907
  127  H 22  S   -0.012386   0.000693   0.017442   0.014636   0.047039
  128  H 22  S    0.003351  -0.002199  -0.006184   0.000472  -0.001432
  129  H 23  S   -0.050269   0.002583   0.095795  -0.012667  -0.048055
  130  H 23  S   -0.011089   0.001188   0.023253  -0.008720  -0.026751
  131  H 24  S    0.062482   0.004310   0.040690  -0.009143   0.048548
  132  H 24  S    0.013872   0.001304   0.009204  -0.009102   0.025863

                     21         22         23         24         25
                   -0.6867    -0.6337    -0.6002    -0.5870    -0.5447
                     A          A          A          A          A   
    1  O  1  S    0.029610   0.030640   0.021961  -0.006798   0.017990
    2  O  1  S   -0.027455  -0.029892  -0.021146   0.007376  -0.017086
    3  O  1  X   -0.020121  -0.012487   0.025266   0.000735   0.071558
    4  O  1  Y   -0.101637  -0.136061  -0.046467  -0.015951   0.179954
    5  O  1  Z    0.006779   0.021195   0.017016  -0.041007   0.008791
    6  O  1  S   -0.116178  -0.118509  -0.086657   0.024038  -0.068338
    7  O  1  X   -0.021131  -0.010923   0.024884  -0.000139   0.068151
    8  O  1  Y   -0.076174  -0.110034  -0.036790  -0.012475   0.156287
    9  O  1  Z    0.002587   0.016820   0.013324  -0.037424   0.007006
   10  C  2  S   -0.087088  -0.100700  -0.049356   0.037229  -0.008601
   11  C  2  S    0.090327   0.095552   0.045926  -0.037783   0.005680
   12  C  2  X   -0.075383  -0.025511   0.075603   0.002404   0.152194
   13  C  2  Y   -0.039460   0.020839   0.058921   0.001210  -0.031199
   14  C  2  Z    0.001974   0.022315   0.022602  -0.143881   0.075741
   15  C  2  S    0.244452   0.358083   0.193879  -0.136823   0.040083
   16  C  2  X   -0.033262  -0.033554   0.032793   0.006034   0.098573
   17  C  2  Y   -0.024354  -0.043566   0.010036   0.018022  -0.016699
   18  C  2  Z    0.007361   0.027885   0.017326  -0.095843   0.052612
   19  C  3  S   -0.073982   0.061555   0.082101  -0.046716  -0.005534
   20  C  3  S    0.067904  -0.051627  -0.071730   0.042371   0.004302
   21  C  3  X    0.023582   0.028825   0.024561  -0.007270  -0.032644
   22  C  3  Y    0.077417   0.132031  -0.007001   0.015352  -0.092542
   23  C  3  Z    0.005661   0.004508   0.037824  -0.125645   0.076826
   24  C  3  S    0.244490  -0.233984  -0.323366   0.187828   0.027292
   25  C  3  X    0.018908  -0.014437  -0.014731   0.019021  -0.011137
   26  C  3  Y   -0.002721   0.034662   0.004585   0.009241  -0.078919
   27  C  3  Z    0.004735  -0.017105   0.018662  -0.075627   0.058024
   28  H  4  S    0.041392  -0.036521  -0.069975   0.093710  -0.038174
   29  H  4  S   -0.002988  -0.010464  -0.019868   0.048361  -0.021655
   30  O  5  S    0.034886  -0.010728  -0.023545   0.009123  -0.016211
   31  O  5  S   -0.032304   0.008970   0.021483  -0.009296   0.014562
   32  O  5  X    0.049515  -0.067933  -0.080721  -0.000204   0.073029
   33  O  5  Y   -0.019228   0.077877   0.053938   0.001641  -0.104188
   34  O  5  Z   -0.003637   0.012521   0.026926  -0.037499   0.012841
   35  O  5  S   -0.134824   0.050571   0.100082  -0.035352   0.064371
   36  O  5  X    0.031460  -0.049183  -0.062295   0.000477   0.059205
[...]
    702    6.17054   -0.60836    2.98316       -14.548153      14.511392      -0.036761
    703    6.17054   -0.60836    4.49494       -12.424642      12.400920      -0.023722
    704    6.17054   -0.60836    6.00672       -10.766334      10.751864      -0.014470
    705    6.17054    0.90342   -7.59931        -9.348155       9.350807       0.002652
    706    6.17054    0.90342   -6.08752       -10.642028      10.647884       0.005856
    707    6.17054    0.90342    4.49494       -12.602049      12.563444      -0.038604
    708    6.17054    0.90342    6.00672       -10.799133      10.780688      -0.018445
    709    6.17054    2.41520   -7.59931        -9.131789       9.133058       0.001268
    710    6.17054    2.41520   -6.08752       -10.314630      10.317188       0.002558
    711    6.17054    2.41520   -4.57574       -11.789440      11.794620       0.005180
    712    6.17054    2.41520    4.49494       -12.199181      12.155990      -0.043191
    713    6.17054    2.41520    6.00672       -10.515030      10.495103      -0.019927
    714    6.17054    3.92698   -6.08752        -9.771903       9.771165      -0.000738
    715    6.17054    3.92698   -4.57574       -10.947543      10.945036      -0.002507
    716    6.17054    3.92698   -3.06396       -12.270651      12.261919      -0.008732
    717    6.17054    3.92698   -1.55218       -13.672284      13.641689      -0.030595
    718    6.17054    3.92698    4.49494       -11.288436      11.255642      -0.032793
    719    6.17054    3.92698    6.00672        -9.959453       9.942251      -0.017202
    720    6.17054    5.43876   -4.57574       -10.015948      10.011098      -0.004851
    721    6.17054    5.43876   -3.06396       -10.928750      10.918524      -0.010227
    722    6.17054    5.43876   -1.55218       -11.729505      11.708608      -0.020897
    723    6.17054    5.43876   -0.04040       -12.182003      12.146344      -0.035660
    724    6.17054    5.43876    1.47138       -11.995541      11.954804      -0.040737
    725    6.17054    5.43876    2.98316       -11.218296      11.186482      -0.031814
    726    6.17054    5.43876    4.49494       -10.225925      10.205407      -0.020518
    727    6.17054    6.95054   -0.04040       -10.447083      10.430614      -0.016469
    728    6.17054    6.95054    1.47138       -10.316321      10.298257      -0.018063
    729    6.17054    6.95054    2.98316        -9.863518       9.847760      -0.015758
    730    7.68232   -6.65549   -1.55218        -9.568545       9.562069      -0.006475
    731    7.68232   -6.65549   -0.04040        -9.722769       9.713727      -0.009041
    732    7.68232   -6.65549    1.47138        -9.595604       9.585120      -0.010483
    733    7.68232   -5.14371   -4.57574        -9.344820       9.344572      -0.000249
    734    7.68232   -5.14371   -3.06396       -10.039613      10.038153      -0.001460
    735    7.68232   -5.14371   -1.55218       -10.570683      10.567414      -0.003269
    736    7.68232   -5.14371   -0.04040       -10.781258      10.775035      -0.006222
    737    7.68232   -5.14371    1.47138       -10.592751      10.583148      -0.009603
    738    7.68232   -5.14371    2.98316       -10.081797      10.071006      -0.010792
    739    7.68232   -3.63192   -4.57574       -10.010411      10.013303       0.002892
    740    7.68232   -3.63192   -3.06396       -10.923260      10.927027       0.003767
    741    7.68232   -3.63192   -1.55218       -11.670625      11.677400       0.006775
    742    7.68232   -3.63192    1.47138       -11.666572      11.662496      -0.004076
    743    7.68232   -3.63192    2.98316       -10.952660      10.942949      -0.009711
    744    7.68232   -3.63192    4.49494       -10.065527      10.055263      -0.010264
    745    7.68232   -2.12014   -6.08752        -9.491958       9.496474       0.004515
    746    7.68232   -2.12014   -4.57574       -10.581321      10.588041       0.006720
    747    7.68232   -2.12014   -3.06396       -11.768025      11.777924       0.009899
    748    7.68232   -2.12014    1.47138       -12.835195      12.835902       0.000707
    749    7.68232   -2.12014    2.98316       -11.816396      11.805267      -0.011130
    750    7.68232   -2.12014    4.49494       -10.661534      10.649293      -0.012241
    751    7.68232   -0.60836   -6.08752        -9.710567       9.716874       0.006306
    752    7.68232   -0.60836   -4.57574       -10.942117      10.952683       0.010565
    753    7.68232   -0.60836   -3.06396       -12.390606      12.408590       0.017985
    754    7.68232   -0.60836    2.98316       -12.650155      12.625786      -0.024369
    755    7.68232   -0.60836    4.49494       -11.118113      11.099285      -0.018828
    756    7.68232    0.90342   -6.08752        -9.699154       9.705705       0.006551
    757    7.68232    0.90342   -4.57574       -10.953645      10.965705       0.012060
    758    7.68232    0.90342   -3.06396       -12.486096      12.510494       0.024399
    759    7.68232    0.90342    4.49494       -11.296596      11.268353      -0.028243
    760    7.68232    0.90342    6.00672        -9.884108       9.868371      -0.015737
    761    7.68232    2.41520   -6.08752        -9.449571       9.454350       0.004779
    762    7.68232    2.41520   -4.57574       -10.583700      10.592273       0.008573
    763    7.68232    2.41520   -3.06396       -11.936036      11.952990       0.016954
    764    7.68232    2.41520    4.49494       -11.008644      10.978569      -0.030075
    765    7.68232    2.41520    6.00672        -9.666336       9.649798      -0.016538
    766    7.68232    3.92698   -6.08752        -9.016807       9.019036       0.002229
    767    7.68232    3.92698   -4.57574        -9.953130       9.956457       0.003327
    768    7.68232    3.92698   -3.06396       -10.984459      10.989046       0.004587
    769    7.68232    3.92698   -1.55218       -12.073273      12.077953       0.004681
    770    7.68232    3.92698    2.98316       -11.581367      11.547243      -0.034124
    771    7.68232    3.92698    4.49494       -10.294092      10.270685      -0.023407
    772    7.68232    5.43876   -3.06396        -9.945464       9.943664      -0.001800
    773    7.68232    5.43876   -1.55218       -10.589123      10.582988      -0.006135
    774    7.68232    5.43876   -0.04040       -10.961568      10.947399      -0.014169
    775    7.68232    5.43876    1.47138       -10.831767      10.810931      -0.020837
    776    7.68232    5.43876    2.98316       -10.226532      10.206043      -0.020489
    777    7.68232    5.43876    4.49494        -9.427117       9.411463      -0.015654
    778    7.68232    6.95054   -1.55218        -9.382772       9.376835      -0.005936
    779    7.68232    6.95054   -0.04040        -9.572389       9.562932      -0.009458
    780    7.68232    6.95054    1.47138        -9.476672       9.464813      -0.011860
    781    9.19410   -5.14371   -3.06396        -8.964632       8.965591       0.000958
    782    9.19410   -5.14371   -1.55218        -9.326340       9.326526       0.000185
    783    9.19410   -5.14371   -0.04040        -9.465941       9.464448      -0.001493
    784    9.19410   -5.14371    1.47138        -9.344942       9.341165      -0.003777
    785    9.19410   -3.63192   -3.06396        -9.600908       9.605978       0.005070
    786    9.19410   -3.63192   -1.55218       -10.079418      10.085134       0.005716
    787    9.19410   -3.63192   -0.04040       -10.269244      10.273329       0.004085
    788    9.19410   -3.63192    1.47138       -10.103495      10.103239      -0.000256
    789    9.19410   -3.63192    2.98316        -9.647594       9.643337      -0.004257
    790    9.19410   -2.12014   -4.57574        -9.388343       9.395725       0.007382
    791    9.19410   -2.12014   -3.06396       -10.167533      10.178410       0.010876
    792    9.19410   -2.12014   -1.55218       -10.803101      10.817652       0.014550
    793    9.19410   -2.12014   -0.04040       -11.079620      11.093241       0.013621
    794    9.19410   -2.12014    1.47138       -10.864164      10.869298       0.005134
    795    9.19410   -2.12014    2.98316       -10.260698      10.257470      -0.003228
    796    9.19410   -0.60836   -6.08752        -8.773853       8.780382       0.006528
    797    9.19410   -0.60836   -4.57574        -9.643110       9.653974       0.010864
    798    9.19410   -0.60836   -3.06396       -10.558284      10.577011       0.018727
    799    9.19410   -0.60836   -1.55218       -11.384537      11.416568       0.032031
    800    9.19410   -0.60836    1.47138       -11.588224      11.605274       0.017051
    801    9.19410   -0.60836    2.98316       -10.782643      10.779351      -0.003292
    802    9.19410   -0.60836    4.49494        -9.814341       9.805696      -0.008645
    803    9.19410    0.90342   -6.08752        -8.770483       8.777573       0.007090
    804    9.19410    0.90342   -4.57574        -9.660422       9.673169       0.012746
    805    9.19410    0.90342   -3.06396       -10.636570      10.662369       0.025799
    806    9.19410    0.90342    2.98316       -11.059700      11.056981      -0.002719
    807    9.19410    0.90342    4.49494        -9.925531       9.914415      -0.011116
    808    9.19410    2.41520   -4.57574        -9.416766       9.427913       0.011147
    809    9.19410    2.41520   -3.06396       -10.323944      10.347235       0.023291
    810    9.19410    2.41520    2.98316       -10.809028      10.806410      -0.002618
    811    9.19410    2.41520    4.49494        -9.718499       9.706686      -0.011814
    812    9.19410    3.92698   -4.57574        -8.967165       8.974188       0.007022
    813    9.19410    3.92698   -3.06396        -9.704213       9.716899       0.012685
    814    9.19410    3.92698   -1.55218       -10.401462      10.425356       0.023893
    815    9.19410    3.92698    2.98316       -10.053870      10.047382      -0.006488
    816    9.19410    3.92698    4.49494        -9.219453       9.208843      -0.010610
    817    9.19410    5.43876   -3.06396        -8.961280       8.965710       0.004431
    818    9.19410    5.43876   -1.55218        -9.423549       9.428787       0.005238
    819    9.19410    5.43876   -0.04040        -9.670671       9.673905       0.003233
    820    9.19410    5.43876    1.47138        -9.576715       9.574061      -0.002654
    821    9.19410    5.43876    2.98316        -9.161502       9.153962      -0.007540
    822    9.19410    6.95054   -1.55218        -8.534450       8.534193      -0.000257
    823    9.19410    6.95054   -0.04040        -8.678253       8.676079      -0.002174
    824    9.19410    6.95054    1.47138        -8.607210       8.602676      -0.004534
    825   10.70588   -3.63192   -1.55218        -8.803523       8.809191       0.005668
    826   10.70588   -3.63192   -0.04040        -8.928893       8.933492       0.004599
    827   10.70588   -3.63192    1.47138        -8.829790       8.831729       0.001939
    828   10.70588   -2.12014   -1.55218        -9.261147       9.273314       0.012167
    829   10.70588   -2.12014   -0.04040        -9.428629       9.440229       0.011600
    830   10.70588   -2.12014    1.47138        -9.311511       9.318410       0.006900
    831   10.70588   -2.12014    2.98316        -8.945855       8.947033       0.001178
    832   10.70588   -0.60836   -3.06396        -9.114360       9.129797       0.015437
    833   10.70588   -0.60836   -1.55218        -9.588899       9.611302       0.022403
    834   10.70588   -0.60836   -0.04040        -9.816633       9.841226       0.024593
    835   10.70588   -0.60836    1.47138        -9.689443       9.705119       0.015675
    836   10.70588   -0.60836    2.98316        -9.250613       9.254791       0.004177
    837   10.70588   -0.60836    4.49494        -8.652529       8.650436      -0.002093
    838   10.70588    0.90342   -4.57574        -8.540602       8.552035       0.011433
    839   10.70588    0.90342   -3.06396        -9.158074       9.177956       0.019882
    840   10.70588    0.90342   -1.55218        -9.689560       9.723464       0.033904
    841   10.70588    0.90342   -0.04040        -9.979438      10.023286       0.043847
    842   10.70588    0.90342    1.47138        -9.852957       9.880848       0.027891
    843   10.70588    0.90342    2.98316        -9.360035       9.367323       0.007288
    844   10.70588    0.90342    4.49494        -8.709050       8.707082      -0.001968
    845   10.70588    2.41520   -4.57574        -8.375113       8.385748       0.010635
    846   10.70588    2.41520   -3.06396        -8.961824       8.980658       0.018834
    847   10.70588    2.41520   -1.55218        -9.474364       9.507543       0.033179
    848   10.70588    2.41520    1.47138        -9.654738       9.682979       0.028242
    849   10.70588    2.41520    2.98316        -9.184124       9.191133       0.007009
    850   10.70588    2.41520    4.49494        -8.559145       8.556869      -0.002276
    851   10.70588    3.92698   -3.06396        -8.561416       8.574097       0.012682
    852   10.70588    3.92698   -1.55218        -8.980555       8.999994       0.019439
    853   10.70588    3.92698   -0.04040        -9.203884       9.226348       0.022464
    854   10.70588    3.92698    1.47138        -9.117300       9.131376       0.014075
    855   10.70588    3.92698    2.98316        -8.743754       8.746594       0.002840
    856   10.70588    3.92698    4.49494        -8.220174       8.217248      -0.002926
    857   10.70588    5.43876   -3.06396        -8.048107       8.054649       0.006542
    858   10.70588    5.43876   -1.55218        -8.361259       8.369487       0.008228
    859   10.70588    5.43876   -0.04040        -8.512968       8.520717       0.007749
    860   10.70588    5.43876    1.47138        -8.445784       8.449717       0.003933
    861   10.70588    5.43876    2.98316        -8.172025       8.171388      -0.000637
    862   12.21766   -0.60836   -1.55218        -8.271120       8.284935       0.013815
    863   12.21766   -0.60836   -0.04040        -8.397533       8.411577       0.014043
    864   12.21766   -0.60836    1.47138        -8.322115       8.332310       0.010194
    865   12.21766   -0.60836    2.98316        -8.061857       8.066529       0.004671
    866   12.21766    0.90342   -3.06396        -8.003564       8.016726       0.013162
    867   12.21766    0.90342   -1.55218        -8.310754       8.328505       0.017752
    868   12.21766    0.90342   -0.04040        -8.453449       8.472494       0.019044
    869   12.21766    0.90342    1.47138        -8.379383       8.393393       0.014010
    870   12.21766    0.90342    2.98316        -8.105666       8.112095       0.006429
    871   12.21766    2.41520   -3.06396        -7.871344       7.884020       0.012676
    872   12.21766    2.41520   -1.55218        -8.168638       8.185930       0.017293
    873   12.21766    2.41520   -0.04040        -8.309948       8.328676       0.018727
    874   12.21766    2.41520    1.47138        -8.242471       8.256244       0.013773
    875   12.21766    2.41520    2.98316        -7.980834       7.987058       0.006224
    876   12.21766    3.92698   -1.55218        -7.864139       7.876612       0.012472
    877   12.21766    3.92698   -0.04040        -7.985378       7.998283       0.012906
    878   12.21766    3.92698    1.47138        -7.927543       7.936866       0.009323
    879   12.21766    3.92698    2.98316        -7.701112       7.705166       0.004054
    880   12.21766    5.43876   -0.04040        -7.553440       7.560236       0.006796
    881   12.21766    5.43876    1.47138        -7.505273       7.509877       0.004603
    882   13.72944    2.41520   -0.04040        -7.273285       7.283140       0.009855

 NET CHARGES:
 -------------------------------------
 ATOM                CHARGE    E.S.D.
 -------------------------------------
 O                  -0.6514    0.0315
 C                   0.4352    0.3135
 C                   0.1110    0.3527
 H                   0.0637    0.0411
 O                  -0.6373    0.0385
 C                   0.2526    0.3931
 H                   0.0108    0.0475
 O                  -0.6503    0.0423
 C                   0.1304    0.3884
 H                   0.0351    0.0495
 O                  -0.6214    0.0422
 C                   0.1940    0.5635
 H                   0.0506    0.0532
 O                  -0.4620    0.0721
 C                   0.1942    0.2601
 O                  -0.6148    0.0227
 H                  -0.0043    0.0381
 H                   0.4275    0.0096
 H                   0.4332    0.0097
 H                   0.4264    0.0112
 H                   0.0224    0.0268
 H                   0.0147    0.0228
 H                   0.3973    0.0060
 H                   0.4425    0.0070
 -------------------------------------

 RMS DEVIATION IS            0.609 KCAL/MOLE
 RELATIVE RMS DEVIATION IS   7.524 %

 MULTIPOLE MOMENTS:
 ---------------------------------------------------------
 STATUS  ACTUAL VALUE       QUANTITY        FITTED VALUE 
 ---------------------------------------------------------
 FIXED       0.0000       TOTAL CHARGE         0.0000
             1.0288 D    DIPOLE MOMENT         1.0230 D
 FREE       -0.2319 D          DX             -0.2355 D
 FREE        0.9663 D          DY              0.9614 D
 FREE       -0.2663 D          DZ             -0.2585 D
 FREE        0.0000 BU         QXX             7.4304 BU
 FREE        0.0000 BU         QYY            -0.7576 BU
 FREE        0.0000 BU         QZZ            -6.6728 BU
 FREE        0.0000 BU         QXY            -0.9163 BU
 FREE        0.0000 BU         QXZ            -6.5404 BU
 FREE        0.0000 BU         QYZ             2.3544 BU
 ---------------------------------------------------------
 ...... END OF PROPERTY EVALUATION ......
 CPU     0: STEP CPU TIME=     0.39 TOTAL CPU TIME=         24.7 (      0.4 MIN)
 TOTAL WALL CLOCK TIME=         48.9 SECONDS, CPU UTILIZATION IS    50.38%
               956059  WORDS OF DYNAMIC MEMORY USED
 EXECUTION OF GAMESS TERMINATED NORMALLY Thu May 21 21:03:31 2020
 DDI: 263640 bytes (0.3 MB / 0 MWords) used by master data server.
Note: The following floating-point exceptions are signalling: IEEE_UNDERFLOW_FLAGNote: The following floating-point exceptions are signalling:Note: The following floating-point exceptions are signalling: IEEE_UNDERFLOW_FLAGNote: The following floating-point exceptions are signalling: IEEE_UNDERFLOW_FLAGNote: The following floating-point exceptions are signalling: IEEE_UNDERFLOW_FLAG IEEE_DENORMAL
Note: The following floating-point exceptions are signalling:
 ----------------------------------------
 CPU timing information for all processes
 ========================================
 0: 24.314 + 0.353 = 24.667
 1: 23.723 + 0.82 = 23.805
 2: 23.919 + 0.113 = 24.32
 3: 23.801 + 0.85 = 23.886
 4: 23.804 + 0.137 = 23.941
 5: 23.490 + 0.93 = 23.584
 6: 23.676 + 0.101 = 23.778
 7: 23.969 + 0.111 = 24.81
 ----------------------------------------
 IEEE_UNDERFLOW_FLAG IEEE_DENORMAL IEEE_DENORMAL
 IEEE_DENORMAL
 IEEE_DENORMAL
 IEEE_UNDERFLOW_FLAG IEEE_DENORMALNote: The following floating-point exceptions are signalling: IEEE_UNDERFLOW_FLAGNote: The following floating-point exceptions are signalling: IEEE_UNDERFLOW_FLAG

 IEEE_DENORMAL
 IEEE_DENORMAL
 ddikick.x: exited gracefully.
unset echo
----- accounting info -----
Files used on the master node pietdev were:
-rwxr-xr-x 1 piet piet     1504 mei 21 21:02 /home/piet/scr/alpha-d-glucopyranose_charge_chelpg.F05*
-rw-r--r-- 1 piet piet 50790400 mei 21 21:03 /home/piet/scr/alpha-d-glucopyranose_charge_chelpg.F10
ls: No match.
ls: No match.
ls: No match.
do 21 mei 2020 21:03:34 CEST
0.111u 0.023s 0:52.10 0.2%	0+0k 0+8io 0pf+0w
