----- GAMESS execution script 'rungms' -----
This job is running on host pietdev
under operating system Linux at do 21 mei 2020 20:42:05 CEST
Available scratch disk space (Kbyte units) at beginning of the job is
Filesystem     1K-blocks     Used Available Use% Mounted on
/dev/sda2      244568380 30779536 201295788  14% /
GAMESS temporary binary files will be written to /home/piet/scr
GAMESS supplementary output files will be written to /home/piet/gamess/scr
Copying input file alpha-d-glucopyranose_geoopt.inp to your run's scratch directory...
cp alpha-d-glucopyranose_geoopt.inp /home/piet/scr/alpha-d-glucopyranose_geoopt.F05
unset echo
 
Assuming a single but multicore node.
 
/home/piet/gamess/ddikick.x /home/piet/gamess/gamess.03.x alpha-d-glucopyranose_geoopt -ddi 1 8 pietdev:cpus=8 -scr /home/piet/scr

 Distributed Data Interface kickoff program.
 Initiating 8 compute processes on 1 nodes to run the following command:
 /home/piet/gamess/gamess.03.x alpha-d-glucopyranose_geoopt 

          ******************************************************
          *         GAMESS VERSION = 30 SEP 2019 (R2)          *
          *             FROM IOWA STATE UNIVERSITY             *
          * M.W.SCHMIDT, K.K.BALDRIDGE, J.A.BOATZ, S.T.ELBERT, *
          *   M.S.GORDON, J.H.JENSEN, S.KOSEKI, N.MATSUNAGA,   *
          *          K.A.NGUYEN, S.J.SU, T.L.WINDUS,           *
          *       TOGETHER WITH M.DUPUIS, J.A.MONTGOMERY       *
          *         J.COMPUT.CHEM.  14, 1347-1363(1993)        *
          **************** 64 BIT LINUX VERSION ****************

  SINCE 1993, STUDENTS AND POSTDOCS WORKING AT IOWA STATE UNIVERSITY
  AND ALSO IN THEIR VARIOUS JOBS AFTER LEAVING ISU HAVE MADE IMPORTANT
  CONTRIBUTIONS TO THE CODE:
     IVANA ADAMOVIC, CHRISTINE AIKENS, YURI ALEXEEV, POOJA ARORA,
     ANDREY ASADCHEV, ROB BELL, PRADIPTA BANDYOPADHYAY, JONATHAN BENTZ,
     COLLEEN BERTONI, BRETT BODE, KURT BRORSEN, CALEB CARLIN, GALINA CHABAN,
     WEI CHEN, CHEOL HO CHOI, PAUL DAY, ALBERT DEFUSCO, NUWAN DESILVA,
     TIM DUDLEY, DMITRI FEDOROV, ALEX FINDLATER, GRAHAM FLETCHER, 
     MARK FREITAG, KURT GLAESEMANN, EMILIE B GUIDEZ, ANASTASIA GUNINA, 
     DAN KEMP, SAROM SOK LEANG, GRANT MERRILL,
     NORIYUKI MINEZAWA, JONATHAN MULLIN,
     TAKESHI NAGATA, SEAN NEDD, HEATHER NETZLOFF, BOSILJKA NJEGIC, RYAN OLSON,
     MIKE PAK, BUU PHAM, DAVID POOLE,
     SPENCER PRUITT, LUKE ROSKOP, TOSAPORN SATTASATHUCHANA,
     JIM SHOEMAKER, LYUDMILA SLIPCHENKO,
     TONY SMITH, JIE SONG, TETSUYA TAKETSUGU, SIMON WEBB,
     JORGE LUIS GALVEZ VALLEJO, PENG XU, SOOHAENG YOO,
     FEDERICO ZAHARIEV

  ADDITIONAL CODE HAS BEEN PROVIDED BY COLLABORATORS IN OTHER GROUPS:
     IOWA STATE UNIVERSITY:
          JOE IVANIC, AARON WEST, LAIMUTIS BYTAUTAS, KLAUS RUEDENBERG
     UNIVERSITY OF TOKYO: KIMIHIKO HIRAO, TAKAHITO NAKAJIMA,
          TAKAO TSUNEDA, MUNEAKI KAMIYA, SUSUMU YANAGISAWA,
          KIYOSHI YAGI, MAHITO CHIBA, SEIKEN TOKURA, NAOAKI KAWAKAMI
     UNIVERSITY OF AARHUS: FRANK JENSEN
     UNIVERSITY OF IOWA: VISVALDAS KAIRYS, HUI LI
     NATIONAL INST. OF STANDARDS AND TECHNOLOGY: WALT STEVENS, DAVID GARMER
     UNIVERSITY OF PISA: BENEDETTA MENNUCCI, JACOPO TOMASI
     UNIVERSITY OF MEMPHIS: HENRY KURTZ, PRAKASHAN KORAMBATH
     UNIVERSITY OF ALBERTA: TOBY ZENG, MARIUSZ KLOBUKOWSKI
     UNIVERSITY OF NEW ENGLAND: MARK SPACKMAN
     MIE UNIVERSITY: HIROAKI UMEDA
     NAT. INST. OF ADVANCED INDUSTRIAL SCIENCE AND TECHNOLOGY: KAZUO KITAURA
     MICHIGAN STATE UNIVERSITY:
          KAROL KOWALSKI, MARTA WLOCH, JEFFREY GOUR, JESSE LUTZ,
          WEI LI, JUN SHEN, J. EMILIANO DEUSTUA, PIOTR PIECUCH
     UNIVERSITY OF MINNESOTA:
          ANDREW SAND, PRACHI SHARMA, YINAN SHU
     UNIVERSITY OF SILESIA: MONIKA MUSIAL, STANISLAW KUCHARSKI
     FACULTES UNIVERSITAIRES NOTRE-DAME DE LA PAIX:
          OLIVIER QUINET, BENOIT CHAMPAGNE
     UNIVERSITY OF CALIFORNIA - SANTA BARBARA: BERNARD KIRTMAN
     INSTITUTE FOR MOLECULAR SCIENCE:
          KAZUYA ISHIMURA, MICHIO KATOUDA, AND SHIGERU NAGASE
     UNIVERSITY OF NOTRE DAME: ANNA POMOGAEVA, DAN CHIPMAN
     KYUSHU UNIVERSITY:
          HARUYUKI NAKANO,
          FENG LONG GU, JACEK KORCHOWIEC, MARCIN MAKOWSKI, AND YURIKO AOKI,
          HIROTOSHI MORI AND EISAKU MIYOSHI
     PENNSYLVANIA STATE UNIVERSITY:
          TZVETELIN IORDANOV, CHET SWALINA, JONATHAN SKONE,
          SHARON HAMMES-SCHIFFER
     WASEDA UNIVERSITY:
          MASATO KOBAYASHI, TOMOKO AKAMA, TSUGUKI TOUMA,
          TAKESHI YOSHIKAWA, YASUHIRO IKABATA, JUNJI SEINO,
          YUYA NAKAJIMA, HIROMI NAKAI
     NANJING UNIVERSITY: SHUHUA LI
     UNIVERSITY OF NEBRASKA:
          PEIFENG SU, DEJUN SI, NANDUN THELLAMUREGE, YALI WANG, HUI LI
     UNIVERSITY OF ZURICH: ROBERTO PEVERATI, KIM BALDRIDGE
     N. COPERNICUS UNIVERSITY AND JACKSON STATE UNIVERSITY:
          MARIA BARYSZ
     UNIVERSITY OF COPENHAGEN: Jimmy Kromann, CASPER STEINMANN
     TOKYO INSTITUTE OF TECHNOLOGY: HIROYA NAKATA
     NAGOYA UNIVERSITY: YOSHIO NISHIMOTO, STEPHAN IRLE
     MOSCOW STATE UNIVERSITY: VLADIMIR MIRONOV
     A.N.NESMEYANOV INSTITUTE OF ORGANOELEMENT COMPOUNDS OF RUSSIAN ACADEMY OF SCIENCES:
          IGOR S. GERASIMOV
     JOHANNES KEPLER UNIVERSITY LINZ:
          CHRISTIAN FRIEDL


 PARALLEL VERSION RUNNING ON        8 PROCESSORS IN        1 NODES.

 EXECUTION OF GAMESS BEGUN Thu May 21 20:42:05 2020

            ECHO OF THE FIRST FEW INPUT CARDS -
 INPUT CARD> $BASIS GBASIS=N21 NGAUSS=3 $END                                                
 INPUT CARD> $CONTRL SCFTYP=RHF RUNTYP=OPTIMIZE DFTTYP=B3LYP MAXIT=60 MULT=1 ICHARG=0 $END  
 INPUT CARD> $SYSTEM MEMDDI=1000 MWORDS=30 $END                                             
 INPUT CARD> $STATPT NSTEP=999 $END                                                         
 INPUT CARD> $SCF DIRSCF=.TRUE. $END                                                        
 INPUT CARD> $DATA                                                                          
 INPUT CARD>                                                                                
 INPUT CARD>C1                                                                              
 INPUT CARD>O 8.0000000 -1.32239710 2.53116060 -0.24179340                                  
 INPUT CARD>C 6.0000000 -0.78324420 1.33901410 0.25204760                                   
 INPUT CARD>C 6.0000000 -1.68772440 0.19578070 -0.21349060                                  
 INPUT CARD>H 1.0000000 -1.75530420 0.24865420 -1.30961900                                  
 INPUT CARD>O 8.0000000 -2.98467280 0.25621000 0.37499660                                   
 INPUT CARD>C 6.0000000 -1.06876370 -1.13449350 0.20235130                                  
 INPUT CARD>H 1.0000000 -1.07504050 -1.19227790 1.30259810                                  
 INPUT CARD>O 8.0000000 -1.77610560 -2.24876470 -0.33848850                                 
 INPUT CARD>C 6.0000000 0.38075510 -1.24574760 -0.27453170                                  
 INPUT CARD>H 1.0000000 0.38579530 -1.27969400 -1.37547560                                  
 INPUT CARD>O 8.0000000 0.99744210 -2.41246870 0.25736230                                   
 INPUT CARD>C 6.0000000 1.17564740 -0.01375580 0.19279440                                   
 INPUT CARD>H 1.0000000 1.21083180 -0.00531520 1.29398010                                   
 INPUT CARD>O 8.0000000 0.51881080 1.16870160 -0.28460200                                   
 INPUT CARD>C 6.0000000 2.60203730 -0.00384510 -0.32555430                                  
 INPUT CARD>O 8.0000000 3.33200760 0.98531970 0.40096200                                    
 INPUT CARD>H 1.0000000 -0.72455250 1.35823380 1.35527360                                   
 INPUT CARD>H 1.0000000 -3.40204240 1.08588290 0.10383070                                   
 INPUT CARD>H 1.0000000 -2.70268630 -2.17278130 -0.06883720                                 
 INPUT CARD>H 1.0000000 0.40167690 -3.15691410 0.08698000                                   
 INPUT CARD>H 1.0000000 3.02854540 -1.00298170 -0.17409220                                  
 INPUT CARD>H 1.0000000 2.58741450 0.22420830 -1.40129360                                   
 INPUT CARD>H 1.0000000 4.23915740 1.00899220 0.07229630                                    
 INPUT CARD>H 1.0000000 -0.75323820 3.26573160 0.02813510                                   
 INPUT CARD> $END                                                                           
   30000000 WORDS OF MEMORY AVAILABLE

     BASIS OPTIONS
     -------------
     GBASIS=N21          IGAUSS=       3      POLAR=NONE    
     NDFUNC=       0     NFFUNC=       0     DIFFSP=       F
     NPFUNC=       0      DIFFS=       F     BASNAM=        


     RUN TITLE
     ---------
                                                                                 

 THE POINT GROUP OF THE MOLECULE IS C1      
 THE ORDER OF THE PRINCIPAL AXIS IS     0

 ATOM      ATOMIC                      COORDINATES (BOHR)
           CHARGE         X                   Y                   Z
 O           8.0    -2.4989681660        4.7831999649       -0.4569232716
 C           6.0    -1.4801169195        2.5303697427        0.4763008999
 C           6.0    -3.1893366588        0.3699718767       -0.4034387350
 H           1.0    -3.3170439631        0.4698883037       -2.4748210583
 O           8.0    -5.6402137550        0.4841666953        0.7086408203
 C           6.0    -2.0196705386       -2.1438818499        0.3823885103
 H           1.0    -2.0315319707       -2.2530785322        2.4615534811
 O           8.0    -3.3563529093       -4.2495490939       -0.6396505150
 C           6.0     0.7195228074       -2.3541216139       -0.5187896879
 H           1.0     0.7290474044       -2.4182710081       -2.5992719868
 O           8.0     1.8848922576       -4.5589047970        0.4863442266
 C           6.0     2.2216514442       -0.0259946927        0.3643285880
 H           1.0     2.2881403192       -0.0100442716        2.4452678226
 O           8.0     0.9804102515        2.2085257854       -0.5378197956
 C           6.0     4.9171375068       -0.0072661854       -0.6152084211
 O           8.0     6.2965813530        1.8619842433        0.7577083115
 H           1.0    -1.3692056887        2.5666897093        2.5610957424
 H           1.0    -6.4289279346        2.0520211358        0.1962115721
 H           1.0    -5.1073365378       -4.1059612882       -0.1300834458
 H           1.0     0.7590592766       -5.9657026158        0.1643683664
 H           1.0     5.7231209474       -1.8953605837       -0.3289865546
 H           1.0     4.8895044217        0.4236922512       -2.6480609323
 H           1.0     8.0108459048        1.9067187817        0.1366201969
 H           1.0    -1.4234138015        6.1713378734        0.0531676296

          INTERNUCLEAR DISTANCES (ANGS.)
          ------------------------------

                1 O          2 C          3 C          4 H          5 O     

   1 O       0.0000000    1.3984914 *  2.3639510 *  2.5568527 *  2.8842660 *
   2 C       1.3984914 *  0.0000000    1.5302918 *  2.1383610 *  2.4563935 *
   3 C       2.3639510 *  1.5302918 *  0.0000000    1.0994817 *  1.4254978 *
   4 H       2.5568527 *  2.1383610 *  1.0994817 *  0.0000000    2.0855057 *
   5 O       2.8842660 *  2.4563935 *  1.4254978 *  2.0855057 *  0.0000000  
   6 C       3.7011639    2.4904279 *  1.5250135 *  2.1611316 *  2.3737250 *
   7 H       4.0386043    2.7561278 *  2.1449040 *  3.0598566    2.5700695 *
   8 O       4.8023835    3.7691728    2.4493342 *  2.6796694 *  2.8713401 *
   9 C       4.1432879    2.8832574 *  2.5219709 *  2.8048871 *  3.7421743  
  10 H       4.3273282    3.2974410    2.7976273 *  2.6314430 *  4.0967315  
  11 O       5.4836376    4.1526492    3.7729016    4.1369817    4.7950936  
  12 C       3.5924494    2.3813344 *  2.8996329 *  3.3040252    4.1730496  
  13 H       3.8999434    2.6209128 *  3.2733065    3.9548946    4.3029275  
  14 O       2.2908893 *  1.4185719 *  2.4125566 *  2.6587114 *  3.6799604  
  15 C       4.6727353    3.6874145    4.2958659    4.4742110    5.6364643  
  16 O       4.9463362    4.1331069    5.1184600    5.4175183    6.3586733  
  17 H       2.0697339 *  1.1049533 *  2.1771583 *  3.0651702    2.6988040 *
  18 H       2.5560141 *  2.6351751 *  1.9575140 *  2.3260565 *  0.9675151 *
  19 H       4.9053218    4.0149635    2.5809220 *  2.8810453 *  2.4852572 *
  20 H       5.9527067    4.6523817    3.9618736    4.2662573    4.8166102  
  21 H       5.6058403    4.4940271    4.8663934    5.0735816    6.1681322  
  22 H       4.6854131    3.9163336    4.4371722    4.3437550    5.8484517  
  23 H       5.7746461    5.0364415    5.9892333    6.1984977    7.2692525  
  24 H       0.9676765 *  1.9399169 *  3.2181122    3.4491272    3.7625568  

                6 C          7 H          8 O          9 C         10 H     

   1 O       3.7011639    4.0386043    4.8023835    4.1432879    4.3273282  
   2 C       2.4904279 *  2.7561278 *  3.7691728    2.8832574 *  3.2974410  
   3 C       1.5250135 *  2.1449040 *  2.4493342 *  2.5219709 *  2.7976273 *
   4 H       2.1611316 *  3.0598566    2.6796694 *  2.8048871 *  2.6314430 *
   5 O       2.3737250 *  2.5700695 *  2.8713401 *  3.7421743    4.0967315  
   6 C       0.0000000    1.1017810 *  1.4263382 *  1.5299999 *  2.1508981 *
   7 H       1.1017810 *  0.0000000    2.0738423 *  2.1469835 *  3.0518456  
   8 O       1.4263382 *  2.0738423 *  0.0000000    2.3795340 *  2.5861662 *
   9 C       1.5299999 *  2.1469835 *  2.3795340 *  0.0000000    1.1014787 *
  10 H       2.1508981 *  3.0518456    2.5861662 *  1.1014787 *  0.0000000  
  11 O       2.4301138 *  2.6223210 *  2.8415496 *  1.4228325 *  2.0792907 *
  12 C       2.5086900 *  2.7723951 *  3.7403706    1.5388474 *  2.1647024 *
  13 H       2.7682581 *  2.5756877 *  4.0767407    2.1651626 *  3.0709478  
  14 O       2.8394056 *  3.2609493    4.1168703    2.4184139 *  2.6837174 *
  15 C       3.8770904    4.1933464    4.9201592    2.5453919 *  2.7643903 *
  16 O       4.8887465    4.9976947    6.0908874    3.7608303    4.1190029  
  17 H       2.7679235 *  2.5750197 *  4.1212901    3.2647648    3.9558218  
  18 H       3.2224164    3.4701582    3.7362001    4.4597327    4.7044676  
  19 H       1.9548115 *  2.3433848 *  0.9680068 *  3.2263466    3.4703930  
  20 H       2.5031363 *  2.7419367 *  2.3976020 *  1.9451699 *  2.3797025 *
  21 H       4.1166670    4.3653023    4.9662534    2.6607925 *  2.9161653 *
  22 H       4.2172724    4.7677081    5.1269345    2.8809215 *  2.6663675 *
  23 H       5.7258599    5.8821707    6.8531097    4.4823442    4.7098331  
  24 H       4.4149619    4.6477587    5.6205284    4.6616513    4.8916678  

               11 O         12 C         13 H         14 O         15 C     

   1 O       5.4836376    3.5924494    3.8999434    2.2908893 *  4.6727353  
   2 C       4.1526492    2.3813344 *  2.6209128 *  1.4185719 *  3.6874145  
   3 C       3.7729016    2.8996329 *  3.2733065    2.4125566 *  4.2958659  
   4 H       4.1369817    3.3040252    3.9548946    2.6587114 *  4.4742110  
   5 O       4.7950936    4.1730496    4.3029275    3.6799604    5.6364643  
   6 C       2.4301138 *  2.5086900 *  2.7682581 *  2.8394056 *  3.8770904  
   7 H       2.6223210 *  2.7723951 *  2.5756877 *  3.2609493    4.1933464  
   8 O       2.8415496 *  3.7403706    4.0767407    4.1168703    4.9201592  
   9 C       1.4228325 *  1.5388474 *  2.1651626 *  2.4184139 *  2.5453919 *
  10 H       2.0792907 *  2.1647024 *  3.0709478    2.6837174 *  2.7643903 *
  11 O       0.0000000    2.4061899 *  2.6295436 *  3.6534359    2.9522847 *
  12 C       2.4061899 *  0.0000000    1.1017800 *  1.4344153 *  1.5176863 *
  13 H       2.6295436 *  1.1017800 *  0.0000000    2.0854568 *  2.1350285 *
  14 O       3.6534359    1.4344153 *  2.0854568 *  0.0000000    2.3908943 *
  15 C       2.9522847 *  1.5176863 *  2.1350285 *  2.3908943 *  0.0000000  
  16 O       4.1250191    2.3856603 *  2.5056388 *  2.9013278 *  1.4279809 *
  17 H       4.2882248    2.6161944 *  2.3682768 *  2.0666559 *  3.9682038  
  18 H       5.6229440    4.7087539    4.8873078    3.9409172    6.1172585  
  19 H       3.7222045    4.4464946    4.6766232    4.6465155    5.7367482  
  20 H       0.9685893 *  3.2387762    3.4704692    4.3431261    3.8669904  
  21 H       2.5096189 *  2.1322300 *  2.5406018 *  3.3207211    1.0968700 *
  22 H       3.4973157    2.1426222 *  3.0351542    2.5334145 *  1.0997442 *
  23 H       4.7169230    3.2319695    3.4193693    3.7408371    1.9657789 *
  24 H       5.9463758    3.8082476    4.0199107    2.4725388 *  4.6982020  

               16 O         17 H         18 H         19 H         20 H     

   1 O       4.9463362    2.0697339 *  2.5560141 *  4.9053218    5.9527067  
   2 C       4.1331069    1.1049533 *  2.6351751 *  4.0149635    4.6523817  
   3 C       5.1184600    2.1771583 *  1.9575140 *  2.5809220 *  3.9618736  
   4 H       5.4175183    3.0651702    2.3260565 *  2.8810453 *  4.2662573  
   5 O       6.3586733    2.6988040 *  0.9675151 *  2.4852572 *  4.8166102  
   6 C       4.8887465    2.7679235 *  3.2224164    1.9548115 *  2.5031363 *
   7 H       4.9976947    2.5750197 *  3.4701582    2.3433848 *  2.7419367 *
   8 O       6.0908874    4.1212901    3.7362001    0.9680068 *  2.3976020 *
   9 C       3.7608303    3.2647648    4.4597327    3.2263466    1.9451699 *
  10 H       4.1190029    3.9558218    4.7044676    3.4703930    2.3797025 *
  11 O       4.1250191    4.2882248    5.6229440    3.7222045    0.9685893 *
  12 C       2.3856603 *  2.6161944 *  4.7087539    4.4464946    3.2387762  
  13 H       2.5056388 *  2.3682768 *  4.8873078    4.6766232    3.4704692  
  14 O       2.9013278 *  2.0666559 *  3.9409172    4.6465155    4.3431261  
  15 C       1.4279809 *  3.9682038    6.1172585    5.7367482    3.8669904  
  16 O       0.0000000    4.1839521    6.7413522    6.8272867    5.0836526  
  17 H       4.1839521    0.0000000    2.9680358 *  4.2905912    4.8232273  
  18 H       6.7413522    2.9680358 *  0.0000000    3.3373351    5.6982358  
  19 H       6.8272867    4.2905912    3.3373351    0.0000000    3.2603477  
  20 H       5.0836526    4.8232273    5.6982358    3.2603477    0.0000000  
  21 H       2.0919176 *  4.6904203    6.7670567    5.8503441    3.4070547  
  22 H       2.0932832 *  4.4557605    6.2355013    5.9587050    4.2923648  
  23 H       0.9651437 *  5.1387174    7.6416517    7.6375909    5.6640310  
  24 H       4.6934541    2.3239336 *  3.4312729    5.7781636    6.5259229  

               21 H         22 H         23 H         24 H     

   1 O       5.6058403    4.6854131    5.7746461    0.9676765 *
   2 C       4.4940271    3.9163336    5.0364415    1.9399169 *
   3 C       4.8663934    4.4371722    5.9892333    3.2181122  
   4 H       5.0735816    4.3437550    6.1984977    3.4491272  
   5 O       6.1681322    5.8484517    7.2692525    3.7625568  
   6 C       4.1166670    4.2172724    5.7258599    4.4149619  
   7 H       4.3653023    4.7677081    5.8821707    4.6477587  
   8 O       4.9662534    5.1269345    6.8531097    5.6205284  
   9 C       2.6607925 *  2.8809215 *  4.4823442    4.6616513  
  10 H       2.9161653 *  2.6663675 *  4.7098331    4.8916678  
  11 O       2.5096189 *  3.4973157    4.7169230    5.9463758  
  12 C       2.1322300 *  2.1426222 *  3.2319695    3.8082476  
  13 H       2.5406018 *  3.0351542    3.4193693    4.0199107  
  14 O       3.3207211    2.5334145 *  3.7408371    2.4725388 *
  15 C       1.0968700 *  1.0997442 *  1.9657789 *  4.6982020  
  16 O       2.0919176 *  2.0932832 *  0.9651437 *  4.6934541  
  17 H       4.6904203    4.4557605    5.1387174    2.3239336 *
  18 H       6.7670567    6.2355013    7.6416517    3.4312729  
  19 H       5.8503441    5.9587050    7.6375909    5.7781636  
  20 H       3.4070547    4.2923648    5.6640310    6.5259229  
  21 H       0.0000000    1.7907024 *  2.3610014 *  5.7065485  
  22 H       1.7907024 *  0.0000000    2.3485331 *  4.7385748  
  23 H       2.3610014 *  2.3485331 *  0.0000000    5.4789449  
  24 H       5.7065485    4.7385748    5.4789449    0.0000000  

  * ... LESS THAN  3.000


     ATOMIC BASIS SET
     ----------------
 THE CONTRACTED PRIMITIVE FUNCTIONS HAVE BEEN UNNORMALIZED
 THE CONTRACTED BASIS FUNCTIONS ARE NOW NORMALIZED TO UNITY

  SHELL TYPE  PRIMITIVE        EXPONENT          CONTRACTION COEFFICIENT(S)

 O         

      1   S       1           322.0370000    0.059239393389
      1   S       2            48.4308000    0.351499960776
      1   S       3            10.4206000    0.707657921031

      2   L       4             7.4029400   -0.404453583190    0.244586106967
      2   L       5             1.5762000    1.221561761397    0.853955373466

      3   L       6             0.3736840    1.000000000000    1.000000000000

 C         

      4   S       7           172.2560000    0.061766907377
      4   S       8            25.9109000    0.358794042852
      4   S       9             5.5333500    0.700713083689

      5   L      10             3.6649800   -0.395895162119    0.236459946619
      5   L      11             0.7705450    1.215834355681    0.860618805716

      6   L      12             0.1958570    1.000000000000    1.000000000000

 C         

      7   S      13           172.2560000    0.061766907377
      7   S      14            25.9109000    0.358794042852
      7   S      15             5.5333500    0.700713083689

      8   L      16             3.6649800   -0.395895162119    0.236459946619
      8   L      17             0.7705450    1.215834355681    0.860618805716

      9   L      18             0.1958570    1.000000000000    1.000000000000

 H         

     10   S      19             5.4471780    0.156284978695
     10   S      20             0.8245472    0.904690876670

     11   S      21             0.1831916    1.000000000000

 O         

     12   S      22           322.0370000    0.059239393389
     12   S      23            48.4308000    0.351499960776
     12   S      24            10.4206000    0.707657921031

     13   L      25             7.4029400   -0.404453583190    0.244586106967
     13   L      26             1.5762000    1.221561761397    0.853955373466

     14   L      27             0.3736840    1.000000000000    1.000000000000

 C         

     15   S      28           172.2560000    0.061766907377
     15   S      29            25.9109000    0.358794042852
     15   S      30             5.5333500    0.700713083689

     16   L      31             3.6649800   -0.395895162119    0.236459946619
     16   L      32             0.7705450    1.215834355681    0.860618805716

     17   L      33             0.1958570    1.000000000000    1.000000000000

 H         

     18   S      34             5.4471780    0.156284978695
     18   S      35             0.8245472    0.904690876670

     19   S      36             0.1831916    1.000000000000

 O         

     20   S      37           322.0370000    0.059239393389
     20   S      38            48.4308000    0.351499960776
     20   S      39            10.4206000    0.707657921031

     21   L      40             7.4029400   -0.404453583190    0.244586106967
     21   L      41             1.5762000    1.221561761397    0.853955373466

     22   L      42             0.3736840    1.000000000000    1.000000000000

 C         

     23   S      43           172.2560000    0.061766907377
     23   S      44            25.9109000    0.358794042852
     23   S      45             5.5333500    0.700713083689

     24   L      46             3.6649800   -0.395895162119    0.236459946619
     24   L      47             0.7705450    1.215834355681    0.860618805716

     25   L      48             0.1958570    1.000000000000    1.000000000000

 H         

     26   S      49             5.4471780    0.156284978695
     26   S      50             0.8245472    0.904690876670

     27   S      51             0.1831916    1.000000000000

 O         

     28   S      52           322.0370000    0.059239393389
     28   S      53            48.4308000    0.351499960776
     28   S      54            10.4206000    0.707657921031

     29   L      55             7.4029400   -0.404453583190    0.244586106967
     29   L      56             1.5762000    1.221561761397    0.853955373466

     30   L      57             0.3736840    1.000000000000    1.000000000000

 C         

     31   S      58           172.2560000    0.061766907377
     31   S      59            25.9109000    0.358794042852
     31   S      60             5.5333500    0.700713083689

     32   L      61             3.6649800   -0.395895162119    0.236459946619
     32   L      62             0.7705450    1.215834355681    0.860618805716

     33   L      63             0.1958570    1.000000000000    1.000000000000

 H         

     34   S      64             5.4471780    0.156284978695
     34   S      65             0.8245472    0.904690876670

     35   S      66             0.1831916    1.000000000000

 O         

     36   S      67           322.0370000    0.059239393389
     36   S      68            48.4308000    0.351499960776
     36   S      69            10.4206000    0.707657921031

     37   L      70             7.4029400   -0.404453583190    0.244586106967
     37   L      71             1.5762000    1.221561761397    0.853955373466

     38   L      72             0.3736840    1.000000000000    1.000000000000

 C         

     39   S      73           172.2560000    0.061766907377
     39   S      74            25.9109000    0.358794042852
     39   S      75             5.5333500    0.700713083689

     40   L      76             3.6649800   -0.395895162119    0.236459946619
     40   L      77             0.7705450    1.215834355681    0.860618805716

     41   L      78             0.1958570    1.000000000000    1.000000000000

 O         

     42   S      79           322.0370000    0.059239393389
     42   S      80            48.4308000    0.351499960776
     42   S      81            10.4206000    0.707657921031

     43   L      82             7.4029400   -0.404453583190    0.244586106967
     43   L      83             1.5762000    1.221561761397    0.853955373466

     44   L      84             0.3736840    1.000000000000    1.000000000000

 H         

     45   S      85             5.4471780    0.156284978695
     45   S      86             0.8245472    0.904690876670

     46   S      87             0.1831916    1.000000000000

 H         

     47   S      88             5.4471780    0.156284978695
     47   S      89             0.8245472    0.904690876670

     48   S      90             0.1831916    1.000000000000

 H         

     49   S      91             5.4471780    0.156284978695
     49   S      92             0.8245472    0.904690876670

     50   S      93             0.1831916    1.000000000000

 H         

     51   S      94             5.4471780    0.156284978695
     51   S      95             0.8245472    0.904690876670

     52   S      96             0.1831916    1.000000000000

 H         

     53   S      97             5.4471780    0.156284978695
     53   S      98             0.8245472    0.904690876670

     54   S      99             0.1831916    1.000000000000

 H         

     55   S     100             5.4471780    0.156284978695
     55   S     101             0.8245472    0.904690876670

     56   S     102             0.1831916    1.000000000000

 H         

     57   S     103             5.4471780    0.156284978695
     57   S     104             0.8245472    0.904690876670

     58   S     105             0.1831916    1.000000000000

 H         

     59   S     106             5.4471780    0.156284978695
     59   S     107             0.8245472    0.904690876670

     60   S     108             0.1831916    1.000000000000

 TOTAL NUMBER OF BASIS SET SHELLS             =   60
 NUMBER OF CARTESIAN GAUSSIAN BASIS FUNCTIONS =  132
 NUMBER OF ELECTRONS                          =   96
 CHARGE OF MOLECULE                           =    0
 SPIN MULTIPLICITY                            =    1
 NUMBER OF OCCUPIED ORBITALS (ALPHA)          =   48
 NUMBER OF OCCUPIED ORBITALS (BETA )          =   48
 TOTAL NUMBER OF ATOMS                        =   24
 THE NUCLEAR REPULSION ENERGY IS      820.8573318279

 SELECTED MURRAY-HANDY-LAMING RADIAL GRID

 LEGACY BECKE'S FUZZY CELL METHOD

 SELECTED ORIGINAL BECKE'S PARTITION FUNCTION

     LEBEDEV GRID-BASED DFT OPTIONS
     ------------------------------
     DFTTYP=B3LYP   
     NRAD  =      96     NLEB  =     302
     NRAD0 =      24     NLEB0 =     110
     SWOFF =    5.00E-03 (PURE SCF -> DFT)
     SWITCH=    3.00E-04 (COARSE -> TIGHT GRID)
     THRESH=    0.00E+00 GTHRE=    1.00E+00

 GRIMME'S EMPIRICAL DISPERSION CORRECTION= F

     $CONTRL OPTIONS
     ---------------
 SCFTYP=RHF          RUNTYP=OPTIMIZE     EXETYP=RUN     
 MPLEVL=       0     CITYP =NONE         CCTYP =NONE         VBTYP =NONE    
 DFTTYP=B3LYP        TDDFT =NONE    
 MULT  =       1     ICHARG=       0     NZVAR =       0     COORD =UNIQUE  
 PP    =NONE         RELWFN=NONE         LOCAL =NONE         NUMGRD=       F
 ISPHER=      -1     NOSYM =       0     MAXIT =      60     UNITS =ANGS    
 PLTORB=       F     MOLPLT=       F     AIMPAC=       F     FRIEND=        
 NPRINT=       7     IREST =       0     GEOM  =INPUT   
 NORMF =       0     NORMP =       0     ITOL  =      20     ICUT  =       9
 INTTYP=BEST         GRDTYP=BEST         QMTTOL= 1.0E-06

     $SYSTEM OPTIONS
     ---------------
  REPLICATED MEMORY=    30000000 WORDS (ON EVERY NODE).
 DISTRIBUTED MEMDDI=        1000 MILLION WORDS IN AGGREGATE,
 MEMDDI DISTRIBUTED OVER   8 PROCESSORS IS   125000000 WORDS/PROCESSOR.
 TOTAL MEMORY REQUESTED ON EACH PROCESSOR=   155000000 WORDS.
 TIMLIM=      525600.00 MINUTES, OR     365.0 DAYS.
 PARALL= T  BALTYP=  DLB     KDIAG=    0  COREFL= F
 MXSEQ2=     300 MXSEQ3=     150  mem10=         0

          ----------------
          PROPERTIES INPUT
          ----------------

     MOMENTS            FIELD           POTENTIAL          DENSITY
 IEMOM =       1   IEFLD =       0   IEPOT =       0   IEDEN =       0
 WHERE =COMASS     WHERE =NUCLEI     WHERE =NUCLEI     WHERE =NUCLEI  
 OUTPUT=BOTH       OUTPUT=BOTH       OUTPUT=BOTH       OUTPUT=BOTH    
 IEMINT=       0   IEFINT=       0                     IEDINT=       0
                                                       MORB  =       0
          EXTRAPOLATION IN EFFECT
          DIIS IN EFFECT
 ORBITAL PRINTING OPTION: NPREO=     1   132     2     1

     -------------------------------
     INTEGRAL TRANSFORMATION OPTIONS
     -------------------------------
     NWORD  =            0
     CUTOFF = 1.0E-09     MPTRAN =       0
     DIRTRF =       T     AOINTS =DUP     

          ----------------------
          INTEGRAL INPUT OPTIONS
          ----------------------
 NOPK  =       1 NORDER=       0 SCHWRZ=       T

     ------------------------------------------
     THE POINT GROUP IS C1 , NAXIS= 0, ORDER= 1
     ------------------------------------------

     DIMENSIONS OF THE SYMMETRY SUBSPACES ARE
 A   =  132

 ..... DONE SETTING UP THE RUN .....
 CPU     0: STEP CPU TIME=     0.02 TOTAL CPU TIME=          0.0 (      0.0 MIN)
 TOTAL WALL CLOCK TIME=          0.0 SECONDS, CPU UTILIZATION IS    66.67%


          -----------------------------
          STATIONARY POINT LOCATION RUN
          -----------------------------

 OBTAINING INITIAL HESSIAN, HESS=GUESS   
 CARTESIAN COORDINATE OPTIMIZATION USING BADGER'S RULE FORCE CONSTANT GUESS

          PARAMETERS CONTROLLING GEOMETRY SEARCH ARE
          METHOD =QA                  UPHESS =BFGS    
          NNEG   =         0          NFRZ   =         0
          NSTEP  =       999          IFOLOW =         1
          HESS   =GUESS               RESTAR =         F
          IHREP  =         0          HSSEND =         F
          NPRT   =         0          NPUN   =         0
          OPTTOL = 1.000E-04          RMIN   = 1.500E-03
          RMAX   = 1.000E-01          RLIM   = 7.000E-02
          DXMAX  = 3.000E-01          PURIFY =         F
          MOVIE  =         F          TRUPD  =         T
          TRMAX  = 5.000E-01          TRMIN  = 5.000E-02
          ITBMAT =         5          STPT   =         F
          STSTEP = 1.000E-02          PROJCT=          T

 BEGINNING GEOMETRY SEARCH POINT NSERCH=   0 ...

 COORDINATES OF ALL ATOMS ARE (ANGS)
   ATOM   CHARGE       X              Y              Z
 ------------------------------------------------------------
 O           8.0  -1.3223971000   2.5311606000  -0.2417934000
 C           6.0  -0.7832442000   1.3390141000   0.2520476000
 C           6.0  -1.6877244000   0.1957807000  -0.2134906000
 H           1.0  -1.7553042000   0.2486542000  -1.3096190000
 O           8.0  -2.9846728000   0.2562100000   0.3749966000
 C           6.0  -1.0687637000  -1.1344935000   0.2023513000
 H           1.0  -1.0750405000  -1.1922779000   1.3025981000
 O           8.0  -1.7761056000  -2.2487647000  -0.3384885000
 C           6.0   0.3807551000  -1.2457476000  -0.2745317000
 H           1.0   0.3857953000  -1.2796940000  -1.3754756000
 O           8.0   0.9974421000  -2.4124687000   0.2573623000
 C           6.0   1.1756474000  -0.0137558000   0.1927944000
 H           1.0   1.2108318000  -0.0053152000   1.2939801000
 O           8.0   0.5188108000   1.1687016000  -0.2846020000
 C           6.0   2.6020373000  -0.0038451000  -0.3255543000
 O           8.0   3.3320076000   0.9853197000   0.4009620000
 H           1.0  -0.7245525000   1.3582338000   1.3552736000
 H           1.0  -3.4020424000   1.0858829000   0.1038307000
 H           1.0  -2.7026863000  -2.1727813000  -0.0688372000
 H           1.0   0.4016769000  -3.1569141000   0.0869800000
 H           1.0   3.0285454000  -1.0029817000  -0.1740922000
 H           1.0   2.5874145000   0.2242083000  -1.4012936000
 H           1.0   4.2391574000   1.0089922000   0.0722963000
 H           1.0  -0.7532382000   3.2657316000   0.0281351000

          ********************
          1 ELECTRON INTEGRALS
          ********************
 ...... END OF ONE-ELECTRON INTEGRALS ......
 CPU     0: STEP CPU TIME=     0.01 TOTAL CPU TIME=          0.0 (      0.0 MIN)
 TOTAL WALL CLOCK TIME=          0.1 SECONDS, CPU UTILIZATION IS    60.00%

          -------------
          GUESS OPTIONS
          -------------
          GUESS =HUCKEL            NORB  =       0          NORDER=       0
          MIX   =       F          PRTMO =       F          PUNMO =       F
          TOLZ  = 1.0E-08          TOLE  = 1.0E-05
          SYMDEN=       F          PURIFY=       F

 INITIAL GUESS ORBITALS GENERATED BY HUCKEL   ROUTINE.
 HUCKEL GUESS REQUIRES    164928 WORDS.

 SYMMETRIES FOR INITIAL GUESS ORBITALS FOLLOW.   BOTH SET(S).
    48 ORBITALS ARE OCCUPIED (   12 CORE ORBITALS).
    13=A       14=A       15=A       16=A       17=A       18=A       19=A   
    20=A       21=A       22=A       23=A       24=A       25=A       26=A   
    27=A       28=A       29=A       30=A       31=A       32=A       33=A   
    34=A       35=A       36=A       37=A       38=A       39=A       40=A   
    41=A       42=A       43=A       44=A       45=A       46=A       47=A   
    48=A       49=A       50=A       51=A       52=A       53=A       54=A   
    55=A       56=A       57=A       58=A   
 ...... END OF INITIAL ORBITAL SELECTION ......
 CPU     0: STEP CPU TIME=     0.03 TOTAL CPU TIME=          0.1 (      0.0 MIN)
 TOTAL WALL CLOCK TIME=          0.1 SECONDS, CPU UTILIZATION IS    75.00%

                    ----------------------
                    AO INTEGRAL TECHNOLOGY
                    ----------------------
     S,P,L SHELL ROTATED AXIS INTEGRALS, REPROGRAMMED BY
        KAZUYA ISHIMURA (IMS) AND JOSE SIERRA (SYNSTAR).
     S,P,D,L SHELL ROTATED AXIS INTEGRALS PROGRAMMED BY
        KAZUYA ISHIMURA (INSTITUTE FOR MOLECULAR SCIENCE).
     S,P,D,F,G SHELL TO TOTAL QUARTET ANGULAR MOMENTUM SUM 5,
        ERIC PROGRAM BY GRAHAM FLETCHER (ELORET AND NASA ADVANCED
        SUPERCOMPUTING DIVISION, AMES RESEARCH CENTER).
     S,P,D,F,G,L SHELL GENERAL RYS QUADRATURE PROGRAMMED BY
        MICHEL DUPUIS (PACIFIC NORTHWEST NATIONAL LABORATORY).

          --------------------
          2 ELECTRON INTEGRALS
          --------------------

 DIRECT SCF METHOD SKIPS INTEGRAL STORAGE ON DISK.
 DIRECT TRANSFORMATION SKIPS AO INTEGRAL STORAGE ON DISK.
  ...... END OF TWO-ELECTRON INTEGRALS .....
 CPU     0: STEP CPU TIME=     0.02 TOTAL CPU TIME=          0.1 (      0.0 MIN)
 TOTAL WALL CLOCK TIME=          0.1 SECONDS, CPU UTILIZATION IS    80.00%

          --------------------------
             R-B3LYP SCF CALCULATION
          --------------------------

     NUCLEAR ENERGY =       820.8573318279
     MAXIT =   60     NPUNCH=    2
     EXTRAP=T  DAMP=F  SHIFT=F  RSTRCT=F  DIIS=T  DEM=F  SOSCF=F
         DENSITY MATRIX CONVERGENCE THRESHOLD=  2.00E-05
     COARSE -> FINE DFT GRID SWITCH THRESHOLD=  3.00E-04 (SWITCH IN $DFT)
                   HF -> DFT SWITCH THRESHOLD=  5.00E-03 (SWOFF IN $DFT)
     MEMORY REQUIRED FOR RHF ITERS=    955735 WORDS.

 DIRECT SCF CALCULATION, SCHWRZ=T   FDIFF=T,  DIRTHR=  0.00E+00 NITDIR=10
 SCHWARZ INEQUALITY OVERHEAD:      7999 INTEGRALS, T=        0.00

 DFT CODE IS SWITCHING FROM THE FINE GRID NRAD= 96,  NLEB=  302
                      TO THE COARSE GRID NRAD0= 24, NLEB0=  110

     EXCHANGE FUNCTIONAL   =B88&HFX   
     CORRELATION FUNCTIONAL=LYP88&VWN5
     DFT THRESHOLD         =.575E-08
     GRID CHANGE THRESHOLD =.300E-03
 FOR AN EULER-MACLAURIN QUADRATURE USING  96 RADIAL POINTS:
 SMALLEST GAUSSIAN PRIMITIVE EXPONENT=        0.1831915800 OF TYPE -S-
 ON ATOM NUMBER   4 HAS RADIAL NORMALIZATION=  1.000000
  LARGEST GAUSSIAN PRIMITIVE EXPONENT=      322.0370000000 OF TYPE -S-
 ON ATOM NUMBER   1 HAS RADIAL NORMALIZATION=  1.000000
 DFT IS SWITCHED OFF, PERFORMING PURE SCF UNTIL SWOFF THRESHOLD IS REACHED.

                                                                                   NONZERO     BLOCKS
 ITER EX DEM     TOTAL ENERGY        E CHANGE  DENSITY CHANGE    DIIS ERROR      INTEGRALS    SKIPPED
   1  0  0     -677.6769281389  -677.6769281389   0.754013812   0.570177210       20363296     888945
          * * *   INITIATING DIIS PROCEDURE   * * *
   2  1  0     -679.4419329536    -1.7650048148   0.139871975   0.072903604       20337567     902222
   3  2  0     -679.5284217345    -0.0864887809   0.088571262   0.028275151       20086292     950422
   4  3  0     -679.5393806114    -0.0109588769   0.017878850   0.014209243       19816051     985121
   5  4  0     -679.5416312659    -0.0022506546   0.004343328   0.001898884       19347124    1021115
 CONVERGED TO SWOFF, SO DFT CALCULATION IS NOW SWITCHED ON.
          * * *   INITIATING DIIS PROCEDURE   * * *
   6  5  0     -682.9174831972    -3.3758519313   0.141912348   0.053259014       20386867     878124
   7  6  0     -682.9661729900    -0.0486897928   0.116633124   0.028081346       20205630     934991
   8  7  0     -682.9681576290    -0.0019846390   0.061570262   0.025309114       19961311     966987
   9  8  0     -682.9761709792    -0.0080133502   0.005570096   0.005278051       19697443     995095
  10  9  0     -682.9764298967    -0.0002589175   0.000739533   0.000486438       18728508    1057316
  11 10  0     -682.9764331867    -0.0000032900   0.000179497   0.000209431       17459438    1123091
 DFT CODE IS SWITCHING BACK TO THE FINE GRID
          * * *   INITIATING DIIS PROCEDURE   * * *
  12 11  0     -682.9921245324    -0.0156913457   0.002496358   0.001947307       20394330     873844
  13 12  0     -682.9921766785    -0.0000521462   0.002843681   0.000676569       18661952    1067536
  14 13  0     -682.9921778294    -0.0000011509   0.001313757   0.000759133       17915205    1106195
  15 14  0     -682.9921834784    -0.0000056490   0.000103072   0.000072224       17228243    1139134
  16 15  0     -682.9921835368    -0.0000000584   0.000029100   0.000017185       15290503    1212754
  17 16  0     -682.9921835417    -0.0000000049   0.000010870   0.000008577       13719665    1275485
  18 17  0     -682.9921835422    -0.0000000005   0.000002784   0.000003017       12149973    1333908

          -----------------
          DENSITY CONVERGED
          -----------------
     TIME TO FORM FOCK OPERATORS=      20.8 SECONDS (       1.2 SEC/ITER)
     FOCK TIME ON FIRST ITERATION=       0.2, LAST ITERATION=       2.7
     TIME TO SOLVE SCF EQUATIONS=       0.3 SECONDS (       0.0 SEC/ITER)

 FINAL R-B3LYP ENERGY IS     -682.9921835422 AFTER  18 ITERATIONS
 DFT EXCHANGE + CORRELATION ENERGY =       -71.2682998962
 TOTAL ELECTRON NUMBER             =        96.0003807479

          ------------
          EIGENVECTORS
          ------------

                      1          2          3          4          5
                  -19.0403   -19.0381   -19.0299   -19.0267   -19.0193
                     A          A          A          A          A   
    1  O  1  S    0.975322  -0.119069  -0.010003   0.004056   0.003738
    2  O  1  S    0.105776  -0.011560  -0.000744   0.000177   0.000032
    3  O  1  X    0.003097   0.000046  -0.000204  -0.000055  -0.000022
    4  O  1  Y   -0.001428  -0.000069  -0.000364  -0.000024   0.000100
    5  O  1  Z    0.002059  -0.000516  -0.000223  -0.000094   0.000046
    6  O  1  S   -0.056047   0.001788   0.000083   0.001055   0.001359
    7  O  1  X   -0.008984  -0.002097   0.000344   0.000372   0.000320
    8  O  1  Y    0.008399   0.001606   0.001116  -0.000156  -0.000857
    9  O  1  Z   -0.005485   0.001479   0.000997   0.000535  -0.000136
   10  C  2  S   -0.001148  -0.000778   0.000164  -0.000079   0.000074
   11  C  2  S   -0.004370  -0.002986   0.000490  -0.000559   0.000109
   12  C  2  X    0.000369   0.001900   0.000554   0.000089  -0.000185
   13  C  2  Y    0.001444  -0.000229   0.000478   0.000523   0.000365
   14  C  2  Z   -0.000108  -0.000235   0.000426  -0.000038  -0.000117
   15  C  2  S    0.031488   0.018084  -0.004595   0.000338  -0.003455
   16  C  2  X   -0.006056   0.009791   0.004288   0.001112   0.000492
   17  C  2  Y    0.011504  -0.002345   0.001881  -0.002841  -0.000117
   18  C  2  Z   -0.012596  -0.006689  -0.004223  -0.000047   0.002952
   19  C  3  S    0.000347   0.000109  -0.001035   0.000268  -0.000136
   20  C  3  S    0.001478   0.000012  -0.004475   0.001000  -0.001007
   21  C  3  X   -0.000100  -0.000608  -0.001441  -0.000181  -0.000653
   22  C  3  Y   -0.000434  -0.000448   0.000150   0.000500   0.000114
   23  C  3  Z   -0.000435  -0.000438  -0.000140  -0.000276   0.000157
   24  C  3  S   -0.010271  -0.003428   0.026988  -0.007697   0.001738
   25  C  3  X   -0.004313  -0.002045  -0.011516   0.000163   0.004551
   26  C  3  Y   -0.006760  -0.000823  -0.001044   0.004627   0.001501
   27  C  3  Z    0.002846   0.003477   0.011592   0.002354  -0.001251
   28  H  4  S    0.001303   0.000840  -0.000896   0.000919  -0.000659
   29  H  4  S    0.001232   0.000931   0.000330   0.001281   0.000138
   30  O  5  S    0.009587  -0.005010   0.982124  -0.025946   0.008036
   31  O  5  S    0.001361  -0.000633   0.105688  -0.002573   0.000464
   32  O  5  X    0.000133  -0.000161   0.002252   0.000144  -0.000030
   33  O  5  Y    0.000047  -0.000221   0.002059  -0.000427  -0.000002
   34  O  5  Z    0.000051   0.000011  -0.002292   0.000195   0.000077
   35  O  5  S   -0.001495  -0.000269  -0.053451   0.001488   0.001478
   36  O  5  X   -0.000308   0.000174  -0.009299  -0.000228   0.000563
   37  O  5  Y    0.000365   0.000840  -0.003866   0.001064  -0.000056
   38  O  5  Z   -0.000253  -0.000081   0.006260  -0.000879  -0.000553
   39  C  6  S   -0.000183   0.000117   0.000265  -0.001037   0.000268
   40  C  6  S   -0.001165   0.001006   0.001088  -0.004384   0.000993
   41  C  6  X   -0.000191   0.000261   0.000311  -0.000783  -0.000529
   42  C  6  Y   -0.000422   0.000375  -0.000350  -0.001064   0.000064
   43  C  6  Z   -0.000049   0.000647   0.000275   0.000078   0.000285
   44  C  6  S    0.004099  -0.001924  -0.008532   0.027323  -0.007975
   45  C  6  X    0.005005  -0.001650   0.003784  -0.006506  -0.005510
   46  C  6  Y    0.002252  -0.002498  -0.005483  -0.010319   0.002609
   47  C  6  Z   -0.000128  -0.005087  -0.002003  -0.010373  -0.001986
   48  H  7  S   -0.000587   0.000938   0.000879  -0.001072   0.000876
   49  H  7  S    0.000430   0.002166   0.000992  -0.000095   0.001195
   50  O  8  S   -0.002611   0.009976   0.026140   0.982086  -0.012328
   51  O  8  S   -0.000452   0.001577   0.003058   0.105764  -0.001077
   52  O  8  X   -0.000016   0.000119  -0.000041  -0.000642   0.000451
   53  O  8  Y    0.000052   0.000158   0.000202   0.003094  -0.000079
   54  O  8  Z   -0.000124  -0.000041  -0.000028   0.002196  -0.000156
   55  O  8  S    0.001248  -0.002658  -0.001857  -0.053638   0.000671
   56  O  8  X    0.000027  -0.000813  -0.000158  -0.001222  -0.001061
   57  O  8  Y    0.000090  -0.001077  -0.000176  -0.010396   0.000296
   58  O  8  Z    0.000617   0.000146   0.000251  -0.005997   0.000721
   59  C  9  S    0.000205   0.000064  -0.000128   0.000273  -0.001062
   60  C  9  S    0.000977  -0.000272  -0.000990   0.001104  -0.004643
   61  C  9  X    0.000154  -0.000345   0.000379   0.000412   0.000447
   62  C  9  Y   -0.000239  -0.000742  -0.000544   0.000096  -0.001392
   63  C  9  Z    0.000366  -0.000410   0.000141  -0.000316  -0.000189
   64  C  9  S   -0.007414  -0.002379   0.001675  -0.008627   0.027450
   65  C  9  X    0.001367   0.000716  -0.000749   0.005507   0.004907
   66  C  9  Y   -0.001082  -0.001943   0.005004   0.000478  -0.011366
   67  C  9  Z   -0.004506   0.003574  -0.001247   0.001938   0.011526
   68  H 10  S   -0.000095   0.000687  -0.000637   0.000929  -0.000991
   69  H 10  S   -0.001241   0.001072   0.000067   0.001103   0.000580
   70  O 11  S   -0.004116  -0.000983  -0.007774   0.012553   0.982452
   71  O 11  S   -0.000843  -0.000098  -0.001223   0.001628   0.105888
   72  O 11  X    0.000056  -0.000170  -0.000024  -0.000167  -0.003293
   73  O 11  Y   -0.000169  -0.000208  -0.000060   0.000069   0.001031
   74  O 11  Z   -0.000097  -0.000009   0.000120   0.000084  -0.001883
   75  O 11  S    0.001811  -0.000680   0.002387  -0.001172  -0.054110
   76  O 11  X   -0.000509   0.000803  -0.000204   0.000047   0.009118
   77  O 11  Y    0.001192   0.000412   0.000636  -0.000184  -0.006359
   78  O 11  Z    0.000367   0.000016  -0.000642  -0.000426   0.005329
   79  C 12  S   -0.000201  -0.000796   0.000099  -0.000071   0.000181
   80  C 12  S   -0.001163  -0.003194   0.000345  -0.000469   0.000607
   81  C 12  X    0.000616  -0.001069   0.000523   0.000665   0.000148
   82  C 12  Y   -0.000323   0.001507  -0.000031   0.000313   0.000528
   83  C 12  Z   -0.000189   0.000108  -0.000234  -0.000038   0.000610
   84  C 12  S    0.003653   0.018369  -0.004436  -0.000035  -0.005036
   85  C 12  X   -0.005581  -0.003863  -0.000878  -0.004608   0.000721
   86  C 12  Y   -0.000423   0.008884   0.000014  -0.000181   0.005977
   87  C 12  Z    0.001583  -0.006966   0.003280  -0.000182  -0.004902
   88  H 13  S   -0.000790  -0.000832  -0.000169  -0.000192   0.001125
   89  H 13  S   -0.000268  -0.000301  -0.000938   0.000262   0.001804
   90  O 14  S    0.119536   0.975394   0.003538  -0.009541   0.001626
   91  O 14  S    0.014516   0.106493   0.000302  -0.000507   0.000107
   92  O 14  X   -0.000694  -0.001711  -0.000018  -0.000016   0.000340
   93  O 14  Y    0.000150  -0.002328   0.000335  -0.000049   0.000097
   94  O 14  Z    0.000090   0.002398   0.000068   0.000117   0.000075
   95  O 14  S   -0.013032  -0.058134  -0.000476  -0.001844  -0.000667
   96  O 14  X    0.005251   0.005211   0.000833   0.000480  -0.002065
   97  O 14  Y   -0.001930   0.006929  -0.001733   0.000871   0.000202
   98  O 14  Z   -0.000285  -0.006764  -0.000285  -0.000721  -0.000280
   99  C 15  S   -0.000029   0.000175  -0.000087  -0.000051   0.000088
  100  C 15  S   -0.000133   0.000679  -0.000476  -0.000232   0.000749
  101  C 15  X   -0.000160   0.000565  -0.000060  -0.000210  -0.000166
  102  C 15  Y    0.000101  -0.000057  -0.000008  -0.000082  -0.000057
  103  C 15  Z   -0.000057  -0.000452   0.000049  -0.000073  -0.000298
  104  C 15  S    0.002596  -0.005310   0.002976   0.002880  -0.002301
  105  C 15  X   -0.000930   0.003191  -0.001685  -0.000363   0.001354
  106  C 15  Y   -0.000481  -0.002415   0.000248   0.000675  -0.000661
  107  C 15  Z    0.001014   0.002692  -0.000143   0.001560   0.002598
  108  O 16  S    0.000042   0.001375   0.000581   0.002286   0.004169
  109  O 16  S    0.000017   0.000233   0.000121   0.000444   0.000604
  110  O 16  X    0.000035  -0.000205  -0.000031   0.000056  -0.000071
  111  O 16  Y   -0.000020  -0.000160   0.000015  -0.000038  -0.000094
  112  O 16  Z    0.000020   0.000142  -0.000004  -0.000047   0.000056
  113  O 16  S   -0.000150   0.000076  -0.000250  -0.001093  -0.000730
  114  O 16  X   -0.000107   0.000452   0.000237   0.000005   0.000310
  115  O 16  Y    0.000150   0.000547  -0.000017   0.000384   0.000477
  116  O 16  Z   -0.000060  -0.000711   0.000057   0.000291  -0.000278
  117  H 17  S   -0.000928  -0.000992   0.000923  -0.000285  -0.000184
  118  H 17  S   -0.000019  -0.000351   0.001697   0.000280  -0.000894
  119  H 18  S   -0.000260  -0.000457   0.003188  -0.000544  -0.000209
  120  H 18  S    0.000485   0.000431   0.005510  -0.000546   0.000556
  121  H 19  S    0.000005   0.000044  -0.000240   0.003274  -0.000532
  122  H 19  S    0.000034  -0.000465   0.000796   0.005462  -0.000464
  123  H 20  S    0.000001   0.000321  -0.000027  -0.000368   0.003329
  124  H 20  S    0.000269  -0.000126   0.000135   0.000791   0.005607
  125  H 21  S   -0.000174  -0.000292  -0.000135  -0.000011  -0.000414
  126  H 21  S   -0.000287  -0.000312   0.000224  -0.000314   0.000283
  127  H 22  S    0.000018   0.000759  -0.000214   0.000051   0.000494
  128  H 22  S    0.000307   0.001716  -0.000365   0.000221   0.001464
  129  H 23  S    0.000040  -0.000206  -0.000045   0.000176  -0.000021
  130  H 23  S    0.000086  -0.000392   0.000114  -0.000072  -0.000228
  131  H 24  S    0.003541   0.000082  -0.000409  -0.000251  -0.000041
  132  H 24  S    0.004381  -0.001557  -0.000689   0.000417   0.000301

                      6          7          8          9         10
                  -19.0095   -10.2202   -10.1721   -10.1713   -10.1700
                     A          A          A          A          A   
    1  O  1  S    0.000104   0.000007  -0.000052  -0.000087  -0.000031
    2  O  1  S   -0.000014   0.000072  -0.000506  -0.000808  -0.000106
    3  O  1  X   -0.000009   0.000265   0.000083   0.000083   0.000021
    4  O  1  Y   -0.000001  -0.000064   0.000148   0.000333  -0.000221
    5  O  1  Z    0.000013   0.000354  -0.000101   0.000079   0.000040
    6  O  1  S    0.000091   0.005958   0.002598   0.003108   0.000941
    7  O  1  X    0.000060  -0.000607  -0.000247  -0.000117  -0.000203
    8  O  1  Y   -0.000081  -0.002318  -0.000976  -0.002169  -0.000194
    9  O  1  Z   -0.000037  -0.000827   0.000576  -0.000194  -0.000174
   10  C  2  S    0.000081   0.986592   0.005795   0.002775  -0.004505
   11  C  2  S    0.000394   0.113377  -0.002837  -0.000816   0.002156
   12  C  2  X   -0.000128   0.000702  -0.000642   0.000558   0.000144
   13  C  2  Y   -0.000040  -0.001399   0.000771   0.001128   0.000292
   14  C  2  Z    0.000055   0.000126  -0.000595  -0.000488   0.000258
   15  C  2  S   -0.002301  -0.090740   0.012112  -0.002154  -0.019862
   16  C  2  X   -0.000021   0.004264   0.005432   0.001943   0.005088
   17  C  2  Y    0.000924   0.016827  -0.008108  -0.001626   0.010424
   18  C  2  Z    0.000155   0.000129   0.002418   0.003794   0.002852
   19  C  3  S   -0.000032  -0.011155   0.042375  -0.171258  -0.549642
   20  C  3  S   -0.000171  -0.005891   0.006604  -0.023066  -0.067574
   21  C  3  X    0.000046  -0.000112  -0.000002   0.000242  -0.001472
   22  C  3  Y    0.000015   0.000064  -0.000623  -0.000265   0.000667
   23  C  3  Z   -0.000115  -0.000475  -0.000079   0.000014  -0.000107
   24  C  3  S    0.001186   0.032849  -0.013532   0.045347   0.069499
   25  C  3  X    0.000349   0.011829  -0.004671   0.008933   0.012447
   26  C  3  Y    0.000678   0.012597   0.003241  -0.015683  -0.003883
   27  C  3  Z    0.001235   0.008397  -0.002218   0.003460   0.003150
   28  H  4  S    0.000063  -0.001972   0.000561  -0.002092  -0.001261
   29  H  4  S    0.000448   0.003025   0.000362  -0.001861  -0.010065
   30  O  5  S   -0.000533   0.000037  -0.000009   0.000090   0.000039
   31  O  5  S    0.000002  -0.000034  -0.000018   0.000477   0.000007
   32  O  5  X    0.000021  -0.000279  -0.000014  -0.000334  -0.000327
   33  O  5  Y    0.000042  -0.000086  -0.000117   0.000115   0.000232
   34  O  5  Z    0.000019   0.000119  -0.000111   0.000074   0.000238
   35  O  5  S   -0.000267  -0.001652   0.000399  -0.004071  -0.004368
   36  O  5  X   -0.000210  -0.000995   0.000490  -0.000923  -0.001366
   37  O  5  Y   -0.000196  -0.000566   0.000236   0.000587  -0.000632
   38  O  5  Z   -0.000078  -0.000484   0.000413   0.000262  -0.000181
   39  C  6  S   -0.000056  -0.004654  -0.076718   0.942326   0.092899
   40  C  6  S   -0.000304  -0.002308  -0.009447   0.113326   0.010202
   41  C  6  X    0.000150   0.000317  -0.000893   0.000590   0.000196
   42  C  6  Y    0.000109  -0.001085  -0.000004   0.000979  -0.000013
   43  C  6  Z    0.000139   0.000009   0.000119  -0.000441  -0.000196
   44  C  6  S    0.002891   0.004351   0.005601  -0.116775  -0.004316
   45  C  6  X    0.000876   0.003760  -0.005632  -0.011654   0.018731
   46  C  6  Y   -0.001435  -0.000415   0.002465  -0.013751  -0.012682
   47  C  6  Z   -0.001806  -0.000002   0.000218   0.008167   0.000640
   48  H  7  S    0.000115  -0.000232   0.000354   0.001847  -0.000462
   49  H  7  S    0.000282  -0.001247  -0.002661   0.014771   0.000981
   50  O  8  S   -0.002206  -0.000026  -0.000011  -0.000147   0.000005
   51  O  8  S   -0.000030  -0.000303  -0.000179  -0.000802  -0.000014
   52  O  8  X   -0.000030   0.000043  -0.000302   0.000100  -0.000282
   53  O  8  Y    0.000016  -0.000325   0.000031   0.000264  -0.000130
   54  O  8  Z    0.000016   0.000009   0.000058   0.000438   0.000127
   55  O  8  S   -0.000993   0.000469  -0.000238   0.010260   0.000162
   56  O  8  X   -0.000147  -0.000357   0.001434   0.002593  -0.000014
   57  O  8  Y   -0.000371   0.001252  -0.000515   0.003356   0.001414
   58  O  8  Z   -0.000154  -0.000023  -0.000377  -0.000443  -0.000521
   59  C  9  S   -0.000097   0.001193  -0.201728  -0.238327   0.790571
   60  C  9  S   -0.000646   0.001570  -0.028028  -0.031249   0.093962
   61  C  9  X   -0.000683  -0.000256   0.000507  -0.000155  -0.001105
   62  C  9  Y   -0.000166  -0.000516  -0.000219   0.000065   0.001129
   63  C  9  Z    0.000126   0.000080  -0.000251  -0.000123   0.000458
   64  C  9  S    0.000889  -0.010457   0.052245   0.054862  -0.082487
   65  C  9  X    0.005309   0.003096   0.008724  -0.018349   0.006519
   66  C  9  Y    0.000574  -0.003347   0.018365   0.004102  -0.009020
   67  C  9  Z   -0.000323  -0.004726   0.006689   0.005824  -0.005544
   68  H 10  S   -0.000424   0.000350  -0.002108  -0.002098   0.000313
   69  H 10  S    0.000150  -0.001527  -0.002086  -0.002819   0.013471
   70  O 11  S   -0.004143  -0.000034   0.000070   0.000080  -0.000081
   71  O 11  S   -0.000221  -0.000302   0.000190   0.000351  -0.000488
   72  O 11  X    0.000009   0.000004  -0.000013   0.000115  -0.000332
   73  O 11  Y    0.000001  -0.000193  -0.000627  -0.000199  -0.000071
   74  O 11  Z   -0.000076  -0.000167   0.000033   0.000142  -0.000367
   75  O 11  S   -0.000953   0.001031  -0.003750  -0.004089   0.007410
   76  O 11  X   -0.000154  -0.000312   0.000421   0.001784  -0.000337
   77  O 11  Y   -0.000503   0.001206  -0.000298  -0.001168   0.003363
   78  O 11  Z    0.000485   0.000728   0.000126  -0.000192   0.000541
   79  C 12  S    0.000299  -0.006732   0.962350   0.032744   0.195646
   80  C 12  S    0.001321  -0.004316   0.115430   0.003899   0.019409
   81  C 12  X   -0.000317   0.001889  -0.000823   0.001181   0.000159
   82  C 12  Y   -0.000247  -0.000452  -0.000154   0.000846  -0.000216
   83  C 12  Z    0.000100  -0.000821  -0.000290  -0.000689  -0.000424
   84  C 12  S   -0.010092   0.010988  -0.114442  -0.011889   0.004329
   85  C 12  X   -0.005564  -0.015520   0.002649  -0.003444  -0.014150
   86  C 12  Y    0.000515   0.002317   0.011816   0.002771  -0.010186
   87  C 12  Z    0.000090   0.004719   0.007025   0.005188  -0.000620
   88  H 13  S    0.000586  -0.001684   0.001786  -0.000011  -0.002106
   89  H 13  S    0.000913  -0.003542   0.015820  -0.001929   0.003943
   90  O 14  S   -0.001366  -0.000017  -0.000106   0.000063  -0.000032
   91  O 14  S   -0.000091  -0.000010  -0.000441   0.000805  -0.000266
   92  O 14  X    0.000335  -0.000254  -0.000104  -0.000229  -0.000285
   93  O 14  Y   -0.000045  -0.000260  -0.000388  -0.000456   0.000165
   94  O 14  Z   -0.000073   0.000691   0.000659   0.000109   0.000125
   95  O 14  S    0.000426   0.006483   0.008862  -0.001228   0.002141
   96  O 14  X   -0.000852  -0.003885   0.004547   0.001199   0.000273
   97  O 14  Y   -0.000019   0.002406  -0.004024   0.001537  -0.000072
   98  O 14  Z    0.000321  -0.001796  -0.001688  -0.000964  -0.000269
   99  C 15  S   -0.000912  -0.001152  -0.024573  -0.008351  -0.021160
  100  C 15  S   -0.003682  -0.001041  -0.005720  -0.002372  -0.004258
  101  C 15  X    0.001272  -0.000270  -0.000286   0.000033   0.000612
  102  C 15  Y    0.001117   0.000249  -0.000345   0.000164   0.000121
  103  C 15  Z    0.000671  -0.000221  -0.000138   0.000046   0.000102
  104  C 15  S    0.023639   0.008525   0.027561   0.008664   0.010836
  105  C 15  X    0.002275  -0.003148  -0.014649  -0.004992  -0.005291
  106  C 15  Y    0.008031  -0.001626  -0.000375  -0.001508   0.000974
  107  C 15  Z    0.007861   0.003066   0.004770   0.000599   0.000565
  108  O 16  S    0.982460   0.000017   0.000074   0.000003  -0.000000
  109  O 16  S    0.105045   0.000123   0.000394   0.000006  -0.000164
  110  O 16  X    0.000731   0.000028   0.000281  -0.000041   0.000407
  111  O 16  Y   -0.002514  -0.000058   0.000125   0.000041   0.000071
  112  O 16  Z   -0.002818   0.000053   0.000093   0.000052  -0.000043
  113  O 16  S   -0.050348  -0.000676  -0.002690  -0.000034  -0.000292
  114  O 16  X    0.000701   0.000081   0.000536   0.000405  -0.001183
  115  O 16  Y    0.007569   0.000494   0.000356  -0.000071  -0.000120
  116  O 16  Z    0.007389  -0.000160  -0.000019  -0.000242   0.000387
  117  H 17  S    0.000180   0.000721  -0.001634  -0.000434   0.001698
  118  H 17  S    0.000087   0.016951  -0.002472  -0.002226  -0.001437
  119  H 18  S    0.000061  -0.000531  -0.000162   0.000282   0.000324
  120  H 18  S   -0.000074   0.000812   0.000087   0.000833  -0.000482
  121  H 19  S    0.000103  -0.000604   0.000394  -0.000111   0.000385
  122  H 19  S   -0.000054   0.001446  -0.000304   0.001648   0.001281
  123  H 20  S    0.000070   0.000091   0.000487  -0.000049   0.000431
  124  H 20  S   -0.000097   0.000193   0.001275  -0.000152   0.001278
  125  H 21  S   -0.001405  -0.000597  -0.001261  -0.000658  -0.000631
  126  H 21  S   -0.001373  -0.000926  -0.000080  -0.000098   0.000887
  127  H 22  S   -0.001395  -0.000050  -0.001765  -0.000599  -0.000503
  128  H 22  S   -0.000864   0.000813   0.001141  -0.000053  -0.001605
  129  H 23  S    0.003236   0.000025   0.000178  -0.000175   0.000393
  130  H 23  S    0.005774   0.000232   0.001130   0.000477   0.000699
  131  H 24  S   -0.000008   0.000040   0.000006   0.000138  -0.000055
  132  H 24  S   -0.000043   0.002087   0.000679   0.000729  -0.001039

                     11         12         13         14         15
                  -10.1691   -10.1582    -1.0771    -1.0363    -1.0252
                     A          A          A          A          A   
    1  O  1  S    0.000059   0.000001  -0.136487   0.048834  -0.068097
    2  O  1  S    0.000222  -0.000016   0.125389  -0.044449   0.063273
    3  O  1  X    0.000125   0.000020   0.057371  -0.021687   0.021510
    4  O  1  Y    0.000458   0.000001  -0.022460   0.002052  -0.005000
    5  O  1  Z   -0.000004  -0.000070   0.037668  -0.013074   0.019334
    6  O  1  S   -0.002070   0.000196   0.415625  -0.156480   0.214834
    7  O  1  X   -0.000417  -0.000144   0.065607  -0.024818   0.021377
    8  O  1  Y   -0.000141   0.000119  -0.031861   0.008785  -0.012986
    9  O  1  Z   -0.000206   0.000315   0.038542  -0.016050   0.020323
   10  C  2  S    0.009276   0.000951  -0.101164   0.017763  -0.007363
   11  C  2  S   -0.003338  -0.001286   0.112133  -0.018990   0.008048
   12  C  2  X   -0.000074   0.000194   0.026333  -0.011467  -0.054479
   13  C  2  Y    0.000242   0.000245   0.035531  -0.028581   0.028874
   14  C  2  Z   -0.000011  -0.000145  -0.041932   0.010049  -0.001414
   15  C  2  S    0.027353   0.006597   0.138453  -0.023748  -0.002585
   16  C  2  X   -0.008178   0.001157  -0.002680  -0.011404  -0.004248
   17  C  2  Y   -0.012114  -0.003369  -0.017405   0.012878  -0.001567
   18  C  2  Z   -0.003323  -0.000503   0.026082  -0.003399   0.020835
   19  C  3  S    0.800738  -0.000603  -0.036856  -0.047164  -0.049246
   20  C  3  S    0.092750   0.000593   0.036840   0.049512   0.050337
   21  C  3  X    0.000351  -0.000183   0.003830  -0.034401  -0.059265
   22  C  3  Y    0.000249   0.000034   0.015704  -0.016996   0.011086
   23  C  3  Z    0.000665  -0.000021   0.011348   0.018192   0.023855
   24  C  3  S   -0.079168  -0.005470   0.058620   0.076453   0.078614
   25  C  3  X   -0.008044  -0.002042   0.010160  -0.002256   0.015893
   26  C  3  Y   -0.004375  -0.000177   0.010559  -0.010956   0.021483
   27  C  3  Z   -0.006813  -0.001404  -0.021460  -0.007831  -0.013762
   28  H  4  S   -0.000236   0.000221   0.008748   0.013472   0.012298
   29  H  4  S    0.011863  -0.000248  -0.010147  -0.007090  -0.008210
   30  O  5  S   -0.000139  -0.000021  -0.040269  -0.101845  -0.141928
   31  O  5  S   -0.001066  -0.000193   0.037326   0.095409   0.131913
   32  O  5  X   -0.000246  -0.000108   0.012921   0.024779   0.029492
   33  O  5  Y    0.000242   0.000045   0.013263   0.027399   0.046442
   34  O  5  Z   -0.000396  -0.000053  -0.011823  -0.029447  -0.040421
   35  O  5  S    0.009211   0.000591   0.121846   0.307756   0.438727
   36  O  5  X    0.004803   0.000694   0.015158   0.028218   0.042185
   37  O  5  Y   -0.000958  -0.000193   0.010297   0.026294   0.041920
   38  O  5  Z    0.000400   0.000204  -0.011985  -0.030582  -0.044227
   39  C  6  S    0.268104   0.011369  -0.017819  -0.072973   0.009301
   40  C  6  S    0.027299  -0.000449   0.019153   0.074205  -0.010206
   41  C  6  X    0.000080  -0.000296  -0.001127  -0.029783  -0.017509
   42  C  6  Y    0.000487  -0.000101   0.004559  -0.040877   0.017400
   43  C  6  Z   -0.000161   0.000047  -0.005288  -0.025520   0.004538
   44  C  6  S    0.006667   0.007858   0.021960   0.118300  -0.005605
   45  C  6  X    0.000105   0.003725  -0.010812   0.003589  -0.026666
   46  C  6  Y    0.009177   0.001883   0.005795   0.012577   0.008192
   47  C  6  Z   -0.001688  -0.001177   0.012605   0.021010  -0.008838
   48  H  7  S   -0.002485  -0.000576   0.005109   0.019942  -0.002439
   49  H  7  S    0.005561   0.000260  -0.006862  -0.012311   0.003856
   50  O  8  S    0.000010   0.000002  -0.017737  -0.151236   0.017641
   51  O  8  S   -0.000185  -0.000037   0.016405   0.140763  -0.015161
   52  O  8  X   -0.000345  -0.000089  -0.001562  -0.020988  -0.002025
   53  O  8  Y   -0.000249   0.000005   0.007903   0.056565  -0.004480
   54  O  8  Z    0.000098  -0.000026   0.005016   0.041527  -0.004450
   55  O  8  S    0.001201   0.000083   0.053104   0.461222  -0.060176
   56  O  8  X    0.001501   0.000183  -0.000021  -0.012475  -0.001983
   57  O  8  Y    0.000287  -0.000135   0.008295   0.063360  -0.007072
   58  O  8  Z   -0.000187   0.000138   0.004273   0.043986  -0.006289
   59  C  9  S    0.501723   0.016903  -0.018613  -0.045928   0.052153
   60  C  9  S    0.056029   0.000586   0.018265   0.047586  -0.054627
   61  C  9  X    0.000587  -0.001305   0.001173  -0.003134  -0.019884
   62  C  9  Y   -0.000128  -0.000500   0.008989  -0.032019   0.029110
   63  C  9  Z    0.000486   0.000362   0.004467   0.016505  -0.020308
   64  C  9  S   -0.039996  -0.000215   0.039441   0.075347  -0.075459
   65  C  9  X   -0.003628   0.006450  -0.017385  -0.013601   0.016859
   66  C  9  Y   -0.001389   0.001044   0.004786  -0.008686  -0.020645
   67  C  9  Z   -0.003847  -0.001306   0.002325  -0.013006   0.022898
   68  H 10  S   -0.000929  -0.000530   0.005262   0.012673  -0.013480
   69  H 10  S    0.007036  -0.000634  -0.000339  -0.009101   0.011480
   70  O 11  S   -0.000116   0.000056  -0.014887  -0.088781   0.109342
   71  O 11  S   -0.001046   0.000558   0.014102   0.083572  -0.100327
   72  O 11  X    0.000097   0.000302  -0.006489  -0.040859   0.046525
   73  O 11  Y   -0.000385   0.000212   0.003476   0.006109  -0.007772
   74  O 11  Z   -0.000199  -0.000045  -0.003177  -0.020762   0.024640
   75  O 11  S    0.006744  -0.001695   0.044033   0.265135  -0.343296
   76  O 11  X   -0.001091  -0.001414  -0.006801  -0.040956   0.051487
   77  O 11  Y    0.003630  -0.001410   0.000402   0.011635  -0.017248
   78  O 11  Z    0.000038   0.000464  -0.005426  -0.020233   0.029273
   79  C 12  S    0.090712   0.029004  -0.046174  -0.001994   0.047124
   80  C 12  S    0.008924   0.000828   0.050997   0.000149  -0.046735
   81  C 12  X    0.000140  -0.000714  -0.029704  -0.001573   0.015338
   82  C 12  Y    0.000005   0.000053   0.036636  -0.016908  -0.017141
   83  C 12  Z    0.000170   0.000340  -0.014423   0.000886   0.014630
   84  C 12  S    0.002560   0.020422   0.073588   0.015483  -0.082015
   85  C 12  X   -0.004375   0.017235   0.025410   0.009298  -0.006056
   86  C 12  Y   -0.006532   0.001334  -0.013508  -0.007520   0.016860
   87  C 12  Z   -0.001017  -0.005592  -0.004999   0.002126  -0.019023
   88  H 13  S   -0.000609  -0.001324   0.014422   0.000069  -0.012199
   89  H 13  S    0.001449   0.002270  -0.000908  -0.000917   0.010264
   90  O 14  S    0.000002   0.000059  -0.142865   0.026031   0.083620
   91  O 14  S   -0.000472   0.000161   0.129145  -0.024691  -0.077162
   92  O 14  X    0.000215  -0.000722  -0.042420   0.008809   0.006246
   93  O 14  Y    0.000225   0.000192  -0.032438   0.001075   0.032343
   94  O 14  Z   -0.000001   0.000120   0.040984  -0.008000  -0.023764
   95  O 14  S    0.000136  -0.002194   0.440546  -0.074380  -0.260840
   96  O 14  X    0.001345   0.001857  -0.049164   0.009416   0.006394
   97  O 14  Y    0.000063  -0.000233  -0.037373   0.001894   0.040618
   98  O 14  Z   -0.000081  -0.000579   0.048716  -0.005425  -0.030051
   99  C 15  S   -0.014015   0.985789  -0.011775  -0.000504   0.026912
  100  C 15  S   -0.002652   0.112254   0.012652   0.002230  -0.027421
  101  C 15  X    0.000541  -0.000599  -0.006455  -0.000137   0.000873
  102  C 15  Y    0.000212  -0.000411   0.004157  -0.001457  -0.012421
  103  C 15  Z   -0.000001  -0.000132   0.004381   0.000389  -0.011558
  104  C 15  S    0.004213  -0.090476   0.001571  -0.010010  -0.043217
  105  C 15  X   -0.002698   0.011044   0.003216   0.002612   0.007604
  106  C 15  Y   -0.000086   0.003522   0.012888  -0.002242  -0.006658
  107  C 15  Z   -0.000331  -0.001038  -0.011755  -0.004680   0.011230
  108  O 16  S   -0.000016  -0.000071  -0.011711   0.000038   0.046642
  109  O 16  S   -0.000228  -0.000371   0.011099  -0.000572  -0.043649
  110  O 16  X    0.000242   0.000080  -0.000796   0.000142  -0.004838
  111  O 16  Y    0.000037  -0.000315  -0.003870  -0.000004   0.014124
  112  O 16  Z    0.000007  -0.000359  -0.004638   0.000151   0.016845
  113  O 16  S    0.000447   0.007949   0.033399   0.002550  -0.140547
  114  O 16  X   -0.000818  -0.002751   0.000112  -0.000618  -0.004451
  115  O 16  Y   -0.000205  -0.001338  -0.005013  -0.001149   0.016938
  116  O 16  Z    0.000000  -0.000256  -0.002542  -0.000675   0.016679
  117  H 17  S   -0.001899  -0.000462   0.026797  -0.004039   0.000548
  118  H 17  S   -0.000028  -0.000506  -0.014407   0.002806  -0.007928
  119  H 18  S   -0.000004   0.000037   0.020402   0.050337   0.073489
  120  H 18  S    0.003040   0.000190   0.003838   0.005878   0.016777
  121  H 19  S    0.000007   0.000054   0.008701   0.076279  -0.006507
  122  H 19  S    0.001869   0.000407   0.001140   0.015216   0.002232
  123  H 20  S   -0.000432  -0.000319   0.006325   0.046506  -0.054371
  124  H 20  S    0.003115  -0.000112  -0.000243   0.010466  -0.010685
  125  H 21  S   -0.000548   0.000016   0.004807   0.001037  -0.008725
  126  H 21  S    0.000933   0.016956   0.004556   0.003458  -0.005901
  127  H 22  S   -0.000216   0.000032   0.002803   0.000393  -0.007069
  128  H 22  S   -0.001067   0.016610  -0.004319  -0.000888   0.006093
  129  H 23  S    0.000160  -0.000013   0.005195  -0.000168  -0.023272
  130  H 23  S    0.000478   0.002215  -0.000459   0.000075  -0.004305
  131  H 24  S    0.000372  -0.000033   0.062613  -0.024805   0.034774
  132  H 24  S    0.001504   0.000212   0.012856  -0.007330   0.006276

                     16         17         18         19         20
                   -1.0114    -1.0045    -1.0009    -0.7835    -0.7699
                     A          A          A          A          A   
    1  O  1  S   -0.120191   0.007259  -0.090949  -0.003068  -0.044057
    2  O  1  S    0.112430  -0.006463   0.085248   0.002605   0.042271
    3  O  1  X    0.045745  -0.000184   0.032251  -0.010471   0.013627
    4  O  1  Y   -0.000873   0.000881   0.001357  -0.008969   0.066473
    5  O  1  Z    0.032816  -0.002217   0.025018   0.001001   0.007863
    6  O  1  S    0.379507  -0.024804   0.288855   0.013784   0.155708
    7  O  1  X    0.046510   0.000668   0.032330  -0.008016   0.013318
    8  O  1  Y   -0.012171   0.003127  -0.008278  -0.005611   0.044583
    9  O  1  Z    0.038940  -0.002734   0.029294   0.003483   0.008887
   10  C  2  S   -0.010415  -0.003339   0.003582  -0.010926   0.094854
   11  C  2  S    0.011613   0.004870  -0.003332   0.018579  -0.096443
   12  C  2  X   -0.044022   0.019859  -0.051529  -0.065787  -0.004491
   13  C  2  Y    0.063061  -0.003052   0.049817  -0.043125   0.056357
   14  C  2  Z   -0.006440  -0.002674   0.000626   0.007954   0.021670
   15  C  2  S    0.016086   0.008987  -0.011162  -0.009157  -0.247183
   16  C  2  X    0.015276   0.000587   0.005762  -0.007155  -0.014808
   17  C  2  Y   -0.010940   0.002610  -0.005159  -0.007500   0.036407
   18  C  2  Z    0.001260  -0.004742   0.004966   0.007437  -0.003958
   19  C  3  S    0.029409   0.018410   0.010367  -0.086813   0.090348
   20  C  3  S   -0.031352  -0.021365  -0.011490   0.087845  -0.089640
   21  C  3  X    0.030536   0.032767   0.001901   0.058255  -0.059463
   22  C  3  Y   -0.002584  -0.015368  -0.000655  -0.039308  -0.010392
   23  C  3  Z   -0.014846  -0.011871  -0.004225   0.010582  -0.010161
   24  C  3  S   -0.049322  -0.036308  -0.018039   0.212186  -0.230185
   25  C  3  X   -0.022023  -0.006046  -0.010459   0.026274  -0.023883
   26  C  3  Y    0.012965  -0.010562   0.012764   0.017152   0.007373
   27  C  3  Z    0.003802  -0.007325  -0.001713   0.009539  -0.001628
   28  H  4  S   -0.007867  -0.005876  -0.003353   0.041808  -0.044409
   29  H  4  S    0.003142   0.000098  -0.000126  -0.004275   0.008441
   30  O  5  S    0.089570   0.081820   0.023321   0.040779  -0.042180
   31  O  5  S   -0.082578  -0.077122  -0.021226  -0.037495   0.039516
   32  O  5  X   -0.016820  -0.013445  -0.004320   0.041120  -0.044443
   33  O  5  Y   -0.028557  -0.030542  -0.007201  -0.036165   0.032258
   34  O  5  Z    0.024562   0.022587   0.006058   0.006013  -0.005164
   35  O  5  S   -0.283725  -0.251998  -0.075877  -0.149718   0.153665
   36  O  5  X   -0.024041  -0.018213  -0.005597   0.018803  -0.024027
   37  O  5  Y   -0.028591  -0.030409  -0.007590  -0.027833   0.024809
   38  O  5  Z    0.030365   0.025514   0.008794   0.007131  -0.007743
   39  C  6  S   -0.011179  -0.038518  -0.002588  -0.114978   0.044864
   40  C  6  S    0.011879   0.042118   0.005211   0.114319  -0.043041
   41  C  6  X    0.000152  -0.042751  -0.005875   0.051709   0.017363
   42  C  6  Y   -0.022955  -0.044542  -0.012268   0.064788  -0.047866
   43  C  6  Z   -0.005007  -0.020437  -0.002041  -0.011147   0.002320
   44  C  6  S    0.031352   0.063902  -0.001659   0.290428  -0.121079
   45  C  6  X    0.006724   0.009207  -0.011255   0.015990  -0.023504
   46  C  6  Y   -0.010637   0.024041  -0.001824   0.034943  -0.000945
   47  C  6  Z   -0.010938   0.001435  -0.004336  -0.011997   0.002148
   48  H  7  S    0.003928   0.010478   0.001583   0.057118  -0.022307
   49  H  7  S    0.002008  -0.003939   0.002108  -0.005125   0.003650
   50  O  8  S   -0.042248  -0.146652  -0.024180   0.054217  -0.022430
   51  O  8  S    0.040257   0.136078   0.022992  -0.050496   0.021373
   52  O  8  X   -0.004778  -0.030541  -0.004464   0.060852  -0.020360
   53  O  8  Y    0.013404   0.049228   0.007589   0.022628  -0.011142
   54  O  8  Z    0.011402   0.038541   0.006552  -0.008753   0.002883
   55  O  8  S    0.125608   0.461172   0.072990  -0.196383   0.080860
   56  O  8  X   -0.005000  -0.023569  -0.003342   0.037468  -0.013808
   57  O  8  Y    0.012156   0.059834   0.007475   0.004630  -0.004429
   58  O  8  Z    0.011897   0.045766   0.006687  -0.009417   0.004073
   59  C  9  S   -0.019552   0.044716   0.002701  -0.106149  -0.036524
   60  C  9  S    0.018164  -0.048740  -0.003707   0.108382   0.037897
   61  C  9  X    0.003252  -0.033706   0.002024  -0.041453   0.055923
   62  C  9  Y   -0.037077   0.051628  -0.013478   0.066392   0.040543
   63  C  9  Z    0.009537  -0.021469  -0.000592   0.012272   0.001491
   64  C  9  S    0.035635  -0.079323   0.010640   0.252001   0.079194
   65  C  9  X    0.008224  -0.003942  -0.008445  -0.000951  -0.015078
   66  C  9  Y    0.007342  -0.018199   0.000585   0.025051  -0.010581
   67  C  9  Z   -0.000650  -0.001282   0.011757   0.012202  -0.003903
   68  H 10  S    0.004185  -0.012851  -0.000233   0.053548   0.019784
   69  H 10  S   -0.001096   0.004684   0.003257  -0.003546  -0.002770
   70  O 11  S   -0.069479   0.147558  -0.010605   0.056960   0.020919
   71  O 11  S    0.065163  -0.137388   0.009965  -0.052862  -0.019318
   72  O 11  X   -0.030885   0.060624  -0.004913   0.016904   0.018013
   73  O 11  Y    0.000997  -0.005250  -0.000793   0.061056   0.036117
   74  O 11  Z   -0.015774   0.032695  -0.002323   0.005135  -0.000229
   75  O 11  S    0.212202  -0.458452   0.031927  -0.206213  -0.076822
   76  O 11  X   -0.033057   0.065394  -0.002543   0.021010   0.019972
   77  O 11  Y    0.005962  -0.012388   0.001691   0.031388   0.025353
   78  O 11  Z   -0.016964   0.038093  -0.003591   0.007536   0.002501
   79  C 12  S    0.039653   0.000237   0.022774  -0.068352  -0.124843
   80  C 12  S   -0.037175   0.001003  -0.025702   0.070852   0.118123
   81  C 12  X    0.004006  -0.005132   0.036107  -0.007650   0.044674
   82  C 12  Y   -0.034360   0.020752  -0.027337  -0.067562  -0.005430
   83  C 12  Z    0.012552  -0.001075   0.010639  -0.006479  -0.028417
   84  C 12  S   -0.084102   0.009106  -0.034836   0.158721   0.348728
   85  C 12  X    0.009607  -0.000218   0.023922  -0.004045  -0.012636
   86  C 12  Y   -0.006008   0.007567   0.015505  -0.008690  -0.018789
   87  C 12  Z   -0.001520  -0.013759   0.001037  -0.005653  -0.011932
   88  H 13  S   -0.010471   0.000863  -0.006299   0.036286   0.054006
   89  H 13  S    0.002986   0.003734   0.002021  -0.003187  -0.013534
   90  O 14  S    0.081844  -0.031180   0.094293   0.066077   0.006129
   91  O 14  S   -0.076199   0.028884  -0.086765  -0.059813  -0.005243
   92  O 14  X    0.001764  -0.005851   0.016692   0.021760   0.105643
   93  O 14  Y    0.035317  -0.007160   0.032947  -0.026939  -0.054218
   94  O 14  Z   -0.023399   0.008942  -0.026722  -0.015628  -0.006973
   95  O 14  S   -0.254900   0.095224  -0.300408  -0.244233  -0.025774
   96  O 14  X    0.011333  -0.010672   0.018837   0.016741   0.069929
   97  O 14  Y    0.036179  -0.011128   0.040097  -0.009941  -0.028750
   98  O 14  Z   -0.029593   0.011157  -0.035285  -0.020558  -0.004704
   99  C 15  S    0.048881   0.002238  -0.058565  -0.034775  -0.086456
  100  C 15  S   -0.050578  -0.001886   0.064653   0.038119   0.088240
  101  C 15  X   -0.015955  -0.000187   0.046008  -0.031955  -0.073565
  102  C 15  Y   -0.033557   0.002110   0.046005  -0.015366  -0.017318
  103  C 15  Z   -0.023445  -0.001028   0.032922   0.003225   0.006724
  104  C 15  S   -0.087787  -0.006502   0.088104   0.082628   0.220377
  105  C 15  X    0.001319   0.006811   0.009622   0.006045  -0.017508
  106  C 15  Y    0.001608   0.000543  -0.017825  -0.018029  -0.018321
  107  C 15  Z    0.004243   0.002308  -0.007383   0.003779  -0.000874
  108  O 16  S    0.115338   0.002007  -0.178148   0.015652   0.041159
  109  O 16  S   -0.108550  -0.001645   0.166679  -0.014487  -0.038813
  110  O 16  X   -0.017345  -0.000459   0.033772  -0.019250  -0.058123
  111  O 16  Y    0.033469   0.000680  -0.049835  -0.006140  -0.016046
  112  O 16  Z    0.041079   0.000565  -0.062321   0.003058   0.005762
  113  O 16  S   -0.348045  -0.007350   0.547149  -0.056416  -0.147934
  114  O 16  X   -0.013317  -0.000882   0.024355  -0.011694  -0.041293
  115  O 16  Y    0.037353   0.001630  -0.058487  -0.000409  -0.004214
  116  O 16  Z    0.042718   0.001250  -0.068890   0.003669   0.009477
  117  H 17  S    0.001509   0.001780  -0.002196   0.011442  -0.042543
  118  H 17  S   -0.001433   0.000250  -0.001779   0.002750   0.014123
  119  H 18  S   -0.046364  -0.044660  -0.012095  -0.045875   0.046038
  120  H 18  S   -0.006250  -0.008579   0.000544  -0.025738   0.027461
  121  H 19  S    0.021252   0.077503   0.013006  -0.056943   0.020914
  122  H 19  S    0.000051   0.013696   0.000657  -0.033203   0.013731
  123  H 20  S    0.037087  -0.075329   0.006492  -0.056850  -0.029889
  124  H 20  S    0.008603  -0.008101   0.002814  -0.035235  -0.013132
  125  H 21  S   -0.013487  -0.001403   0.016820   0.020484   0.042725
  126  H 21  S    0.008339  -0.007261  -0.008306  -0.015483  -0.011585
  127  H 22  S   -0.014089  -0.000249   0.017458   0.017855   0.043788
  128  H 22  S    0.003995   0.001908  -0.005186   0.000764  -0.001742
  129  H 23  S   -0.060534  -0.000801   0.096146  -0.017718  -0.050488
  130  H 23  S   -0.011600  -0.000785   0.020298  -0.010890  -0.026203
  131  H 24  S    0.064871  -0.003445   0.050006  -0.004429   0.054784
  132  H 24  S    0.012645  -0.001081   0.010036  -0.006242   0.027533

                     21         22         23         24         25
                   -0.6855    -0.6377    -0.6067    -0.5837    -0.5520
                     A          A          A          A          A   
    1  O  1  S    0.026874   0.031350   0.020819  -0.010404   0.018466
    2  O  1  S   -0.024993  -0.030703  -0.019911   0.010863  -0.017421
    3  O  1  X   -0.026149  -0.017970   0.025593   0.002951   0.080412
    4  O  1  Y   -0.102236  -0.144116  -0.045011   0.001126   0.180372
    5  O  1  Z    0.003346   0.014576   0.007777  -0.047940   0.009114
[...]

               ----- POPULATIONS IN EACH AO -----
                             MULLIKEN      LOWDIN
              1  O  1  S      1.98490     1.97901
              2  O  1  S      0.42304     0.57998
              3  O  1  X      0.73657     0.72874
              4  O  1  Y      0.57432     0.54630
              5  O  1  Z      0.82721     0.82844
              6  O  1  S      1.51569     1.03836
              7  O  1  X      0.90108     0.92338
              8  O  1  Y      0.63817     0.69926
              9  O  1  Z      0.97329     0.99746
             10  C  2  S      1.98726     1.97302
             11  C  2  S      0.38730     0.44148
             12  C  2  X      0.48386     0.46204
             13  C  2  Y      0.51820     0.50451
             14  C  2  Z      0.57671     0.53175
             15  C  2  S      0.87089     0.55373
             16  C  2  X      0.22524     0.41718
             17  C  2  Y      0.25451     0.43300
             18  C  2  Z      0.42064     0.52817
             19  C  3  S      1.98873     1.97355
             20  C  3  S      0.37090     0.44152
             21  C  3  X      0.47202     0.45728
             22  C  3  Y      0.59684     0.58049
             23  C  3  Z      0.57701     0.53872
             24  C  3  S      0.99309     0.55246
             25  C  3  X      0.23282     0.42366
             26  C  3  Y      0.32346     0.49634
             27  C  3  Z      0.45777     0.54397
             28  H  4  S      0.47557     0.48409
             29  H  4  S      0.31456     0.43398
             30  O  5  S      1.98482     1.97910
             31  O  5  S      0.42285     0.58072
             32  O  5  X      0.62744     0.61212
             33  O  5  Y      0.67951     0.66054
             34  O  5  Z      0.82222     0.82346
             35  O  5  S      1.51694     1.05009
             36  O  5  X      0.73925     0.79534
             37  O  5  Y      0.80315     0.83375
             38  O  5  Z      0.97413     1.00184
             39  C  6  S      1.98866     1.97348
             40  C  6  S      0.36952     0.43726
             41  C  6  X      0.55968     0.54684
             42  C  6  Y      0.50504     0.48647
             43  C  6  Z      0.57503     0.53544
             44  C  6  S      0.98972     0.54764
             45  C  6  X      0.30392     0.46906
             46  C  6  Y      0.24540     0.44322
             47  C  6  Z      0.45262     0.54347
             48  H  7  S      0.47687     0.48704
             49  H  7  S      0.32860     0.44041
             50  O  8  S      1.98480     1.97906
             51  O  8  S      0.42266     0.58004
             52  O  8  X      0.60031     0.57150
             53  O  8  Y      0.69928     0.69270
             54  O  8  Z      0.83093     0.83287
             55  O  8  S      1.51681     1.04818
             56  O  8  X      0.67653     0.72601
             57  O  8  Y      0.85823     0.89813
             58  O  8  Z      0.98153     1.00854
             59  C  9  S      1.98854     1.97349
             60  C  9  S      0.37041     0.43579
             61  C  9  X      0.56066     0.54238
             62  C  9  Y      0.49543     0.48202
             63  C  9  Z      0.57714     0.53758
             64  C  9  S      0.98647     0.54961
             65  C  9  X      0.28594     0.47784
             66  C  9  Y      0.24619     0.43109
             67  C  9  Z      0.45190     0.54505
             68  H 10  S      0.47775     0.48668
             69  H 10  S      0.32821     0.44075
             70  O 11  S      1.98489     1.97917
             71  O 11  S      0.42324     0.58183
             72  O 11  X      0.71538     0.70481
             73  O 11  Y      0.57606     0.54997
             74  O 11  Z      0.83620     0.83852
             75  O 11  S      1.52188     1.04934
             76  O 11  X      0.87375     0.90277
             77  O 11  Y      0.64847     0.71387
             78  O 11  Z      0.98469     1.01240
             79  C 12  S      1.98861     1.97357
             80  C 12  S      0.37246     0.43838
             81  C 12  X      0.56298     0.54626
             82  C 12  Y      0.47621     0.45703
             83  C 12  Z      0.58446     0.54603
             84  C 12  S      1.01059     0.55278
             85  C 12  X      0.30354     0.47832
             86  C 12  Y      0.22461     0.41813
             87  C 12  Z      0.46872     0.54552
             88  H 13  S      0.47448     0.48275
             89  H 13  S      0.31118     0.43231
             90  O 14  S      1.98543     1.97953
             91  O 14  S      0.42481     0.58784
             92  O 14  X      0.62480     0.61079
             93  O 14  Y      0.69196     0.68314
             94  O 14  Z      0.79703     0.79384
             95  O 14  S      1.52065     1.02570
             96  O 14  X      0.71320     0.76959
             97  O 14  Y      0.81403     0.85771
             98  O 14  Z      0.91627     0.96205
             99  C 15  S      1.98676     1.97357
            100  C 15  S      0.37965     0.43149
            101  C 15  X      0.54003     0.52387
            102  C 15  Y      0.54081     0.50369
            103  C 15  Z      0.55283     0.51306
            104  C 15  S      0.99856     0.56891
            105  C 15  X      0.33064     0.48176
            106  C 15  Y      0.39734     0.50095
            107  C 15  Z      0.41247     0.52759
            108  O 16  S      1.98468     1.97927
            109  O 16  S      0.42572     0.58344
            110  O 16  X      0.59769     0.56856
            111  O 16  Y      0.76219     0.76002
            112  O 16  Z      0.76419     0.76112
            113  O 16  S      1.51195     1.06094
            114  O 16  X      0.66683     0.72098
            115  O 16  Y      0.91089     0.94267
            116  O 16  Z      0.92565     0.95529
            117  H 17  S      0.48378     0.49449
            118  H 17  S      0.33851     0.45556
            119  H 18  S      0.42003     0.42959
            120  H 18  S      0.22565     0.32813
            121  H 19  S      0.41878     0.42804
            122  H 19  S      0.22347     0.32723
            123  H 20  S      0.41860     0.42765
            124  H 20  S      0.22634     0.33068
            125  H 21  S      0.47686     0.48024
            126  H 21  S      0.31982     0.43819
            127  H 22  S      0.47938     0.48195
            128  H 22  S      0.33722     0.44663
            129  H 23  S      0.43185     0.44059
            130  H 23  S      0.23215     0.33069
            131  H 24  S      0.42029     0.42961
            132  H 24  S      0.22103     0.32115

          ----- MULLIKEN ATOMIC OVERLAP POPULATIONS -----
          (OFF-DIAGONAL ELEMENTS NEED TO BE MULTIPLIED BY 2)

             1           2           3           4           5

    1    8.1684389
    2    0.2525628   5.2366355
    3   -0.0418188   0.0001775   5.7909178
    4    0.0018562  -0.0571179   0.3097949   0.6007445
    5   -0.0015015  -0.0319701   0.2244277  -0.0332016   8.1806097
    6    0.0017007  -0.0520979   0.0459510  -0.0500536  -0.0377727
    7   -0.0000386  -0.0023412  -0.0591808   0.0057130   0.0016859
    8   -0.0000003   0.0019689  -0.0354591   0.0009394  -0.0014913
    9   -0.0000459   0.0002604  -0.0530284  -0.0023267   0.0016421
   10   -0.0000060   0.0007706  -0.0008897   0.0059605  -0.0000323
   11    0.0000000   0.0000352   0.0023068  -0.0000125  -0.0000003
   12    0.0014429  -0.0705051  -0.0014912   0.0011654   0.0000767
   13   -0.0000328  -0.0088228  -0.0004696   0.0001682   0.0000007
   14   -0.0294155   0.2046341  -0.0348351   0.0022284   0.0002452
   15   -0.0000199   0.0030633  -0.0001691  -0.0000423   0.0000002
   16    0.0000000  -0.0000193  -0.0000003   0.0000001  -0.0000000
   17   -0.0409675   0.2923211  -0.0811556   0.0067080   0.0041179
   18    0.0133687  -0.0040384  -0.0553151  -0.0017460   0.2495783
   19   -0.0000006   0.0005889  -0.0047719  -0.0004575   0.0139283
   20    0.0000000  -0.0000541   0.0007346   0.0000007  -0.0000012
   21    0.0000001  -0.0000839  -0.0000109   0.0000021  -0.0000000
   22   -0.0000017  -0.0002609   0.0000024   0.0000142   0.0000000
   23   -0.0000000   0.0000045  -0.0000000  -0.0000000   0.0000000
   24    0.2487431  -0.0410919   0.0069195  -0.0002062  -0.0000319

             6           7           8           9          10

    6    5.6038535
    7    0.3158557   0.6185765
    8    0.2515196  -0.0363204   8.1627582
    9    0.1237571  -0.0540352  -0.0424287   5.5836792
   10   -0.0643105   0.0060183   0.0020181   0.3214996   0.6210513
   11   -0.0342738   0.0017783  -0.0021803   0.2266607  -0.0347565
   12   -0.0514724  -0.0019275   0.0015032   0.0572844  -0.0555341
   13   -0.0088786   0.0056946  -0.0000127  -0.0541369   0.0053602
   14   -0.0039065  -0.0001182  -0.0000015  -0.0408557   0.0026588
   15    0.0043050  -0.0001458  -0.0000113  -0.0595435  -0.0069788
   16   -0.0000128   0.0000000   0.0000000   0.0014826  -0.0000101
   17   -0.0032126   0.0065382  -0.0000286  -0.0013191   0.0001454
   18    0.0065628  -0.0001633  -0.0000178  -0.0001830   0.0000061
   19   -0.0535378  -0.0017015   0.2500486   0.0071637  -0.0002072
   20   -0.0045031  -0.0004341   0.0182749  -0.0550450  -0.0010558
   21    0.0004806   0.0000094   0.0000000   0.0027723   0.0000945
   22   -0.0001755   0.0000023   0.0000002  -0.0003680   0.0041530
   23    0.0000014  -0.0000000  -0.0000000  -0.0002115   0.0000010
   24   -0.0001868   0.0000048   0.0000001   0.0000212   0.0000015

            11          12          13          14          15

   11    8.1764709
   12   -0.0338494   5.5236680
   13    0.0045673   0.3107831   0.5855664
   14    0.0002024   0.2251424  -0.0304910   8.2634383
   15   -0.0042162   0.2333731  -0.0444265  -0.0319036   5.1966009
   16    0.0000018  -0.0411663   0.0040277   0.0002883   0.2597347
   17    0.0000050  -0.0049026   0.0121317  -0.0456167  -0.0001470
   18    0.0000001   0.0000007   0.0000035   0.0001069  -0.0000000
   19    0.0000130  -0.0001944  -0.0000014  -0.0000011   0.0000013
   20    0.2466039   0.0060654  -0.0002053  -0.0000280   0.0000021
   21    0.0151128  -0.0614052  -0.0012012   0.0017789   0.3187629
   22    0.0000884  -0.0522813   0.0061495   0.0016686   0.3140002
   23    0.0000020   0.0065801  -0.0001022  -0.0000287  -0.0431305
   24   -0.0000000  -0.0001691  -0.0000050   0.0029912  -0.0000049

            16          17          18          19          20

   16    8.1473312
   17   -0.0000023   0.6812308
   18    0.0000000   0.0001507   0.4383150
   19   -0.0000000  -0.0000061  -0.0004774   0.4324604
   20    0.0000000  -0.0000005   0.0000002  -0.0006026   0.4354438
   21   -0.0316048   0.0000118  -0.0000000   0.0000001  -0.0002369
   22   -0.0330816   0.0000278   0.0000000  -0.0000000  -0.0000161
   23    0.2428317  -0.0000003  -0.0000000   0.0000000  -0.0000002
   24   -0.0000001  -0.0037392  -0.0004746   0.0000001  -0.0000000

            21          22          23          24

   21    0.5990183
   22   -0.0443323   0.6237755
   23   -0.0024957  -0.0027681   0.4633136
   24    0.0000000   0.0000012  -0.0000000   0.4285474

          TOTAL MULLIKEN AND LOWDIN ATOMIC POPULATIONS
       ATOM         MULL.POP.    CHARGE          LOW.POP.     CHARGE
    1 O             8.574264   -0.574264         8.320927   -0.320927
    2 C             5.724619    0.275381         5.844885    0.155115
    3 C             6.012636   -0.012636         6.007981   -0.007981
    4 H             0.790131    0.209869         0.918067    0.081933
    5 O             8.570310   -0.570310         8.336973   -0.336973
    6 C             5.989593    0.010407         5.982880    0.017120
    7 H             0.805471    0.194529         0.927442    0.072558
    8 O             8.571079   -0.571079         8.337022   -0.337022
    9 C             5.962696    0.037304         5.974861    0.025139
   10 H             0.805958    0.194042         0.927423    0.072577
   11 O             8.564560   -0.564560         8.332679   -0.332679
   12 C             5.992187    0.007813         5.956022    0.043978
   13 H             0.785667    0.214333         0.915061    0.084939
   14 O             8.488182   -0.488182         8.270185   -0.270185
   15 C             6.139104   -0.139104         6.024892   -0.024892
   16 O             8.549801   -0.549801         8.332288   -0.332288
   17 H             0.822290    0.177710         0.950045    0.049955
   18 H             0.645678    0.354322         0.757716    0.242284
   19 H             0.642245    0.357755         0.755277    0.244723
   20 H             0.644943    0.355057         0.758323    0.241677
   21 H             0.796673    0.203327         0.918431    0.081569
   22 H             0.816598    0.183402         0.928577    0.071423
   23 H             0.663997    0.336003         0.771281    0.228719
   24 H             0.641320    0.358680         0.750761    0.249239

          -------------------------------
          BOND ORDER AND VALENCE ANALYSIS     BOND ORDER THRESHOLD=0.050
          -------------------------------

                   BOND                       BOND                       BOND
  ATOM PAIR DIST  ORDER      ATOM PAIR DIST  ORDER      ATOM PAIR DIST  ORDER
    1   2  1.426  0.952        1  24  0.995  0.812        2   3  1.522  0.816
    2  14  1.451  0.882        2  17  1.103  0.834        3   4  1.098  0.853
    3   5  1.454  0.917        3   6  1.514  0.861        5  18  0.996  0.805
    6   7  1.101  0.857        6   8  1.456  0.924        6   9  1.522  0.878
    8  19  0.996  0.802        9  10  1.100  0.856        9  11  1.452  0.918
    9  12  1.532  0.833       11  20  0.998  0.799       12  13  1.098  0.853
   12  14  1.474  0.857       12  15  1.516  0.928       15  16  1.459  0.943
   15  21  1.098  0.854       15  22  1.100  0.868       16  23  0.995  0.833

                       TOTAL       BONDED        FREE
      ATOM            VALENCE     VALENCE     VALENCE
    1 O                 1.891       1.891      -0.000
    2 C                 3.537       3.537      -0.000
    3 C                 3.520       3.520      -0.000
    4 H                 0.908       0.908      -0.000
    5 O                 1.869       1.869       0.000
    6 C                 3.553       3.553       0.000
    7 H                 0.912       0.912      -0.000
    8 O                 1.877       1.877       0.000
    9 C                 3.517       3.517       0.000
   10 H                 0.909       0.909       0.000
   11 O                 1.870       1.870       0.000
   12 C                 3.501       3.501      -0.000
   13 H                 0.910       0.910      -0.000
   14 O                 1.949       1.949      -0.000
   15 C                 3.602       3.602      -0.000
   16 O                 1.859       1.859      -0.000
   17 H                 0.908       0.908       0.000
   18 H                 0.858       0.858      -0.000
   19 H                 0.856       0.856      -0.000
   20 H                 0.861       0.861       0.000
   21 H                 0.915       0.915       0.000
   22 H                 0.912       0.912       0.000
   23 H                 0.857       0.857       0.000
   24 H                 0.850       0.850       0.000

          ---------------------
          ELECTROSTATIC MOMENTS
          ---------------------

 POINT   1           X           Y           Z (BOHR)    CHARGE
                -0.111279   -0.091083    0.009474       -0.00 (A.U.)
         DX          DY          DZ         /D/  (DEBYE)
    -0.231863    0.966263   -0.266316    1.028761
 ...... END OF PROPERTY EVALUATION ......
 CPU     0: STEP CPU TIME=     0.08 TOTAL CPU TIME=        523.1 (      8.7 MIN)
 TOTAL WALL CLOCK TIME=        526.4 SECONDS, CPU UTILIZATION IS    99.36%
  $VIB   
          IVIB=   0 IATOM=   0 ICOORD=   0 E=     -683.0014407220
  2.388531498E-05 3.233111609E-05 1.486477371E-05 3.745387651E-06-4.284767019E-05
 -3.949616545E-05 7.078404801E-05-3.644489775E-05-3.956339549E-06 9.346833127E-06
  5.997788532E-06 1.156011412E-05 4.857549442E-06-4.608327071E-05 9.981052444E-06
  9.006593080E-06 6.990360570E-05 1.390452706E-05 7.417365988E-06-1.609231965E-05
  6.104823264E-06-3.502304550E-05-3.140265942E-07-2.233244413E-05-9.393827831E-05
  1.517820769E-05 4.071072297E-06-1.719775776E-07-5.645246139E-06-8.010714529E-07
  2.950968673E-05-5.524313074E-06 3.148440375E-06 9.517559903E-06 2.426350074E-05
  7.461174983E-06-3.932700306E-06-6.556433043E-06-1.476632368E-05 2.776846332E-05
 -2.214402343E-05-2.412159452E-06-3.600982147E-05 3.090720002E-05 2.339476251E-05
 -1.702137310E-05 1.819822335E-05 1.202079493E-05-4.886481488E-06 1.643607307E-05
  2.002706755E-05-6.781240483E-06 8.811382258E-06-7.534847946E-06 2.677436575E-05
  3.888476962E-05-4.557493185E-07-2.474982059E-06-5.845061675E-06 3.262726169E-06
  1.053555986E-05-1.962557427E-05-2.520822322E-05-4.377186670E-06-1.574180385E-05
  3.145399704E-06 1.396837741E-06-4.565341234E-06-5.359267126E-06-2.992847862E-05
 -3.348188547E-05-1.062413779E-05
 -2.318625671E-01 9.662634373E-01-2.663156319E-01
 ......END OF GEOMETRY SEARCH......
 CPU     0: STEP CPU TIME=     0.01 TOTAL CPU TIME=        523.1 (      8.7 MIN)
 TOTAL WALL CLOCK TIME=        526.4 SECONDS, CPU UTILIZATION IS    99.36%
               956419  WORDS OF DYNAMIC MEMORY USED
 EXECUTION OF GAMESS TERMINATED NORMALLY Thu May 21 20:50:52 2020
 DDI: 263640 bytes (0.3 MB / 0 MWords) used by master data server.
Note: The following floating-point exceptions are signalling:Note: The following floating-point exceptions are signalling:Note: The following floating-point exceptions are signalling: IEEE_UNDERFLOW_FLAG IEEE_UNDERFLOW_FLAG IEEE_DENORMALNote: The following floating-point exceptions are signalling: IEEE_UNDERFLOW_FLAG IEEE_UNDERFLOW_FLAG IEEE_DENORMALNote: The following floating-point exceptions are signalling:Note: The following floating-point exceptions are signalling: IEEE_UNDERFLOW_FLAG
 ----------------------------------------
 CPU timing information for all processes
 ========================================
 0: 519.903 + 3.186 = 523.90
 1: 519.403 + 1.51 = 520.455
 2: 519.720 + 1.447 = 521.168
 3: 519.455 + 0.959 = 520.414
 4: 519.473 + 1.387 = 520.861
 5: 518.737 + 1.15 = 519.753
 6: 519.159 + 1.151 = 520.311
 7: 518.838 + 1.03 = 519.842
 ----------------------------------------
 IEEE_DENORMAL

 IEEE_DENORMAL
 IEEE_UNDERFLOW_FLAG IEEE_DENORMAL IEEE_DENORMALNote: The following floating-point exceptions are signalling: IEEE_UNDERFLOW_FLAGNote: The following floating-point exceptions are signalling: IEEE_UNDERFLOW_FLAG


 IEEE_DENORMAL
 IEEE_DENORMAL
 ddikick.x: exited gracefully.
unset echo
----- accounting info -----
Files used on the master node pietdev were:
-rwxr-xr-x 1 piet piet     1330 mei 21 20:42 /home/piet/scr/alpha-d-glucopyranose_geoopt.F05*
-rw-r--r-- 1 piet piet 57344000 mei 21 20:50 /home/piet/scr/alpha-d-glucopyranose_geoopt.F10
-rw-r--r-- 1 piet piet  6184288 mei 21 20:50 /home/piet/scr/alpha-d-glucopyranose_geoopt.F22
-rw-r--r-- 1 piet piet  6184288 mei 21 20:50 /home/piet/scr/alpha-d-glucopyranose_geoopt.F22.001
-rw-r--r-- 1 piet piet  6184288 mei 21 20:50 /home/piet/scr/alpha-d-glucopyranose_geoopt.F22.002
-rw-r--r-- 1 piet piet  6184288 mei 21 20:50 /home/piet/scr/alpha-d-glucopyranose_geoopt.F22.003
-rw-r--r-- 1 piet piet  6184288 mei 21 20:50 /home/piet/scr/alpha-d-glucopyranose_geoopt.F22.004
-rw-r--r-- 1 piet piet  6184288 mei 21 20:50 /home/piet/scr/alpha-d-glucopyranose_geoopt.F22.005
-rw-r--r-- 1 piet piet  6184288 mei 21 20:50 /home/piet/scr/alpha-d-glucopyranose_geoopt.F22.006
-rw-r--r-- 1 piet piet  6184288 mei 21 20:50 /home/piet/scr/alpha-d-glucopyranose_geoopt.F22.007
ls: No match.
ls: No match.
ls: No match.
do 21 mei 2020 20:50:55 CEST
0.107u 0.031s 8:49.60 0.0%	0+0k 0+8io 0pf+0w
