----- GAMESS execution script 'rungms' -----
This job is running on host pietdev
under operating system Linux at ma 25 mei 2020 19:43:56 CEST
Available scratch disk space (Kbyte units) at beginning of the job is
Filesystem     1K-blocks     Used Available Use% Mounted on
/dev/sda2      244568380 31071604 201003720  14% /
GAMESS temporary binary files will be written to /home/piet/scr
GAMESS supplementary output files will be written to /home/piet/gamess/scr
Copying input file rosmarinicacid_charge_geodisk.inp to your run's scratch directory...
cp rosmarinicacid_charge_geodisk.inp /home/piet/scr/rosmarinicacid_charge_geodisk.F05
unset echo
 
Assuming a single but multicore node.
 
/home/piet/gamess/ddikick.x /home/piet/gamess/gamess.03.x rosmarinicacid_charge_geodisk -ddi 1 6 pietdev:cpus=6 -scr /home/piet/scr

 Distributed Data Interface kickoff program.
 Initiating 6 compute processes on 1 nodes to run the following command:
 /home/piet/gamess/gamess.03.x rosmarinicacid_charge_geodisk 

          ******************************************************
          *         GAMESS VERSION = 30 SEP 2019 (R2)          *
          *             FROM IOWA STATE UNIVERSITY             *
          * M.W.SCHMIDT, K.K.BALDRIDGE, J.A.BOATZ, S.T.ELBERT, *
          *   M.S.GORDON, J.H.JENSEN, S.KOSEKI, N.MATSUNAGA,   *
          *          K.A.NGUYEN, S.J.SU, T.L.WINDUS,           *
          *       TOGETHER WITH M.DUPUIS, J.A.MONTGOMERY       *
          *         J.COMPUT.CHEM.  14, 1347-1363(1993)        *
          **************** 64 BIT LINUX VERSION ****************

  SINCE 1993, STUDENTS AND POSTDOCS WORKING AT IOWA STATE UNIVERSITY
  AND ALSO IN THEIR VARIOUS JOBS AFTER LEAVING ISU HAVE MADE IMPORTANT
  CONTRIBUTIONS TO THE CODE:
     IVANA ADAMOVIC, CHRISTINE AIKENS, YURI ALEXEEV, POOJA ARORA,
     ANDREY ASADCHEV, ROB BELL, PRADIPTA BANDYOPADHYAY, JONATHAN BENTZ,
     COLLEEN BERTONI, BRETT BODE, KURT BRORSEN, CALEB CARLIN, GALINA CHABAN,
     WEI CHEN, CHEOL HO CHOI, PAUL DAY, ALBERT DEFUSCO, NUWAN DESILVA,
     TIM DUDLEY, DMITRI FEDOROV, ALEX FINDLATER, GRAHAM FLETCHER, 
     MARK FREITAG, KURT GLAESEMANN, EMILIE B GUIDEZ, ANASTASIA GUNINA, 
     DAN KEMP, SAROM SOK LEANG, GRANT MERRILL,
     NORIYUKI MINEZAWA, JONATHAN MULLIN,
     TAKESHI NAGATA, SEAN NEDD, HEATHER NETZLOFF, BOSILJKA NJEGIC, RYAN OLSON,
     MIKE PAK, BUU PHAM, DAVID POOLE,
     SPENCER PRUITT, LUKE ROSKOP, TOSAPORN SATTASATHUCHANA,
     JIM SHOEMAKER, LYUDMILA SLIPCHENKO,
     TONY SMITH, JIE SONG, TETSUYA TAKETSUGU, SIMON WEBB,
     JORGE LUIS GALVEZ VALLEJO, PENG XU, SOOHAENG YOO,
     FEDERICO ZAHARIEV

  ADDITIONAL CODE HAS BEEN PROVIDED BY COLLABORATORS IN OTHER GROUPS:
     IOWA STATE UNIVERSITY:
          JOE IVANIC, AARON WEST, LAIMUTIS BYTAUTAS, KLAUS RUEDENBERG
     UNIVERSITY OF TOKYO: KIMIHIKO HIRAO, TAKAHITO NAKAJIMA,
          TAKAO TSUNEDA, MUNEAKI KAMIYA, SUSUMU YANAGISAWA,
          KIYOSHI YAGI, MAHITO CHIBA, SEIKEN TOKURA, NAOAKI KAWAKAMI
     UNIVERSITY OF AARHUS: FRANK JENSEN
     UNIVERSITY OF IOWA: VISVALDAS KAIRYS, HUI LI
     NATIONAL INST. OF STANDARDS AND TECHNOLOGY: WALT STEVENS, DAVID GARMER
     UNIVERSITY OF PISA: BENEDETTA MENNUCCI, JACOPO TOMASI
     UNIVERSITY OF MEMPHIS: HENRY KURTZ, PRAKASHAN KORAMBATH
     UNIVERSITY OF ALBERTA: TOBY ZENG, MARIUSZ KLOBUKOWSKI
     UNIVERSITY OF NEW ENGLAND: MARK SPACKMAN
     MIE UNIVERSITY: HIROAKI UMEDA
     NAT. INST. OF ADVANCED INDUSTRIAL SCIENCE AND TECHNOLOGY: KAZUO KITAURA
     MICHIGAN STATE UNIVERSITY:
          KAROL KOWALSKI, MARTA WLOCH, JEFFREY GOUR, JESSE LUTZ,
          WEI LI, JUN SHEN, J. EMILIANO DEUSTUA, PIOTR PIECUCH
     UNIVERSITY OF MINNESOTA:
          ANDREW SAND, PRACHI SHARMA, YINAN SHU
     UNIVERSITY OF SILESIA: MONIKA MUSIAL, STANISLAW KUCHARSKI
     FACULTES UNIVERSITAIRES NOTRE-DAME DE LA PAIX:
          OLIVIER QUINET, BENOIT CHAMPAGNE
     UNIVERSITY OF CALIFORNIA - SANTA BARBARA: BERNARD KIRTMAN
     INSTITUTE FOR MOLECULAR SCIENCE:
          KAZUYA ISHIMURA, MICHIO KATOUDA, AND SHIGERU NAGASE
     UNIVERSITY OF NOTRE DAME: ANNA POMOGAEVA, DAN CHIPMAN
     KYUSHU UNIVERSITY:
          HARUYUKI NAKANO,
          FENG LONG GU, JACEK KORCHOWIEC, MARCIN MAKOWSKI, AND YURIKO AOKI,
          HIROTOSHI MORI AND EISAKU MIYOSHI
     PENNSYLVANIA STATE UNIVERSITY:
          TZVETELIN IORDANOV, CHET SWALINA, JONATHAN SKONE,
          SHARON HAMMES-SCHIFFER
     WASEDA UNIVERSITY:
          MASATO KOBAYASHI, TOMOKO AKAMA, TSUGUKI TOUMA,
          TAKESHI YOSHIKAWA, YASUHIRO IKABATA, JUNJI SEINO,
          YUYA NAKAJIMA, HIROMI NAKAI
     NANJING UNIVERSITY: SHUHUA LI
     UNIVERSITY OF NEBRASKA:
          PEIFENG SU, DEJUN SI, NANDUN THELLAMUREGE, YALI WANG, HUI LI
     UNIVERSITY OF ZURICH: ROBERTO PEVERATI, KIM BALDRIDGE
     N. COPERNICUS UNIVERSITY AND JACKSON STATE UNIVERSITY:
          MARIA BARYSZ
     UNIVERSITY OF COPENHAGEN: Jimmy Kromann, CASPER STEINMANN
     TOKYO INSTITUTE OF TECHNOLOGY: HIROYA NAKATA
     NAGOYA UNIVERSITY: YOSHIO NISHIMOTO, STEPHAN IRLE
     MOSCOW STATE UNIVERSITY: VLADIMIR MIRONOV
     A.N.NESMEYANOV INSTITUTE OF ORGANOELEMENT COMPOUNDS OF RUSSIAN ACADEMY OF SCIENCES:
          IGOR S. GERASIMOV
     JOHANNES KEPLER UNIVERSITY LINZ:
          CHRISTIAN FRIEDL


 PARALLEL VERSION RUNNING ON        6 PROCESSORS IN        1 NODES.

 EXECUTION OF GAMESS BEGUN Mon May 25 19:43:57 2020

            ECHO OF THE FIRST FEW INPUT CARDS -
 INPUT CARD> $BASIS GBASIS=N21 NGAUSS=3 $END                                                
 INPUT CARD> $CONTRL SCFTYP=RHF DFTTYP=B3LYP MAXIT=60 MULT=1 ICHARG=0 $END                  
 INPUT CARD> $SYSTEM MEMDDI=1000 MWORDS=30 $END                                             
 INPUT CARD> $SCF DIRSCF=.TRUE. $END                                                        
 INPUT CARD> $ELPOT  IEPOT=1 WHERE=PDC $END                                                 
 INPUT CARD> $PDC PTSEL=GEODESIC CONSTR=CHARGE $END                                         
 INPUT CARD> $DATA                                                                          
 INPUT CARD>                                                                                
 INPUT CARD>C1                                                                              
 INPUT CARD>C 6.0000000 2.36181 1.91040 -0.04372                                            
 INPUT CARD>C 6.0000000 4.42751 -0.67893 -0.43702                                           
 INPUT CARD>C 6.0000000 3.05140 -1.07807 1.50515                                            
 INPUT CARD>C 6.0000000 3.18625 -2.45809 1.31758                                            
 INPUT CARD>C 6.0000000 -4.60906 0.08810 -0.97792                                           
 INPUT CARD>C 6.0000000 -3.73916 -0.40669 1.22322                                           
 INPUT CARD>C 6.0000000 -4.95866 -0.97425 1.57918                                           
 INPUT CARD>C 6.0000000 3.50400 1.31897 0.80912                                             
 INPUT CARD>H 1.0000000 5.29804 -3.48312 -1.66389                                           
 INPUT CARD>H 1.0000000 3.66062 -4.83411 0.60945                                            
 INPUT CARD>H 1.0000000 -6.72742 -0.18379 -2.32052                                          
 INPUT CARD>H 1.0000000 -7.80739 -1.52718 0.26517                                           
 INPUT CARD>C 6.0000000 3.66738 -0.17602 0.63007                                            
 INPUT CARD>C 6.0000000 4.56465 -2.05091 -0.63234                                           
 INPUT CARD>C 6.0000000 3.93771 -2.94362 0.25234                                            
 INPUT CARD>C 6.0000000 -3.53651 0.13353 -0.06208                                           
 INPUT CARD>C 6.0000000 -5.82492 -0.48025 -0.62367                                          
 INPUT CARD>C 6.0000000 -6.01028 -1.01900 0.66085                                           
 INPUT CARD>O 8.0000000 1.52919 4.07410 0.73285                                             
 INPUT CARD>O 8.0000000 0.13411 1.93975 -1.52363                                            
 INPUT CARD>O 8.0000000 5.31206 -2.51401 -1.67791                                           
 INPUT CARD>O 8.0000000 4.13795 -4.28171 -0.02235                                           
 INPUT CARD>O 8.0000000 3.33057 3.99484 -0.62741                                            
 INPUT CARD>O 8.0000000 -6.91984 -0.56998 -1.45655                                          
 INPUT CARD>O 8.0000000 -7.19773 -1.57902 1.01781                                           
 INPUT CARD>C 6.0000000 2.31829 3.43368 0.07883                                             
 INPUT CARD>C 6.0000000 0.06512 1.43180 -0.41781                                            
 INPUT CARD>O 8.0000000 1.13578 1.35384 0.42826                                             
 INPUT CARD>H 1.0000000 3.27081 4.95754 -0.50304                                            
 INPUT CARD>C 6.0000000 -2.27648 0.72860 -0.49799                                           
 INPUT CARD>C 6.0000000 -1.11980 0.81022 0.19158                                            
 INPUT CARD>H 1.0000000 2.49886 1.65998 -1.09980                                            
 INPUT CARD>H 1.0000000 4.42650 1.83596 0.52489                                             
 INPUT CARD>H 1.0000000 3.30392 1.55676 1.85982                                             
 INPUT CARD>H 1.0000000 4.92596 -0.00972 -1.13319                                           
 INPUT CARD>H 1.0000000 2.45650 -0.70636 2.33357                                            
 INPUT CARD>H 1.0000000 2.70610 -3.15394 2.00268                                            
 INPUT CARD>H 1.0000000 -4.47902 0.50124 -1.97651                                           
 INPUT CARD>H 1.0000000 -2.26934 1.14769 -1.50368                                           
 INPUT CARD>H 1.0000000 -2.93995 -0.37991 1.95621                                           
 INPUT CARD>H 1.0000000 -1.00046 0.42298 1.19760                                            
   30000000 WORDS OF MEMORY AVAILABLE

     BASIS OPTIONS
     -------------
     GBASIS=N21          IGAUSS=       3      POLAR=NONE    
     NDFUNC=       0     NFFUNC=       0     DIFFSP=       F
     NPFUNC=       0      DIFFS=       F     BASNAM=        


     RUN TITLE
     ---------
                                                                                 

 THE POINT GROUP OF THE MOLECULE IS C1      
 THE ORDER OF THE PRINCIPAL AXIS IS     0

 ATOM      ATOMIC                      COORDINATES (BOHR)
           CHARGE         X                   Y                   Z
 C           6.0     4.4631737351        3.6101325269       -0.0826188202
 C           6.0     8.3667807079       -1.2829916648       -0.8258480512
 C           6.0     5.7663098789       -2.0372568956        2.8443210704
 C           6.0     6.0211394284       -4.6451165532        2.4898651669
 C           6.0    -8.7098604610        0.1664848595       -1.8480008379
 C           6.0    -7.0659878243       -0.7685326619        2.3115506227
 C           6.0    -9.3705086663       -1.8410655435        2.9842174853
 C           6.0     6.6215998610        2.4924918860        1.5290150912
 H           1.0    10.0118438720       -6.5821423824       -3.1442961737
 H           1.0     6.9175687452       -9.1351432945        1.1516935032
 H           1.0   -12.7129804043       -0.3473127393       -4.3851469490
 H           1.0   -14.7538277793       -2.8859517339        0.5010986402
 C           6.0     6.9303432929       -0.3326295684        1.1906596531
 C           6.0     8.6259377299       -3.8756579255       -1.1949493311
 C           6.0     7.4411929191       -5.5626352120        0.4768534557
 C           6.0    -6.6830348528        0.2523351111       -0.1173141893
 C           6.0   -11.0075027004       -0.9075409056       -1.1785654068
 C           6.0   -11.3577823095       -1.9256307815        1.2488254190
 O           8.0     2.8897500832        7.6989326466        1.3848856901
 O           8.0     0.2534311522        3.6655959847       -2.8792432067
 O           8.0    10.0383378303       -4.7507900304       -3.1707901321
 O           8.0     7.8195916509       -8.0912586589       -0.0422353758
 O           8.0     6.2938646829        7.5491529648       -1.1856329820
 O           8.0   -13.0766014789       -1.0771060185       -2.7524803874
 O           8.0   -13.6017374336       -2.9839151291        1.9233820076
 C           6.0     4.3809328601        6.4887143295        0.1489670996
 C           6.0     0.1230589563        2.7057096692       -0.7895464149
 O           8.0     2.1463129823        2.5583866312        0.8092940515
 H           1.0     6.1809346579        9.3683921732       -0.9506077609
 C           6.0    -4.3019234165        1.3768543547       -0.9410646446
 C           6.0    -2.1161151611        1.5310937898        0.3620337047
 H           1.0     4.7221606817        3.1369073451       -2.0783206413
 H           1.0     8.3648720847        3.4694613244        0.9918982737
 H           1.0     6.2435034854        2.9418498286        3.5145501865
 H           1.0     9.3087146265       -0.0183681366       -2.1414185920
 H           1.0     4.6421118888       -1.3348268487        4.4098078732
 H           1.0     5.1137874954       -5.9600823817        3.7845164411
 H           1.0    -8.4641204935        0.9472062541       -3.7350623120
 H           1.0    -4.2884307730        2.1688196188       -2.8415431732
 H           1.0    -5.5556999176       -0.7179258000        3.6967008744
 H           1.0    -1.8905952617        0.7993162983        2.2631358429
 H           1.0    -9.6712207627       -2.6251695476        4.8554052611

          INTERNUCLEAR DISTANCES (ANGS.)
          ------------------------------

                1 C          2 C          3 C          4 C          5 C     

   1 C       0.0000000    3.3356306    3.4359112    4.6493595    7.2654343  
   2 C       3.3356306    0.0000000    2.4135069 *  2.7901179 *  9.0851805  
   3 C       3.4359112    2.4135069 *  0.0000000    1.3992220 *  8.1368444  
   4 C       4.6493595    2.7901179 *  1.3992220 *  0.0000000    8.5158242  
   5 C       7.2654343    9.0851805    8.1368444    8.5158242    0.0000000  
   6 C       6.6479980    8.3381659    6.8294905    7.2234652    2.4179662 *
   7 C       8.0339462    9.6048146    8.0110748    8.2831018    2.7909798 *
   8 C       1.5432834 *  2.5292964 *  2.5367509 *  3.8243534    8.3982317  
   9 H       6.3510988    3.1822184    4.5688589    3.7946682   10.5534259  
  10 H       6.8994169    4.3530151    3.9091257    2.5242714 *  9.7537430  
  11 H       9.6012266   11.3236566   10.5385392   10.8022713    2.5226867 *
  12 H      10.7389477   12.2843550   10.9385817   11.0830628    3.7925871  
  13 C       2.5517944 *  1.4033521 *  1.3996037 *  2.4314604 *  8.4353334  
  14 C       4.5706624    1.3925826 *  2.7937800 *  2.4223893 *  9.4261203  
  15 C       5.1120077    2.4174247 *  2.4156480 *  1.3911031 *  9.1516197  
  16 C       6.1601772    8.0141304    6.8792981    7.3359020    1.4110954 *
  17 C       8.5483389   10.2560535    9.1475855    9.4276979    1.3881031 *
  18 C       8.8977353   10.5008774    9.1011195    9.3315828    2.4237688 *
  19 O       2.4449774 *  5.6885981    5.4275617    6.7644115    7.5161854  
  20 O       2.6746294 *  5.1450452    5.1760339    6.0604480    5.1209441  
  21 O       5.5632685    2.3853208 *  4.1598532    3.6735753   10.2805440  
  22 O       6.4418442    3.6381066    3.7117592    2.4549410 *  9.8243848  
  23 O       2.3715143 *  4.8045449    5.5100058    6.7412254    8.8556874  
  24 O       9.7106849   11.3935799   10.4141946   10.6486530    2.4498694 *
  25 O      10.2317009   11.7504424   10.2729313   10.4254336    3.6692560  
  26 C       1.5288213 *  4.6506420    4.7882906    6.0828291    7.7651661  
  27 C       2.3756654 *  4.8462353    4.3491483    5.2805563    4.8956319  
  28 O       1.4267704 *  3.9643852    3.2777246    4.4188378    6.0483573  
  29 H       3.2128364    5.7543121    6.3647118    7.6363195    9.2751986  
  30 C       4.8079878    6.8504263    5.9718449    6.5797193    2.4660703 *
  31 C       3.6588756    5.7780061    4.7634037    5.5219374    3.7502164  
  32 H       1.0939826 *  3.1031384    3.8194218    4.8243892    7.2806722  
  33 H       2.1428494 *  2.6925719 *  3.3679935    4.5393219    9.3249556  
  34 H       2.1531598 *  3.3965038    2.6705592 *  4.0530101    8.5337555  
  35 H       3.3835885    1.0867139 *  3.4082525    3.8765165    9.5367858  
  36 H       3.5366519    3.4002650    1.0855202 *  2.1525168 *  7.8434221  
  37 H       5.4730091    3.8782809    2.1624071 *  1.0881697 *  8.5385224  
  38 H       7.2469555    9.1153227    8.4453183    8.8524023    1.0884746 *
  39 H       4.9153596    7.0229697    6.5051779    7.1221218    2.6217254 *
  40 H       6.1117836    7.7521887    6.0487319    6.5005390    3.4079437  
  41 H       3.8804836    5.7748633    4.3318942    5.0836503    4.2269405  
  42 H       8.5825336   10.0327259    8.2440899    8.4656144    3.8761358  

                6 C          7 C          8 C          9 H         10 H     

   1 C       6.6479980    8.0339462    1.5432834 *  6.3510988    6.8994169  
   2 C       8.3381659    9.6048146    2.5292964 *  3.1822184    4.3530151  
   3 C       6.8294905    8.0110748    2.5367509 *  4.5688589    3.9091257  
   4 C       7.2234652    8.2831018    3.8243534    3.7946682    2.5242714 *
   5 C       2.4179662 *  2.7909798 *  8.3982317   10.5534259    9.7537430  
   6 C       0.0000000    1.3914065 *  7.4573955    9.9735054    8.6449700  
   7 C       1.3914065 *  0.0000000    8.8016172   11.0458964    9.4937286  
   8 C       7.4573955    8.8016172    0.0000000    5.6916102    6.1583108  
   9 H       9.9735054   11.0458964    5.6916102    0.0000000    3.1103686  
  10 H       8.6449700    9.4937286    6.1583108    3.1103686    0.0000000  
  11 H       4.6408486    4.3544229   10.8043921   12.4871306   11.7525136  
  12 H       4.3271068    3.1855324   11.6766431   13.3902677   11.9402499  
  13 C       7.4338328    8.7147316    1.5145121 *  4.3426046    4.6581405  
  14 C       8.6660154    9.8358249    3.8156096    1.9113298 *  3.1789173  
  15 C       8.1432767    9.2078402    4.3206229    2.4111191 *  1.9437744 *
  16 C       1.4088651 *  2.4379134 *  7.1925683    9.6796294    8.7708084  
  17 C       2.7868994 *  2.4180551 *  9.6082687   11.5680389   10.5096218  
  18 C       2.4185057 *  1.3968669 *  9.7984495   11.8048467   10.3963461  
  19 O       6.9335023    8.2640371    3.3906390    8.7783921    9.1604818  
  20 O       5.2965259    6.6374040    4.1452683    7.4895504    7.9291540  
  21 O       9.7356015   10.8842632    4.9138717    0.9693128 *  3.6526886  
  22 O       8.8665713    9.8108360    5.6974425    2.1629166 *  0.9654848 *
  23 O       8.5310832    9.9132350    3.0420350    7.8016098    8.9212731  
  24 O       4.1622778    3.6366630   10.8331820   12.5620845   11.5929847  
  25 O       3.6576300    2.3862769 * 11.0891353   12.9213536   11.3431095  
  26 C       7.2629726    8.6391492    2.5320407 *  7.7303367    8.3928397  
  27 C       4.5327223    5.9173821    3.6529418    7.2864673    7.2968837  
  28 O       5.2437074    6.6247127    2.3989031 *  6.7154808    6.6856841  
  29 H       8.9941435   10.3559620    3.8749623    8.7579664    9.8623524  
  30 C       2.5280190 *  3.7958428    5.9557554    8.7447848    8.2109270  
  31 C       3.0669525    4.4549538    4.6925162    7.9412976    7.4084743  
  32 H       6.9699670    8.3504914    2.1841634 *  5.8826086    6.8150148  
  33 H       8.4967727    9.8534276    1.0950213 *  5.8174695    6.7144290  
  34 H       7.3393032    8.6460973    1.0956946 *  6.4647844    6.5218003  
  35 H       8.9885793   10.2952893    2.7495373 *  3.5333544    5.2832394  
  36 H       6.3014984    7.4582483    2.7428390 *  5.6359943    4.6325819  
  37 H       7.0495615    7.9799089    4.6976754    4.5022492    2.3822614 *
  38 H       3.4073453    3.8794402    8.4945291   10.5623746   10.0700987  
  39 H       3.4658984    4.6085895    6.2217229    8.8732919    8.6839896  
  40 H       1.0847710 *  2.1378919 *  6.7621373    9.5183778    8.0759634  
  41 H       2.8617279 *  4.2148787    4.6091078    7.9446110    7.0504314  
  42 H       2.1628747 *  1.0853412 *  9.2069441   11.4365462    9.6316827  

               11 H         12 H         13 C         14 C         15 C     

   1 C       9.6012266   10.7389477    2.5517944 *  4.5706624    5.1120077  
   2 C      11.3236566   12.2843550    1.4033521 *  1.3925826 *  2.4174247 *
   3 C      10.5385392   10.9385817    1.3996037 *  2.7937800 *  2.4156480 *
   4 C      10.8022713   11.0830628    2.4314604 *  2.4223893 *  1.3911031 *
   5 C       2.5226867 *  3.7925871    8.4353334    9.4261203    9.1516197  
   6 C       4.6408486    4.3271068    7.4338328    8.6660154    8.1432767  
   7 C       4.3544229    3.1855324    8.7147316    9.8358249    9.2078402  
   8 C      10.8043921   11.6766431    1.5145121 *  3.8156096    4.3206229  
   9 H      12.4871306   13.3902677    4.3426046    1.9113298 *  2.4111191 *
  10 H      11.7525136   11.9402499    4.6581405    3.1789173    1.9437744 *
  11 H       0.0000000    3.1075432   10.8054574   11.5692236   11.3128806  
  12 H       3.1075432    0.0000000   11.5598067   12.4156027   11.8302088  
  13 C      10.8054574   11.5598067    0.0000000    2.4318686 *  2.8063086 *
  14 C      11.5692236   12.4156027    2.4318686 *  0.0000000    1.4045083 *
  15 C      11.3128806   11.8302088    2.8063086 *  1.4045083 *  0.0000000  
  16 C       3.9221359    4.5940686    7.2436817    8.4098614    8.0889849  
  17 C       1.9446580 *  2.4116978 *  9.5795709   10.5076264   10.1066577  
  18 C       3.1781178    1.9090348 *  9.7143536   10.7035659   10.1406877  
  19 O       9.7787680   10.8979259    4.7587751    6.9709044    7.4350691  
  20 O       7.2266901    8.8479846    4.6474620    6.0290505    6.4396230  
  21 O      12.2797374   13.2992241    3.6739544    1.3661259 *  2.4081669 *
  22 O      11.8376855   12.2621879    4.1837517    2.3517290 *  1.3805924 *
  23 O      11.0222835   12.4636895    4.3692986    6.1704190    7.0203138  
  24 O       0.9657186 *  2.1606241 * 10.7980746   11.6088753   11.2445927  
  25 O       3.6486032    0.9699689 * 10.9621789   11.8869365   11.2448255  
  26 C      10.0333364   11.2771561    3.8927938    5.9693068    6.5819892  
  27 C       7.2366454    8.4379167    4.0815946    5.6939496    5.8813565  
  28 O       8.4705379    9.3971892    2.9648267 *  4.9471552    5.1332175  
  29 H      11.3886396   12.8595589    5.2720626    7.1280511    7.9651544  
  30 C       4.8953997    6.0217873    6.1172157    7.3854442    7.2570209  
  31 C       6.2244762    7.0846817    4.9073450    6.4169994    6.2986835  
  32 H       9.4875649   10.8738181    2.7800693 *  4.2727874    5.0091621  
  33 H      11.6869876   12.6903991    2.1529955 *  4.0578350    4.8122328  
  34 H      11.0060229   11.6410826    2.1556704 *  4.5624099    4.8206952  
  35 H      11.7150040   12.8994689    2.1727322 *  2.1325694 *  3.3917695  
  36 H      10.3091231   10.5023551    2.1562475 *  3.8792697    3.3957081  
  37 H      10.7936624   10.7795529    3.4170345    3.4079633    2.1505320 *
  38 H       2.3754813 *  4.4964057    8.5800218    9.4925355    9.3635558  
  39 H       4.7238272    6.3995123    6.4459089    7.5956366    7.6387102  
  40 H       5.7161011    5.2789977    6.7421827    8.1124505    7.5351171  
  41 H       6.7485857    7.1419077    4.7402132    6.3591872    6.0508706  
  42 H       5.2872392    3.5443377    9.0780975   10.2195146    9.4755998  

               16 C         17 C         18 C         19 O         20 O     

   1 C       6.1601772    8.5483389    8.8977353    2.4449774 *  2.6746294 *
   2 C       8.0141304   10.2560535   10.5008774    5.6885981    5.1450452  
   3 C       6.8792981    9.1475855    9.1011195    5.4275617    5.1760339  
   4 C       7.3359020    9.4276979    9.3315828    6.7644115    6.0604480  
   5 C       1.4110954 *  1.3881031 *  2.4237688 *  7.5161854    5.1209441  
   6 C       1.4088651 *  2.7868994 *  2.4185057 *  6.9335023    5.2965259  
   7 C       2.4379134 *  2.4180551 *  1.3968669 *  8.2640371    6.6374040  
   8 C       7.1925683    9.6082687    9.7984495    3.3906390    4.1452683  
   9 H       9.6796294   11.5680389   11.8048467    8.7783921    7.4895504  
  10 H       8.7708084   10.5096218   10.3963461    9.1604818    7.9291540  
  11 H       3.9221359    1.9446580 *  3.1781178    9.7787680    7.2266901  
  12 H       4.5940686    2.4116978 *  1.9090348 * 10.8979259    8.8479846  
  13 C       7.2436817    9.5795709    9.7143536    4.7587751    4.6474620  
  14 C       8.4098614   10.5076264   10.7035659    6.9709044    6.0290505  
  15 C       8.0889849   10.1066577   10.1406877    7.4350691    6.4396230  
  16 C       0.0000000    2.4349393 *  2.8232058 *  6.4669407    4.3441927  
  17 C       2.4349393 *  0.0000000    1.4052052 *  8.7558657    6.4943334  
  18 C       2.8232058 *  1.4052052 *  0.0000000    9.0988164    7.1609834  
  19 O       6.4669407    8.7558657    9.0988164    0.0000000    3.4049082  
  20 O       4.3441927    6.4943334    7.1609834    3.4049082    0.0000000  
  21 O       9.3764367   11.3701330   11.6576257    7.9702611    6.8316138  
  22 O       8.8539968   10.6804243   10.6816951    8.7860979    7.5492477  
  23 O       7.8984872   10.1906546   10.6794047    2.2586632 *  3.9043516  
  24 O       3.7264453    1.3786190 *  2.3478290 *  9.8867113    7.4874198  
  25 O       4.1837210    2.4054853 *  1.3605441 * 10.4018316    8.5203602  
  26 C       6.7223157    9.0622416    9.4620391    1.2085358 *  3.0935978  
  27 C       3.8449691    6.1960378    6.6393082    3.2325329    1.2188563 *
  28 O       4.8538525    7.2747362    7.5333022    2.7653862 *  2.2707946 *
  29 H       8.3549461   10.5979439   11.1001037    2.3110886 *  4.4707435  
  30 C       1.4600690 *  3.7508053    4.2823216    5.2144474    2.8861334 *
  31 C       2.5224472 *  4.9465240    5.2424283    4.2382819    2.4062572 *
  32 H       6.3113076    8.6077057    9.0929800    3.1822698    2.4186661 *
  33 H       8.1640878   10.5723995   10.8210747    3.6670047    4.7572911  
  34 H       7.2464312    9.6774404    9.7378843    3.2797452    4.6521082  
  35 H       8.5311896   10.7732275   11.1282780    5.6300744    5.1879382  
  36 H       6.5085116    8.7964943    8.6360928    5.1259152    5.2223927  
  37 H       7.3512497    9.3179737    9.0737951    7.4325061    6.7078814  
  38 H       2.1653124 *  2.1459137 *  3.4075731    7.4969692    4.8533885  
  39 H       2.1708180 *  4.0083357    4.8347045    5.2910086    2.5306776 *
  40 H       2.1663331 *  3.8715502    3.3931283    6.4271321    5.1903713  
  41 H       2.8464231 *  5.2352902    5.2407732    4.4660720    3.3155592  
  42 H       3.4268967    3.3943617    2.1391634 *  8.7978734    7.4442513  

               21 O         22 O         23 O         24 O         25 O     

   1 C       5.5632685    6.4418442    2.3715143 *  9.7106849   10.2317009  
   2 C       2.3853208 *  3.6381066    4.8045449   11.3935799   11.7504424  
   3 C       4.1598532    3.7117592    5.5100058   10.4141946   10.2729313  
   4 C       3.6735753    2.4549410 *  6.7412254   10.6486530   10.4254336  
   5 C      10.2805440    9.8243848    8.8556874    2.4498694 *  3.6692560  
   6 C       9.7356015    8.8665713    8.5310832    4.1622778    3.6576300  
   7 C      10.8842632    9.8108360    9.9132350    3.6366630    2.3862769 *
   8 C       4.9138717    5.6974425    3.0420350   10.8331820   11.0891353  
   9 H       0.9693128 *  2.1629166 *  7.8016098   12.5620845   12.9213536  
  10 H       3.6526886    0.9654848 *  8.9212731   11.5929847   11.3431095  
  11 H      12.2797374   11.8376855   11.0222835    0.9657186 *  3.6486032  
  12 H      13.2992241   12.2621879   12.4636895    2.1606241 *  0.9699689 *
  13 C       3.6739544    4.1837517    4.3692986   10.7980746   10.9621789  
  14 C       1.3661259 *  2.3517290 *  6.1704190   11.6088753   11.8869365  
  15 C       2.4081669 *  1.3805924 *  7.0203138   11.2445927   11.2448255  
  16 C       9.3764367    8.8539968    7.8984872    3.7264453    4.1837210  
  17 C      11.3701330   10.6804243   10.1906546    1.3786190 *  2.4054853 *
  18 C      11.6576257   10.6816951   10.6794047    2.3478290 *  1.3605441 *
  19 O       7.9702611    8.7860979    2.2586632 *  9.8867113   10.4018316  
  20 O       6.8316138    7.5492477    3.9043516    7.4874198    8.5203602  
  21 O       0.0000000    2.6915008 *  6.8844013   12.3873981   12.8310545  
  22 O       2.6915008 *  0.0000000    8.3378199   11.7519611   11.6997482  
  23 O       6.8844013    8.3378199    0.0000000   11.2514870   12.0257958  
  24 O      12.3873981   11.7519611   11.2514870    0.0000000    2.6866042 *
  25 O      12.8310545   11.6997482   12.0257958    2.6866042 *  0.0000000  
  26 C       6.8864948    7.9277136    1.3558710 * 10.1847794   10.7964569  
  27 C       6.6848820    7.0276973    4.1564733    7.3400116    7.9921857  
  28 O       6.0693929    6.4012107    3.5925511    8.4939158    8.8541869  
  29 H       7.8339697    9.2922944    0.9725381 * 11.6323689   12.4350284  
  30 C       8.3362264    8.1531805    6.4903068    4.9158864    5.6428239  
  31 C       7.4775879    7.3223939    5.5333843    6.1856082    6.5827317  
  32 H       5.0666062    6.2570915    2.5231855 *  9.6856544   10.4402706  
  33 H       4.9556819    6.1488714    2.6813468 * 11.7666513   12.1255013  
  34 H       5.7549395    6.1907917    3.4829955   10.9565780   10.9921222  
  35 H       2.5917680 *  4.4838403    4.3402285   11.8634494   12.4126292  
  36 H       5.2453592    4.6000827    5.6242939   10.1143147    9.7824801  
  37 H       4.5549183    2.7244827 *  7.6428000   10.5499688   10.0765168  
  38 H      10.2492020   10.0472645    8.6611205    2.7157822 *  4.5480565  
  39 H       8.4211655    8.5279592    6.3429571    4.9577981    6.1710524  
  40 H       9.2658988    8.3207819    8.0704988    5.2461969    4.5218525  
  41 H       7.5327536    7.0728808    5.9031065    6.5627389    6.5150966  
  42 H      11.3175263   10.0375528   10.5157910    4.4862573    2.6018317 *

               26 C         27 C         28 O         29 H         30 C     

   1 C       1.5288213 *  2.3756654 *  1.4267704 *  3.2128364    4.8079878  
   2 C       4.6506420    4.8462353    3.9643852    5.7543121    6.8504263  
   3 C       4.7882906    4.3491483    3.2777246    6.3647118    5.9718449  
   4 C       6.0828291    5.2805563    4.4188378    7.6363195    6.5797193  
   5 C       7.7651661    4.8956319    6.0483573    9.2751986    2.4660703 *
   6 C       7.2629726    4.5327223    5.2437074    8.9941435    2.5280190 *
   7 C       8.6391492    5.9173821    6.6247127   10.3559620    3.7958428  
   8 C       2.5320407 *  3.6529418    2.3989031 *  3.8749623    5.9557554  
   9 H       7.7303367    7.2864673    6.7154808    8.7579664    8.7447848  
  10 H       8.3928397    7.2968837    6.6856841    9.8623524    8.2109270  
  11 H      10.0333364    7.2366454    8.4705379   11.3886396    4.8953997  
  12 H      11.2771561    8.4379167    9.3971892   12.8595589    6.0217873  
  13 C       3.8927938    4.0815946    2.9648267 *  5.2720626    6.1172157  
  14 C       5.9693068    5.6939496    4.9471552    7.1280511    7.3854442  
  15 C       6.5819892    5.8813565    5.1332175    7.9651544    7.2570209  
  16 C       6.7223157    3.8449691    4.8538525    8.3549461    1.4600690 *
  17 C       9.0622416    6.1960378    7.2747362   10.5979439    3.7508053  
  18 C       9.4620391    6.6393082    7.5333022   11.1001037    4.2823216  
  19 O       1.2085358 *  3.2325329    2.7653862 *  2.3110886 *  5.2144474  
  20 O       3.0935978    1.2188563 *  2.2707946 *  4.4707435    2.8861334 *
  21 O       6.8864948    6.6848820    6.0693929    7.8339697    8.3362264  
  22 O       7.9277136    7.0276973    6.4012107    9.2922944    8.1531805  
  23 O       1.3558710 *  4.1564733    3.5925511    0.9725381 *  6.4903068  
  24 O      10.1847794    7.3400116    8.4939158   11.6323689    4.9158864  
  25 O      10.7964569    7.9921857    8.8541869   12.4350284    5.6428239  
  26 C       0.0000000    3.0546604    2.4178845 *  1.8889194 *  5.3630300  
  27 C       3.0546604    0.0000000    1.3668303 *  4.7659789    2.4462235 *
  28 O       2.4178845 *  1.3668303 *  0.0000000    4.2909587    3.5905964  
  29 H       1.8889194 *  4.7659789    4.2909587    0.0000000    6.9754129  
  30 C       5.3630300    2.4462235 *  3.5905964    6.9754129    0.0000000  
  31 C       4.3261666    1.4702902 *  2.3322052 *  6.0794915    1.3491024 *
  32 H       2.1372379 *  2.5377681 *  2.0704290 *  3.4388852    4.9023990  
  33 H       2.6825786 *  4.4803643    3.3272534    3.4837510    6.8704054  
  34 H       2.7687941 *  3.9614440    2.6060260 *  4.1411965    6.1144077  
  35 H       4.4861943    5.1203041    4.3200563    5.2735455    7.2679940  
  36 H       4.7162364    4.2261707    3.1014402    6.3866439    5.6989422  
  37 H       6.8737423    5.8191545    5.0264086    8.5084451    6.7936419  
  38 H       7.6829064    4.8933318    6.1673191    9.0603305    2.6624982 *
  39 H       5.3643674    2.5902771 *  3.9204250    6.7977569    1.0895411 *
  40 H       6.7614431    4.2365918    4.6853063    8.5504282    2.7734607 *
  41 H       4.6184480    2.1823675 *  2.4539572 *  6.4574111    2.1439814 *
  42 H       9.2064137    6.6139042    7.1565109   10.9585203    4.6868680  

               31 C         32 H         33 H         34 H         35 H     

   1 C       3.6588756    1.0939826 *  2.1428494 *  2.1531598 *  3.3835885  
   2 C       5.7780061    3.1031384    2.6925719 *  3.3965038    1.0867139 *
   3 C       4.7634037    3.8194218    3.3679935    2.6705592 *  3.4082525  
   4 C       5.5219374    4.8243892    4.5393219    4.0530101    3.8765165  
   5 C       3.7502164    7.2806722    9.3249556    8.5337555    9.5367858  
   6 C       3.0669525    6.9699670    8.4967727    7.3393032    8.9885793  
   7 C       4.4549538    8.3504914    9.8534276    8.6460973   10.2952893  
   8 C       4.6925162    2.1841634 *  1.0950213 *  1.0956946 *  2.7495373 *
   9 H       7.9412976    5.8826086    5.8174695    6.4647844    3.5333544  
  10 H       7.4084743    6.8150148    6.7144290    6.5218003    5.2832394  
  11 H       6.2244762    9.4875649   11.6869876   11.0060229   11.7150040  
  12 H       7.0846817   10.8738181   12.6903991   11.6410826   12.8994689  
  13 C       4.9073450    2.7800693 *  2.1529955 *  2.1556704 *  2.1727322 *
  14 C       6.4169994    4.2727874    4.0578350    4.5624099    2.1325694 *
  15 C       6.2986835    5.0091621    4.8122328    4.8206952    3.3917695  
  16 C       2.5224472 *  6.3113076    8.1640878    7.2464312    8.5311896  
  17 C       4.9465240    8.6077057   10.5723995    9.6774404   10.7732275  
  18 C       5.2424283    9.0929800   10.8210747    9.7378843   11.1282780  
  19 O       4.2382819    3.1822698    3.6670047    3.2797452    5.6300744  
  20 O       2.4062572 *  2.4186661 *  4.7572911    4.6521082    5.1879382  
  21 O       7.4775879    5.0666062    4.9556819    5.7549395    2.5917680 *
  22 O       7.3223939    6.2570915    6.1488714    6.1907917    4.4838403  
  23 O       5.5333843    2.5231855 *  2.6813468 *  3.4829955    4.3402285  
  24 O       6.1856082    9.6856544   11.7666513   10.9565780   11.8634494  
  25 O       6.5827317   10.4402706   12.1255013   10.9921222   12.4126292  
  26 C       4.3261666    2.1372379 *  2.6825786 *  2.7687941 *  4.4861943  
  27 C       1.4702902 *  2.5377681 *  4.4803643    3.9614440    5.1203041  
  28 O       2.3322052 *  2.0704290 *  3.3272534    2.6060260 *  4.3200563  
  29 H       6.0794915    3.4388852    3.4837510    4.1411965    5.2735455  
  30 C       1.3491024 *  4.9023990    6.8704054    6.1144077    7.2679940  
  31 C       0.0000000    3.9350292    5.6501931    4.7864021    6.2432789  
  32 H       3.9350292    0.0000000    2.5271293 *  3.0688966    2.9461547 *
  33 H       5.6501931    2.5271293 *  0.0000000    1.7664022 *  2.5308544 *
  34 H       4.7864021    3.0688966    1.7664022 *  0.0000000    3.7473967  
  35 H       6.2432789    2.9461547 *  2.5308544 *  3.7473967    0.0000000  
  36 H       4.4359957    4.1700586    3.6899342    2.4625742 *  4.3129995  
  37 H       5.7993240    5.7308077    5.4811259    4.7506307    4.9646328  
  38 H       4.0100426    7.1275598    9.3459492    8.7410357    9.4565278  
  39 H       2.0758696 *  4.8126179    7.0301554    6.5223997    7.2972051  
  40 H       2.8005847 *  6.5636120    7.8245346    6.5380344    8.4589582  
  41 H       1.0845612 *  4.3650265    5.6480923    4.5001866    6.3829668  
  42 H       5.1454028    8.9874102   10.2798297    8.9502639   10.7929965  

               36 H         37 H         38 H         39 H         40 H     

   1 C       3.5366519    5.4730091    7.2469555    4.9153596    6.1117836  
   2 C       3.4002650    3.8782809    9.1153227    7.0229697    7.7521887  
   3 C       1.0855202 *  2.1624071 *  8.4453183    6.5051779    6.0487319  
   4 C       2.1525168 *  1.0881697 *  8.8524023    7.1221218    6.5005390  
   5 C       7.8434221    8.5385224    1.0884746 *  2.6217254 *  3.4079437  
   6 C       6.3014984    7.0495615    3.4073453    3.4658984    1.0847710 *
   7 C       7.4582483    7.9799089    3.8794402    4.6085895    2.1378919 *
   8 C       2.7428390 *  4.6976754    8.4945291    6.2217229    6.7621373  
   9 H       5.6359943    4.5022492   10.5623746    8.8732919    9.5183778  
  10 H       4.6325819    2.3822614 * 10.0700987    8.6839896    8.0759634  
  11 H      10.3091231   10.7936624    2.3754813 *  4.7238272    5.7161011  
  12 H      10.5023551   10.7795529    4.4964057    6.3995123    5.2789977  
  13 C       2.1562475 *  3.4170345    8.5800218    6.4459089    6.7421827  
  14 C       3.8792697    3.4079633    9.4925355    7.5956366    8.1124505  
  15 C       3.3957081    2.1505320 *  9.3635558    7.6387102    7.5351171  
  16 C       6.5085116    7.3512497    2.1653124 *  2.1708180 *  2.1663331 *
  17 C       8.7964943    9.3179737    2.1459137 *  4.0083357    3.8715502  
  18 C       8.6360928    9.0737951    3.4075731    4.8347045    3.3931283  
  19 O       5.1259152    7.4325061    7.4969692    5.2910086    6.4271321  
  20 O       5.2223927    6.7078814    4.8533885    2.5306776 *  5.1903713  
  21 O       5.2453592    4.5549183   10.2492020    8.4211655    9.2658988  
  22 O       4.6000827    2.7244827 * 10.0472645    8.5279592    8.3207819  
  23 O       5.6242939    7.6428000    8.6611205    6.3429571    8.0704988  
  24 O      10.1143147   10.5499688    2.7157822 *  4.9577981    5.2461969  
  25 O       9.7824801   10.0765168    4.5480565    6.1710524    4.5218525  
  26 C       4.7162364    6.8737423    7.6829064    5.3643674    6.7614431  
  27 C       4.2261707    5.8191545    4.8933318    2.5902771 *  4.2365918  
  28 O       3.1014402    5.0264086    6.1673191    3.9204250    4.6853063  
  29 H       6.3866439    8.5084451    9.0603305    6.7977569    8.5504282  
  30 C       5.6989422    6.7936419    2.6624982 *  1.0895411 *  2.7734607 *
  31 C       4.4359957    5.7993240    4.0100426    2.0758696 *  2.8005847 *
  32 H       4.1700586    5.7308077    7.1275598    4.8126179    6.5636120  
  33 H       3.6899342    5.4811259    9.3459492    7.0301554    7.8245346  
  34 H       2.4625742 *  4.7506307    8.7410357    6.5223997    6.5380344  
  35 H       4.3129995    4.9646328    9.4565278    7.2972051    8.4589582  
  36 H       0.0000000    2.4824255 *  8.2544851    6.3636116    5.4194689  
  37 H       2.4824255 *  0.0000000    8.9900080    7.4534277    6.2908888  
  38 H       8.2544851    8.9900080    0.0000000    2.3503514 *  4.3140988  
  39 H       6.3636116    7.4534277    2.3503514 *  0.0000000    3.8411090  
  40 H       5.4194689    6.2908888    4.3140988    3.8411090    0.0000000  
  41 H       3.8100406    5.2135494    4.7097217    3.0711846    2.2319818 *
  42 H       7.6086604    8.0404459    4.9645483    5.5802431    2.4774136 *

               41 H         42 H     

   1 C       3.8804836    8.5825336  
   2 C       5.7748633   10.0327259  
   3 C       4.3318942    8.2440899  
   4 C       5.0836503    8.4656144  
   5 C       4.2269405    3.8761358  
   6 C       2.8617279 *  2.1628747 *
   7 C       4.2148787    1.0853412 *
   8 C       4.6091078    9.2069441  
   9 H       7.9446110   11.4365462  
  10 H       7.0504314    9.6316827  
  11 H       6.7485857    5.2872392  
  12 H       7.1419077    3.5443377  
  13 C       4.7402132    9.0780975  
  14 C       6.3591872   10.2195146  
  15 C       6.0508706    9.4755998  
  16 C       2.8464231 *  3.4268967  
  17 C       5.2352902    3.3943617  
  18 C       5.2407732    2.1391634 *
  19 O       4.4660720    8.7978734  
  20 O       3.3155592    7.4442513  
  21 O       7.5327536   11.3175263  
  22 O       7.0728808   10.0375528  
  23 O       5.9031065   10.5157910  
  24 O       6.5627389    4.4862573  
  25 O       6.5150966    2.6018317 *
  26 C       4.6184480    9.2064137  
  27 C       2.1823675 *  6.6139042  
  28 O       2.4539572 *  7.1565109  
  29 H       6.4574111   10.9585203  
  30 C       2.1439814 *  4.6868680  
  31 C       1.0845612 *  5.1454028  
  32 H       4.3650265    8.9874102  
  33 H       5.6480923   10.2798297  
  34 H       4.5001866    8.9502639  
  35 H       6.3829668   10.7929965  
  36 H       3.8100406    7.6086604  
  37 H       5.2135494    8.0404459  
  38 H       4.7097217    4.9645483  
  39 H       3.0711846    5.5802431  
  40 H       2.2319818 *  2.4774136 *
  41 H       0.0000000    4.7029866  
  42 H       4.7029866    0.0000000  

  * ... LESS THAN  3.000


     ATOMIC BASIS SET
     ----------------
 THE CONTRACTED PRIMITIVE FUNCTIONS HAVE BEEN UNNORMALIZED
 THE CONTRACTED BASIS FUNCTIONS ARE NOW NORMALIZED TO UNITY

  SHELL TYPE  PRIMITIVE        EXPONENT          CONTRACTION COEFFICIENT(S)

 C         

      1   S       1           172.2560000    0.061766907377
      1   S       2            25.9109000    0.358794042852
      1   S       3             5.5333500    0.700713083689

      2   L       4             3.6649800   -0.395895162119    0.236459946619
      2   L       5             0.7705450    1.215834355681    0.860618805716

      3   L       6             0.1958570    1.000000000000    1.000000000000

 C         

      4   S       7           172.2560000    0.061766907377
      4   S       8            25.9109000    0.358794042852
      4   S       9             5.5333500    0.700713083689

      5   L      10             3.6649800   -0.395895162119    0.236459946619
      5   L      11             0.7705450    1.215834355681    0.860618805716

      6   L      12             0.1958570    1.000000000000    1.000000000000

 C         

      7   S      13           172.2560000    0.061766907377
      7   S      14            25.9109000    0.358794042852
      7   S      15             5.5333500    0.700713083689

      8   L      16             3.6649800   -0.395895162119    0.236459946619
      8   L      17             0.7705450    1.215834355681    0.860618805716

      9   L      18             0.1958570    1.000000000000    1.000000000000

 C         

     10   S      19           172.2560000    0.061766907377
     10   S      20            25.9109000    0.358794042852
     10   S      21             5.5333500    0.700713083689

     11   L      22             3.6649800   -0.395895162119    0.236459946619
     11   L      23             0.7705450    1.215834355681    0.860618805716

     12   L      24             0.1958570    1.000000000000    1.000000000000

 C         

     13   S      25           172.2560000    0.061766907377
     13   S      26            25.9109000    0.358794042852
     13   S      27             5.5333500    0.700713083689

     14   L      28             3.6649800   -0.395895162119    0.236459946619
     14   L      29             0.7705450    1.215834355681    0.860618805716

     15   L      30             0.1958570    1.000000000000    1.000000000000

 C         

     16   S      31           172.2560000    0.061766907377
     16   S      32            25.9109000    0.358794042852
     16   S      33             5.5333500    0.700713083689

     17   L      34             3.6649800   -0.395895162119    0.236459946619
     17   L      35             0.7705450    1.215834355681    0.860618805716

     18   L      36             0.1958570    1.000000000000    1.000000000000

 C         

     19   S      37           172.2560000    0.061766907377
     19   S      38            25.9109000    0.358794042852
     19   S      39             5.5333500    0.700713083689

     20   L      40             3.6649800   -0.395895162119    0.236459946619
     20   L      41             0.7705450    1.215834355681    0.860618805716

     21   L      42             0.1958570    1.000000000000    1.000000000000

 C         

     22   S      43           172.2560000    0.061766907377
     22   S      44            25.9109000    0.358794042852
     22   S      45             5.5333500    0.700713083689

     23   L      46             3.6649800   -0.395895162119    0.236459946619
     23   L      47             0.7705450    1.215834355681    0.860618805716

     24   L      48             0.1958570    1.000000000000    1.000000000000

 H         

     25   S      49             5.4471780    0.156284978695
     25   S      50             0.8245472    0.904690876670

     26   S      51             0.1831916    1.000000000000

 H         

     27   S      52             5.4471780    0.156284978695
     27   S      53             0.8245472    0.904690876670

     28   S      54             0.1831916    1.000000000000

 H         

     29   S      55             5.4471780    0.156284978695
     29   S      56             0.8245472    0.904690876670

     30   S      57             0.1831916    1.000000000000

 H         

     31   S      58             5.4471780    0.156284978695
     31   S      59             0.8245472    0.904690876670

     32   S      60             0.1831916    1.000000000000

 C         

     33   S      61           172.2560000    0.061766907377
     33   S      62            25.9109000    0.358794042852
     33   S      63             5.5333500    0.700713083689

     34   L      64             3.6649800   -0.395895162119    0.236459946619
     34   L      65             0.7705450    1.215834355681    0.860618805716

     35   L      66             0.1958570    1.000000000000    1.000000000000

 C         

     36   S      67           172.2560000    0.061766907377
     36   S      68            25.9109000    0.358794042852
     36   S      69             5.5333500    0.700713083689

     37   L      70             3.6649800   -0.395895162119    0.236459946619
     37   L      71             0.7705450    1.215834355681    0.860618805716

     38   L      72             0.1958570    1.000000000000    1.000000000000

 C         

     39   S      73           172.2560000    0.061766907377
     39   S      74            25.9109000    0.358794042852
     39   S      75             5.5333500    0.700713083689

     40   L      76             3.6649800   -0.395895162119    0.236459946619
     40   L      77             0.7705450    1.215834355681    0.860618805716

     41   L      78             0.1958570    1.000000000000    1.000000000000

 C         

     42   S      79           172.2560000    0.061766907377
     42   S      80            25.9109000    0.358794042852
     42   S      81             5.5333500    0.700713083689

     43   L      82             3.6649800   -0.395895162119    0.236459946619
     43   L      83             0.7705450    1.215834355681    0.860618805716

     44   L      84             0.1958570    1.000000000000    1.000000000000

 C         

     45   S      85           172.2560000    0.061766907377
     45   S      86            25.9109000    0.358794042852
     45   S      87             5.5333500    0.700713083689

     46   L      88             3.6649800   -0.395895162119    0.236459946619
     46   L      89             0.7705450    1.215834355681    0.860618805716

     47   L      90             0.1958570    1.000000000000    1.000000000000

 C         

     48   S      91           172.2560000    0.061766907377
     48   S      92            25.9109000    0.358794042852
     48   S      93             5.5333500    0.700713083689

     49   L      94             3.6649800   -0.395895162119    0.236459946619
     49   L      95             0.7705450    1.215834355681    0.860618805716

     50   L      96             0.1958570    1.000000000000    1.000000000000

 O         

     51   S      97           322.0370000    0.059239393389
     51   S      98            48.4308000    0.351499960776
     51   S      99            10.4206000    0.707657921031

     52   L     100             7.4029400   -0.404453583190    0.244586106967
     52   L     101             1.5762000    1.221561761397    0.853955373466

     53   L     102             0.3736840    1.000000000000    1.000000000000

 O         

     54   S     103           322.0370000    0.059239393389
     54   S     104            48.4308000    0.351499960776
     54   S     105            10.4206000    0.707657921031

     55   L     106             7.4029400   -0.404453583190    0.244586106967
     55   L     107             1.5762000    1.221561761397    0.853955373466

     56   L     108             0.3736840    1.000000000000    1.000000000000

 O         

     57   S     109           322.0370000    0.059239393389
     57   S     110            48.4308000    0.351499960776
     57   S     111            10.4206000    0.707657921031

     58   L     112             7.4029400   -0.404453583190    0.244586106967
     58   L     113             1.5762000    1.221561761397    0.853955373466

     59   L     114             0.3736840    1.000000000000    1.000000000000

 O         

     60   S     115           322.0370000    0.059239393389
     60   S     116            48.4308000    0.351499960776
     60   S     117            10.4206000    0.707657921031

     61   L     118             7.4029400   -0.404453583190    0.244586106967
     61   L     119             1.5762000    1.221561761397    0.853955373466

     62   L     120             0.3736840    1.000000000000    1.000000000000

 O         

     63   S     121           322.0370000    0.059239393389
     63   S     122            48.4308000    0.351499960776
     63   S     123            10.4206000    0.707657921031

     64   L     124             7.4029400   -0.404453583190    0.244586106967
     64   L     125             1.5762000    1.221561761397    0.853955373466

     65   L     126             0.3736840    1.000000000000    1.000000000000

 O         

     66   S     127           322.0370000    0.059239393389
     66   S     128            48.4308000    0.351499960776
     66   S     129            10.4206000    0.707657921031

     67   L     130             7.4029400   -0.404453583190    0.244586106967
     67   L     131             1.5762000    1.221561761397    0.853955373466

     68   L     132             0.3736840    1.000000000000    1.000000000000

 O         

     69   S     133           322.0370000    0.059239393389
     69   S     134            48.4308000    0.351499960776
     69   S     135            10.4206000    0.707657921031

     70   L     136             7.4029400   -0.404453583190    0.244586106967
     70   L     137             1.5762000    1.221561761397    0.853955373466

     71   L     138             0.3736840    1.000000000000    1.000000000000

 C         

     72   S     139           172.2560000    0.061766907377
     72   S     140            25.9109000    0.358794042852
     72   S     141             5.5333500    0.700713083689

     73   L     142             3.6649800   -0.395895162119    0.236459946619
     73   L     143             0.7705450    1.215834355681    0.860618805716

     74   L     144             0.1958570    1.000000000000    1.000000000000

 C         

     75   S     145           172.2560000    0.061766907377
     75   S     146            25.9109000    0.358794042852
     75   S     147             5.5333500    0.700713083689

     76   L     148             3.6649800   -0.395895162119    0.236459946619
     76   L     149             0.7705450    1.215834355681    0.860618805716

     77   L     150             0.1958570    1.000000000000    1.000000000000

 O         

     78   S     151           322.0370000    0.059239393389
     78   S     152            48.4308000    0.351499960776
     78   S     153            10.4206000    0.707657921031

     79   L     154             7.4029400   -0.404453583190    0.244586106967
     79   L     155             1.5762000    1.221561761397    0.853955373466

     80   L     156             0.3736840    1.000000000000    1.000000000000

 H         

     81   S     157             5.4471780    0.156284978695
     81   S     158             0.8245472    0.904690876670

     82   S     159             0.1831916    1.000000000000

 C         

     83   S     160           172.2560000    0.061766907377
     83   S     161            25.9109000    0.358794042852
     83   S     162             5.5333500    0.700713083689

     84   L     163             3.6649800   -0.395895162119    0.236459946619
     84   L     164             0.7705450    1.215834355681    0.860618805716

     85   L     165             0.1958570    1.000000000000    1.000000000000

 C         

     86   S     166           172.2560000    0.061766907377
     86   S     167            25.9109000    0.358794042852
     86   S     168             5.5333500    0.700713083689

     87   L     169             3.6649800   -0.395895162119    0.236459946619
     87   L     170             0.7705450    1.215834355681    0.860618805716

     88   L     171             0.1958570    1.000000000000    1.000000000000

 H         

     89   S     172             5.4471780    0.156284978695
     89   S     173             0.8245472    0.904690876670

     90   S     174             0.1831916    1.000000000000

 H         

     91   S     175             5.4471780    0.156284978695
     91   S     176             0.8245472    0.904690876670

     92   S     177             0.1831916    1.000000000000

 H         

     93   S     178             5.4471780    0.156284978695
     93   S     179             0.8245472    0.904690876670

     94   S     180             0.1831916    1.000000000000

 H         

     95   S     181             5.4471780    0.156284978695
     95   S     182             0.8245472    0.904690876670

     96   S     183             0.1831916    1.000000000000

 H         

     97   S     184             5.4471780    0.156284978695
     97   S     185             0.8245472    0.904690876670

     98   S     186             0.1831916    1.000000000000

 H         

     99   S     187             5.4471780    0.156284978695
     99   S     188             0.8245472    0.904690876670

    100   S     189             0.1831916    1.000000000000

 H         

    101   S     190             5.4471780    0.156284978695
    101   S     191             0.8245472    0.904690876670

    102   S     192             0.1831916    1.000000000000

 H         

    103   S     193             5.4471780    0.156284978695
    103   S     194             0.8245472    0.904690876670

    104   S     195             0.1831916    1.000000000000

 H         

    105   S     196             5.4471780    0.156284978695
    105   S     197             0.8245472    0.904690876670

    106   S     198             0.1831916    1.000000000000

 H         

    107   S     199             5.4471780    0.156284978695
    107   S     200             0.8245472    0.904690876670

    108   S     201             0.1831916    1.000000000000

 H         

    109   S     202             5.4471780    0.156284978695
    109   S     203             0.8245472    0.904690876670

    110   S     204             0.1831916    1.000000000000

 TOTAL NUMBER OF BASIS SET SHELLS             =  110
 NUMBER OF CARTESIAN GAUSSIAN BASIS FUNCTIONS =  266
 NUMBER OF ELECTRONS                          =  188
 CHARGE OF MOLECULE                           =    0
 SPIN MULTIPLICITY                            =    1
 NUMBER OF OCCUPIED ORBITALS (ALPHA)          =   94
 NUMBER OF OCCUPIED ORBITALS (BETA )          =   94
 TOTAL NUMBER OF ATOMS                        =   42
 THE NUCLEAR REPULSION ENERGY IS     2141.7433165684

 SELECTED MURRAY-HANDY-LAMING RADIAL GRID

 LEGACY BECKE'S FUZZY CELL METHOD

 SELECTED ORIGINAL BECKE'S PARTITION FUNCTION

     LEBEDEV GRID-BASED DFT OPTIONS
     ------------------------------
     DFTTYP=B3LYP   
     NRAD  =      96     NLEB  =     302
     NRAD0 =      24     NLEB0 =     110
     SWOFF =    5.00E-03 (PURE SCF -> DFT)
     SWITCH=    3.00E-04 (COARSE -> TIGHT GRID)
     THRESH=    0.00E+00 GTHRE=    1.00E+00

 GRIMME'S EMPIRICAL DISPERSION CORRECTION= F

     $CONTRL OPTIONS
     ---------------
 SCFTYP=RHF          RUNTYP=ENERGY       EXETYP=RUN     
 MPLEVL=       0     CITYP =NONE         CCTYP =NONE         VBTYP =NONE    
 DFTTYP=B3LYP        TDDFT =NONE    
 MULT  =       1     ICHARG=       0     NZVAR =       0     COORD =UNIQUE  
 PP    =NONE         RELWFN=NONE         LOCAL =NONE         NUMGRD=       F
 ISPHER=      -1     NOSYM =       0     MAXIT =      60     UNITS =ANGS    
 PLTORB=       F     MOLPLT=       F     AIMPAC=       F     FRIEND=        
 NPRINT=       7     IREST =       0     GEOM  =INPUT   
 NORMF =       0     NORMP =       0     ITOL  =      20     ICUT  =       9
 INTTYP=BEST         GRDTYP=BEST         QMTTOL= 1.0E-06

     $SYSTEM OPTIONS
     ---------------
  REPLICATED MEMORY=    30000000 WORDS (ON EVERY NODE).
 DISTRIBUTED MEMDDI=        1000 MILLION WORDS IN AGGREGATE,
 MEMDDI DISTRIBUTED OVER   6 PROCESSORS IS   166666666 WORDS/PROCESSOR.
 TOTAL MEMORY REQUESTED ON EACH PROCESSOR=   196666666 WORDS.
 TIMLIM=      525600.00 MINUTES, OR     365.0 DAYS.
 PARALL= T  BALTYP=  DLB     KDIAG=    0  COREFL= F
 MXSEQ2=     300 MXSEQ3=     150  mem10=         0

     INPUT FOR POTENTIAL-DERIVED CHARGES 
     -----------------------------------
     VDWSCL=    1.40   RMAX=    3.00   DELR=    0.80
     VDWINC=    0.20 PTDENS=    0.28
     LAYER =       4  NFREQ=      30 MAXPDC=   10000
     CONSTR=CHARGE    UNITS=ANGS      PTSEL=GEODESIC
     CENTER=  0.0000  0.0000  0.0000
     DPOLE =  0.0000  0.0000  0.0000
     QPOLE =  0.0000  0.0000  0.0000  0.0000  0.0000  0.0000


          ----------------
          PROPERTIES INPUT
          ----------------

     MOMENTS            FIELD           POTENTIAL          DENSITY
 IEMOM =       1   IEFLD =       0   IEPOT =       1   IEDEN =       0
 WHERE =COMASS     WHERE =NUCLEI     WHERE =PDC        WHERE =NUCLEI  
 OUTPUT=BOTH       OUTPUT=BOTH       OUTPUT=BOTH       OUTPUT=BOTH    
 IEMINT=       0   IEFINT=       0                     IEDINT=       0
                                                       MORB  =       0
          EXTRAPOLATION IN EFFECT
          DIIS IN EFFECT
 ORBITAL PRINTING OPTION: NPREO=     1   266     2     1

     -------------------------------
     INTEGRAL TRANSFORMATION OPTIONS
     -------------------------------
     NWORD  =            0
     CUTOFF = 1.0E-09     MPTRAN =       0
     DIRTRF =       T     AOINTS =DUP     

          ----------------------
          INTEGRAL INPUT OPTIONS
          ----------------------
 NOPK  =       1 NORDER=       0 SCHWRZ=       T

     ------------------------------------------
     THE POINT GROUP IS C1 , NAXIS= 0, ORDER= 1
     ------------------------------------------

     DIMENSIONS OF THE SYMMETRY SUBSPACES ARE
 A   =  266

 ..... DONE SETTING UP THE RUN .....
 CPU     0: STEP CPU TIME=     0.03 TOTAL CPU TIME=          0.0 (      0.0 MIN)
 TOTAL WALL CLOCK TIME=          0.0 SECONDS, CPU UTILIZATION IS    75.00%

          ********************
          1 ELECTRON INTEGRALS
          ********************
 ...... END OF ONE-ELECTRON INTEGRALS ......
 CPU     0: STEP CPU TIME=     0.02 TOTAL CPU TIME=          0.0 (      0.0 MIN)
 TOTAL WALL CLOCK TIME=          0.1 SECONDS, CPU UTILIZATION IS    71.43%

          -------------
          GUESS OPTIONS
          -------------
          GUESS =HUCKEL            NORB  =       0          NORDER=       0
          MIX   =       F          PRTMO =       F          PUNMO =       F
          TOLZ  = 1.0E-08          TOLE  = 1.0E-05
          SYMDEN=       F          PURIFY=       F

 INITIAL GUESS ORBITALS GENERATED BY HUCKEL   ROUTINE.
 HUCKEL GUESS REQUIRES    630138 WORDS.

 SYMMETRIES FOR INITIAL GUESS ORBITALS FOLLOW.   BOTH SET(S).
    94 ORBITALS ARE OCCUPIED (   26 CORE ORBITALS).
    27=A       28=A       29=A       30=A       31=A       32=A       33=A   
    34=A       35=A       36=A       37=A       38=A       39=A       40=A   
    41=A       42=A       43=A       44=A       45=A       46=A       47=A   
    48=A       49=A       50=A       51=A       52=A       53=A       54=A   
    55=A       56=A       57=A       58=A       59=A       60=A       61=A   
    62=A       63=A       64=A       65=A       66=A       67=A       68=A   
    69=A       70=A       71=A       72=A       73=A       74=A       75=A   
    76=A       77=A       78=A       79=A       80=A       81=A       82=A   
    83=A       84=A       85=A       86=A       87=A       88=A       89=A   
    90=A       91=A       92=A       93=A       94=A       95=A       96=A   
    97=A       98=A       99=A      100=A      101=A      102=A      103=A   
   104=A   
 ...... END OF INITIAL ORBITAL SELECTION ......
 CPU     0: STEP CPU TIME=     0.14 TOTAL CPU TIME=          0.2 (      0.0 MIN)
 TOTAL WALL CLOCK TIME=          0.3 SECONDS, CPU UTILIZATION IS    65.52%

                    ----------------------
                    AO INTEGRAL TECHNOLOGY
                    ----------------------
     S,P,L SHELL ROTATED AXIS INTEGRALS, REPROGRAMMED BY
        KAZUYA ISHIMURA (IMS) AND JOSE SIERRA (SYNSTAR).
     S,P,D,L SHELL ROTATED AXIS INTEGRALS PROGRAMMED BY
        KAZUYA ISHIMURA (INSTITUTE FOR MOLECULAR SCIENCE).
     S,P,D,F,G SHELL TO TOTAL QUARTET ANGULAR MOMENTUM SUM 5,
        ERIC PROGRAM BY GRAHAM FLETCHER (ELORET AND NASA ADVANCED
        SUPERCOMPUTING DIVISION, AMES RESEARCH CENTER).
     S,P,D,F,G,L SHELL GENERAL RYS QUADRATURE PROGRAMMED BY
        MICHEL DUPUIS (PACIFIC NORTHWEST NATIONAL LABORATORY).

          --------------------
          2 ELECTRON INTEGRALS
          --------------------

 DIRECT SCF METHOD SKIPS INTEGRAL STORAGE ON DISK.
 DIRECT TRANSFORMATION SKIPS AO INTEGRAL STORAGE ON DISK.
  ...... END OF TWO-ELECTRON INTEGRALS .....
 CPU     0: STEP CPU TIME=     0.02 TOTAL CPU TIME=          0.2 (      0.0 MIN)
 TOTAL WALL CLOCK TIME=          0.3 SECONDS, CPU UTILIZATION IS    67.74%

          --------------------------
             R-B3LYP SCF CALCULATION
          --------------------------

     NUCLEAR ENERGY =      2141.7433165684
     MAXIT =   60     NPUNCH=    2
     EXTRAP=T  DAMP=F  SHIFT=F  RSTRCT=F  DIIS=T  DEM=F  SOSCF=F
         DENSITY MATRIX CONVERGENCE THRESHOLD=  2.00E-05
     COARSE -> FINE DFT GRID SWITCH THRESHOLD=  3.00E-04 (SWITCH IN $DFT)
                   HF -> DFT SWITCH THRESHOLD=  5.00E-03 (SWOFF IN $DFT)
     MEMORY REQUIRED FOR RHF ITERS=   1919164 WORDS.

 DIRECT SCF CALCULATION, SCHWRZ=T   FDIFF=T,  DIRTHR=  0.00E+00 NITDIR=10
 SCHWARZ INEQUALITY OVERHEAD:     22239 INTEGRALS, T=        0.00

 DFT CODE IS SWITCHING FROM THE FINE GRID NRAD= 96,  NLEB=  302
                      TO THE COARSE GRID NRAD0= 24, NLEB0=  110

     EXCHANGE FUNCTIONAL   =B88&HFX   
     CORRELATION FUNCTIONAL=LYP88&VWN5
     DFT THRESHOLD         =.328E-08
     GRID CHANGE THRESHOLD =.300E-03
 FOR AN EULER-MACLAURIN QUADRATURE USING  96 RADIAL POINTS:
 SMALLEST GAUSSIAN PRIMITIVE EXPONENT=        0.1831915800 OF TYPE -S-
 ON ATOM NUMBER   9 HAS RADIAL NORMALIZATION=  1.000000
  LARGEST GAUSSIAN PRIMITIVE EXPONENT=      322.0370000000 OF TYPE -S-
 ON ATOM NUMBER  19 HAS RADIAL NORMALIZATION=  1.000000
 DFT IS SWITCHED OFF, PERFORMING PURE SCF UNTIL SWOFF THRESHOLD IS REACHED.

                                                                                   NONZERO     BLOCKS
 ITER EX DEM     TOTAL ENERGY        E CHANGE  DENSITY CHANGE    DIIS ERROR      INTEGRALS    SKIPPED
   1  0  0    -1279.4602219136 -1279.4602219136   0.795671295   0.576094218      100269805   16121937
          * * *   INITIATING DIIS PROCEDURE   * * *
   2  1  0    -1282.4095108434    -2.9492889298   0.134985556   0.135207573      100161267   16183438
   3  2  0    -1282.5708663050    -0.1613554616   0.102523137   0.098986129       99249135   16356360
   4  3  0    -1282.6617513663    -0.0908850613   0.025192360   0.014563277       97097435   16524658
   5  4  0    -1282.6662779968    -0.0045266305   0.004457986   0.003510472       95141190   16614935
 CONVERGED TO SWOFF, SO DFT CALCULATION IS NOW SWITCHED ON.
          * * *   INITIATING DIIS PROCEDURE   * * *
   6  5  0    -1289.3371331550    -6.6708551583   0.201518257   0.073927248      100343323   16084872
   7  6  0    -1289.4384752124    -0.1013420574   0.092111418   0.026573222       99705848   16295489
   8  7  0    -1289.4380869884     0.0003882240   0.051140815   0.035429502       98492413   16423346
   9  8  0    -1289.4658401856    -0.0277531972   0.012526165   0.020649415       97136194   16522299
  10  9  0    -1289.4679007209    -0.0020605353   0.003165350   0.007396612       93134671   16698637
  11 10  0    -1289.4681428753    -0.0002421544   0.000603552   0.000403530       87088219   16894671
  12 11  0    -1289.4681453181    -0.0000024429   0.000429964   0.000470620       81558608   17033498
  13 12  0    -1289.4681474017    -0.0000020835   0.000104734   0.000089980       75336647   17201265
 DFT CODE IS SWITCHING BACK TO THE FINE GRID
          * * *   INITIATING DIIS PROCEDURE   * * *
  14 13  0    -1289.4732207769    -0.0050733752   0.002047284   0.002861679      100388482   16059447
  15 14  0    -1289.4732949395    -0.0000741627   0.001907185   0.000902834       89407589   16820939
  16 15  0    -1289.4732967364    -0.0000017969   0.000995794   0.000992060       83290289   16991985
  17 16  0    -1289.4733082561    -0.0000115197   0.000253902   0.000304467       80348020   17070140
  18 17  0    -1289.4733087077    -0.0000004517   0.000086360   0.000144014       72783971   17260403
  19 18  0    -1289.4733087882    -0.0000000805   0.000026858   0.000011920       66128581   17413573
  20 19  0    -1289.4733087930    -0.0000000048   0.000008221   0.000010339       61084814   17521970
  21 20  0    -1289.4733087948    -0.0000000017   0.000003258   0.000004977       56184099   17631948

          -----------------
          DENSITY CONVERGED
          -----------------
     TIME TO FORM FOCK OPERATORS=     175.7 SECONDS (       8.4 SEC/ITER)
     FOCK TIME ON FIRST ITERATION=       1.5, LAST ITERATION=      16.7
     TIME TO SOLVE SCF EQUATIONS=       1.1 SECONDS (       0.1 SEC/ITER)

 FINAL R-B3LYP ENERGY IS    -1289.4733087948 AFTER  21 ITERATIONS
 DFT EXCHANGE + CORRELATION ENERGY =      -138.4006004090
 TOTAL ELECTRON NUMBER             =       188.0007994812

          ------------
          EIGENVECTORS
          ------------

                      1          2          3          4          5
                  -19.0847   -19.0803   -19.0744   -19.0727   -19.0691
                     A          A          A          A          A   
    1  C  1  S   -0.000000  -0.000138  -0.000002  -0.000868  -0.000003
    2  C  1  S    0.000011  -0.001216  -0.000038  -0.003489  -0.000021
    3  C  1  X   -0.000032   0.000011  -0.000023  -0.001600  -0.000002
    4  C  1  Y   -0.000008  -0.000580   0.000025  -0.000811   0.000006
    5  C  1  Z   -0.000006  -0.000751  -0.000024  -0.000226  -0.000011
    6  C  1  S    0.000077   0.004140  -0.000166   0.020829   0.000103
    7  C  1  X    0.000074  -0.004824  -0.000019  -0.010976  -0.000022
    8  C  1  Y   -0.000028  -0.000453  -0.000316  -0.002288  -0.000065
    9  C  1  Z    0.000132   0.009153  -0.000031   0.008212   0.000095
   10  C  2  S   -0.000000  -0.000010   0.000242  -0.000088  -0.000000
   11  C  2  S   -0.000000  -0.000023   0.000899  -0.000452  -0.000002
   12  C  2  X   -0.000000  -0.000006  -0.000040   0.000006  -0.000000
   13  C  2  Y   -0.000000   0.000090   0.001014   0.000116   0.000000
   14  C  2  Z   -0.000000   0.000066   0.000052   0.000038   0.000000
   15  C  2  S    0.000003   0.001259  -0.025548   0.005883   0.000027
   16  C  2  X    0.000000  -0.000192   0.005001  -0.002478  -0.000011
   17  C  2  Y    0.000007   0.000699   0.010121   0.001809   0.000017
   18  C  2  Z    0.000005   0.000313  -0.006951   0.003165   0.000017
   19  C  3  S   -0.000000   0.000034   0.000277   0.000059   0.000000
   20  C  3  S   -0.000000   0.000179   0.001124   0.000321   0.000001
   21  C  3  X    0.000000   0.000001  -0.000187   0.000003   0.000001
   22  C  3  Y    0.000000  -0.000094   0.000813  -0.000230  -0.000002
   23  C  3  Z   -0.000000  -0.000046   0.000262   0.000019   0.000001
   24  C  3  S   -0.000002  -0.002625  -0.025113  -0.004897  -0.000030
   25  C  3  X   -0.000002  -0.000921  -0.005812  -0.001088  -0.000010
   26  C  3  Y   -0.000001  -0.000027   0.009677  -0.001463  -0.000001
   27  C  3  Z    0.000006   0.001606   0.008216   0.001358   0.000008
   28  C  4  S    0.000000  -0.000014  -0.000318  -0.000031  -0.000000
   29  C  4  S    0.000000  -0.000067  -0.001710  -0.000208  -0.000001
   30  C  4  X   -0.000000  -0.000020   0.000111  -0.000065  -0.000001
   31  C  4  Y    0.000000   0.000050  -0.001379  -0.000006   0.000000
   32  C  4  Z    0.000000   0.000029  -0.000154   0.000071   0.000000
   33  C  4  S    0.000002   0.001015   0.028933   0.000998   0.000011
   34  C  4  X    0.000001   0.000325   0.008847   0.000647   0.000005
   35  C  4  Y   -0.000001   0.000401   0.023564   0.000292   0.000004
   36  C  4  Z   -0.000002  -0.000546  -0.012664  -0.000795  -0.000003
   37  C  5  S   -0.000355  -0.000005   0.000000  -0.000039   0.000291
   38  C  5  S   -0.001910  -0.000026   0.000001  -0.000234   0.001134
   39  C  5  X   -0.000899   0.000016  -0.000000   0.000053   0.000775
   40  C  5  Y    0.000034   0.000010  -0.000000   0.000044   0.000409
   41  C  5  Z   -0.000988  -0.000003   0.000000  -0.000056  -0.000352
   42  C  5  S    0.031927   0.000405  -0.000010   0.003043  -0.028973
   43  C  5  X    0.006119  -0.000020   0.000002  -0.000975   0.007264
   44  C  5  Y   -0.007948  -0.000083   0.000003  -0.001249   0.007118
   45  C  5  Z    0.027642   0.000208  -0.000007   0.002457  -0.012257
   46  C  6  S   -0.000170   0.000001  -0.000000  -0.000035   0.000275
   47  C  6  S   -0.000864   0.000002  -0.000000  -0.000242   0.001112
   48  C  6  X    0.000191  -0.000007  -0.000000   0.000073   0.000793
   49  C  6  Y   -0.000022  -0.000010  -0.000000   0.000033   0.000315
   50  C  6  Z    0.000254   0.000002  -0.000000  -0.000053  -0.000078
   51  C  6  S    0.010443  -0.000121   0.000000   0.002285  -0.025302
   52  C  6  X   -0.009510  -0.000096   0.000006  -0.002657   0.012460
   53  C  6  Y   -0.001739  -0.000037   0.000002  -0.000891   0.002215
   54  C  6  Z   -0.004569   0.000081   0.000003  -0.000021   0.006176
   55  C  7  S    0.000219  -0.000001  -0.000000   0.000015  -0.000350
   56  C  7  S    0.000755  -0.000009   0.000000   0.000033  -0.001878
   57  C  7  X    0.000782  -0.000001   0.000000  -0.000067  -0.000994
   58  C  7  Y   -0.000016  -0.000002   0.000000  -0.000055  -0.000482
   59  C  7  Z    0.000813   0.000009  -0.000000   0.000091   0.000353
   60  C  7  S   -0.024145  -0.000047   0.000004  -0.002441   0.030433
   61  C  7  X   -0.000114  -0.000023   0.000001  -0.001045   0.008752
   62  C  7  Y   -0.004055  -0.000005   0.000001  -0.000519   0.011757
   63  C  7  Z    0.011046  -0.000039  -0.000001   0.000331  -0.023695
   64  C  8  S    0.000002   0.000136  -0.000041   0.000169   0.000002
   65  C  8  S    0.000012   0.000931  -0.000144   0.000630   0.000007
   66  C  8  X    0.000006  -0.000249  -0.000016   0.000250   0.000006
   67  C  8  Y    0.000000   0.000476  -0.000322  -0.000238   0.000000
   68  C  8  Z    0.000003   0.000473  -0.000059   0.000804   0.000005
   69  C  8  S   -0.000104  -0.002436   0.005129  -0.004259  -0.000063
   70  C  8  X    0.000049   0.004411   0.000392   0.006182   0.000046
   71  C  8  Y   -0.000050  -0.004059  -0.001963  -0.000005  -0.000023
   72  C  8  Z    0.000019  -0.003683   0.000215  -0.004946  -0.000014
   73  H  9  S   -0.000000   0.000021  -0.000908   0.000045   0.000000
   74  H  9  S   -0.000000  -0.000049   0.002507  -0.000090  -0.000000
   75  H 10  S   -0.000000  -0.000018   0.003601  -0.000051  -0.000000
   76  H 10  S    0.000000   0.000006   0.003418   0.000058   0.000000
   77  H 11  S    0.003584  -0.000005   0.000000  -0.000031  -0.000742
   78  H 11  S    0.003403   0.000000   0.000000  -0.000002   0.001846
   79  H 12  S   -0.000885   0.000001   0.000000  -0.000029   0.003831
   80  H 12  S    0.002444  -0.000001  -0.000000   0.000035   0.003990
   81  C 13  S    0.000001   0.000040  -0.000197   0.000090   0.000001
   82  C 13  S    0.000004   0.000278  -0.000940   0.000710   0.000005
   83  C 13  X    0.000001   0.000131  -0.000085   0.000275   0.000004
   84  C 13  Y    0.000002   0.000184   0.000567   0.000321   0.000003
   85  C 13  Z    0.000000  -0.000059   0.000113  -0.000596  -0.000003
   86  C 13  S   -0.000020  -0.001831   0.013076  -0.002715  -0.000025
   87  C 13  X   -0.000011  -0.001795   0.002179  -0.004763  -0.000029
   88  C 13  Y   -0.000015  -0.003394  -0.012961  -0.001308  -0.000021
   89  C 13  Z    0.000001   0.001796  -0.003051   0.007074   0.000035
   90  C 14  S    0.000000   0.000012  -0.000257   0.000026   0.000000
   91  C 14  S    0.000000   0.000098  -0.001947   0.000180   0.000001
   92  C 14  X   -0.000000  -0.000039   0.000016  -0.000078  -0.000001
   93  C 14  Y   -0.000000   0.000015  -0.000800  -0.000077  -0.000000
   94  C 14  Z    0.000000   0.000031  -0.000012   0.000083   0.000001
   95  C 14  S    0.000002  -0.000008   0.022442  -0.000687   0.000003
   96  C 14  X    0.000001   0.000264  -0.013172   0.001294   0.000006
   97  C 14  Y    0.000004   0.000024   0.018067   0.000768   0.000008
   98  C 14  Z   -0.000003  -0.000321   0.018462  -0.001634  -0.000009
   99  C 15  S   -0.000000   0.000005  -0.000078  -0.000009  -0.000000
  100  C 15  S   -0.000000   0.000037   0.001753  -0.000044  -0.000000
  101  C 15  X   -0.000000   0.000015  -0.000104   0.000049   0.000000
  102  C 15  Y    0.000000   0.000019  -0.000168   0.000030   0.000000
  103  C 15  Z   -0.000000  -0.000031   0.000135  -0.000053  -0.000000
  104  C 15  S    0.000001  -0.000298  -0.005014   0.000749   0.000004
  105  C 15  X    0.000003   0.000195   0.007114   0.000553   0.000003
  106  C 15  Y    0.000001  -0.000166  -0.045620   0.000367   0.000001
  107  C 15  Z   -0.000002  -0.000246  -0.009866  -0.000904  -0.000006
  108  C 16  S    0.000315  -0.000005   0.000000  -0.000107  -0.000181
  109  C 16  S    0.001318  -0.000029   0.000001  -0.000603  -0.000855
  110  C 16  X    0.000507  -0.000031   0.000001  -0.000244   0.000530
  111  C 16  Y    0.000188  -0.000004   0.000000  -0.000104   0.000257
  112  C 16  Z    0.000012  -0.000021   0.000000   0.000040  -0.000188
  113  C 16  S   -0.025562   0.000078  -0.000008   0.005655   0.011801
  114  C 16  X    0.014434   0.000411  -0.000017   0.007229  -0.013565
  115  C 16  Y    0.002494   0.000010  -0.000006   0.002792  -0.006175
  116  C 16  Z    0.006965   0.000258  -0.000002  -0.000830   0.003812
  117  C 17  S   -0.000054   0.000003  -0.000000   0.000017  -0.000268
  118  C 17  S    0.001920   0.000014  -0.000000   0.000037  -0.001878
  119  C 17  X    0.000021  -0.000004   0.000000  -0.000097  -0.000978
  120  C 17  Y    0.000068  -0.000003   0.000000  -0.000028  -0.000438
  121  C 17  Z   -0.000162   0.000002  -0.000000  -0.000022   0.000233
  122  C 17  S   -0.005476  -0.000195   0.000006  -0.002374   0.025238
  123  C 17  X   -0.038191  -0.000118   0.000004  -0.001049   0.029613
  124  C 17  Y   -0.003083  -0.000030   0.000001  -0.000300   0.007042
  125  C 17  Z   -0.029169  -0.000029   0.000001  -0.000215   0.009918
  126  C 18  S   -0.000248  -0.000000   0.000000  -0.000015  -0.000017
  127  C 18  S   -0.001931  -0.000004   0.000000  -0.000118   0.002115
  128  C 18  X   -0.000534  -0.000004   0.000000  -0.000057  -0.000131
  129  C 18  Y    0.000043  -0.000001  -0.000000  -0.000026  -0.000181
  130  C 18  Z   -0.000646  -0.000004   0.000000   0.000013   0.000356
  131  C 18  S    0.021547   0.000018  -0.000002   0.000522  -0.004305
  132  C 18  X    0.027021   0.000036  -0.000002   0.000908  -0.045282
  133  C 18  Y    0.009649   0.000024  -0.000001   0.000500  -0.018523
  134  C 18  Z    0.000348  -0.000019   0.000000  -0.000445   0.005919
  135  O 19  S   -0.000022  -0.002581  -0.000006  -0.002470  -0.000044
  136  O 19  S   -0.000008  -0.000755  -0.000001  -0.000863  -0.000012
  137  O 19  X   -0.000001   0.000358   0.000006  -0.000022   0.000001
  138  O 19  Y    0.000001   0.000775  -0.000006   0.000017   0.000002
  139  O 19  Z   -0.000001  -0.000169   0.000007   0.000001  -0.000000
  140  O 19  S    0.000031   0.003364   0.000013   0.003821   0.000032
  141  O 19  X    0.000006  -0.002544  -0.000031   0.000456   0.000002
  142  O 19  Y   -0.000011  -0.004561   0.000046  -0.001215  -0.000009
  143  O 19  Z    0.000003   0.001397  -0.000034  -0.000486  -0.000004
  144  O 20  S   -0.000057   0.000472  -0.000021  -0.002372   0.000364
  145  O 20  S   -0.000020   0.000187  -0.000007  -0.000773   0.000135
  146  O 20  X    0.000036   0.000082  -0.000004   0.000784   0.000015
  147  O 20  Y    0.000006   0.000000  -0.000001   0.000178   0.000002
  148  O 20  Z    0.000014   0.000014  -0.000001   0.000082   0.000008
  149  O 20  S    0.000007  -0.000642   0.000011   0.004033  -0.000538
  150  O 20  X   -0.000155  -0.000437   0.000016  -0.004677  -0.000016
  151  O 20  Y   -0.000038  -0.000055   0.000002  -0.001100   0.000047
  152  O 20  Z   -0.000028  -0.000261   0.000004  -0.000659  -0.000128
  153  O 21  S    0.000001   0.000341  -0.016625   0.001190   0.000008
  154  O 21  S    0.000000   0.000080  -0.003633   0.000250   0.000002
  155  O 21  X   -0.000000  -0.000005   0.000155  -0.000006  -0.000000
  156  O 21  Y    0.000000  -0.000002  -0.000280  -0.000010   0.000000
  157  O 21  Z    0.000000   0.000013  -0.000213   0.000017   0.000000
  158  O 21  S   -0.000001  -0.000212   0.010676  -0.000741  -0.000004
  159  O 21  X    0.000000   0.000043  -0.002198   0.000103   0.000001
  160  O 21  Y   -0.000001  -0.000017   0.001425  -0.000109  -0.000001
  161  O 21  Z   -0.000000  -0.000080   0.003062  -0.000185  -0.000001
  162  O 22  S   -0.000000   0.000438   0.982728  -0.000518  -0.000006
  163  O 22  S   -0.000000   0.000059   0.108328  -0.000050  -0.000001
  164  O 22  X    0.000000   0.000007  -0.001817   0.000015   0.000000
  165  O 22  Y    0.000000   0.000007   0.002560   0.000002  -0.000000
  166  O 22  Z   -0.000000  -0.000007   0.002425  -0.000026  -0.000000
[...]
   2868    0.17167   -3.31452   -1.48882       -21.412048      21.395778      -0.016270
   2869   -4.40390    6.37670    2.21289       -18.779125      18.757446      -0.021679
   2870   -3.26001    5.66974    4.06375       -18.781113      18.761631      -0.019482
   2871   -3.96697    3.81888    5.20764       -18.705802      18.696812      -0.008990
   2872   -5.38922    4.80420    3.63514       -18.881624      18.864742      -0.016882
   2873   -0.97222   -4.02148    0.36203       -20.736934      20.725606      -0.011328
   2874   -2.11612   -3.76490    2.38492       -20.322156      20.319193      -0.002964
   2875    4.72216    0.75254   -5.93631       -19.425817      19.410835      -0.014982
   2876    6.20285    1.30668   -5.95481       -18.922655      18.911713      -0.010942
   2877    4.72216    5.52128   -5.93631       -18.450832      18.431678      -0.019154
   2878    6.20285    4.96714   -5.95481       -18.005048      17.990935      -0.014114
   2879    7.68353    4.05202   -5.38924       -18.153065      18.143823      -0.009242
   2880    4.72216    4.05202   -6.52038       -18.215216      18.197945      -0.017270
   2881    6.34047    3.13691   -6.31511       -18.042163      18.031629      -0.010534
   2882    4.72216    2.22179   -6.52038       -18.577881      18.562506      -0.015375
   2883    3.80705   -0.17401   -5.03969       -20.735694      20.718162      -0.017532
   2884   12.22286    3.46946    3.37627       -15.899040      15.897305      -0.001735
   2885   11.32625    4.38458    4.30281       -15.939807      15.939798      -0.000009
   2886   12.24136    1.98877    2.82213       -16.748706      16.742802      -0.005904
   2887   12.24136    4.95015    2.82213       -15.449410      15.449946       0.000536
   2888   11.67579    6.43083    1.90701       -15.581477      15.582811       0.001334
   2889   10.98335    6.08794    3.61038       -15.800655      15.802651       0.001997
   2890   10.19510    7.34595    2.47258       -16.426105      16.429006       0.002901
   2891   11.67579    6.43083    0.07678       -15.886416      15.885014      -0.001402
   2892   12.60166    5.08777    0.99190       -15.465202      15.465338       0.000136
   2893   12.80693    3.46946    1.90701       -15.791327      15.789661      -0.001667
   2894   12.24136    4.95015   -0.83833       -15.965981      15.964717      -0.001263
   2895   12.80693    3.46946    0.07678       -16.062642      16.061241      -0.001401
   2896   12.22286    3.46946   -1.39247       -16.628804      16.628107      -0.000696
   2897   11.32625    4.38458   -2.31902       -16.953792      16.951377      -0.002415
   2898    7.72419    1.11162    7.39104       -17.031015      17.030116      -0.000899
   2899    9.20488    2.02674    6.82547       -16.515267      16.513291      -0.001975
   2900    6.24350    2.02674    7.95661       -16.777220      16.779073       0.001853
   2901    7.86181    2.94185    7.75134       -16.060782      16.061613       0.000831
   2902    9.20488    3.85696    6.82547       -15.904678      15.905113       0.000435
   2903    6.24350    3.85696    7.95661       -16.242568      16.243353       0.000784
   2904    7.72419    4.77208    7.39104       -15.855624      15.856661       0.001037
   2905    6.24350    5.32622    7.37254       -16.309365      16.308798      -0.000567
   2906    8.86198    5.56033    6.13303       -16.043599      16.045148       0.001549
   2907    8.07373    6.81834    4.99524       -16.986858      16.989486       0.002628
   2908    7.15862    6.25277    6.47592       -16.388482      16.388683       0.000201
   2909    5.32839    6.25277    6.47592       -17.239006      17.234274      -0.004732
   2910    4.76282    4.77208    7.39104       -17.016355      17.013528      -0.002826
   2911    3.28213    3.85696    6.82547       -18.397444      18.391229      -0.006215
   2912    4.62519    2.94185    7.75134       -17.245036      17.245366       0.000330
   2913   12.61963    2.94301   -1.22630       -16.405666      16.403891      -0.001775
   2914   11.69309    3.83962   -2.14142       -16.855851      16.854904      -0.000947
   2915   12.61963    2.94301   -3.05653       -15.740764      15.738025      -0.002739
   2916   13.54551    1.59994   -2.14142       -15.542122      15.536376      -0.005746
   2917   13.18520    1.46232   -3.97165       -15.209197      15.202916      -0.006281
   2918   13.75077   -0.01837   -3.05653       -15.464414      15.452912      -0.011502
   2919   13.16671   -0.01837   -4.52579       -15.343458      15.331167      -0.012291
   2920    9.30871    2.36600   -5.99941       -16.806944      16.800676      -0.006269
   2921   10.78940    1.81186   -6.01791       -15.832267      15.825735      -0.006533
   2922   12.27009    0.89675   -5.45233       -15.317046      15.308347      -0.008699
   2923    9.30871    0.89675   -6.58348       -16.570709      16.560905      -0.009805
   2924   10.92702   -0.01837   -6.37821       -15.884986      15.871708      -0.013278
   2925   11.13894    3.85812   -3.62211       -16.658991      16.656000      -0.002991
   2926   11.92720    2.60011   -4.75990       -15.583107      15.579001      -0.004106
   2927   10.22383    3.29255   -5.10279       -16.624281      16.619756      -0.004526
   2928    8.39360    3.29255   -5.10279       -18.229445      18.223764      -0.005681
   2929    7.82803    1.81186   -6.01791       -17.933404      17.925390      -0.008014
   2930    7.69040   -0.01837   -6.37821       -17.867849      17.854229      -0.013620
   2931    4.64211   -3.71920    8.26780       -16.244893      16.251741       0.006849
   2932    4.64211   -2.24994    8.85187       -15.958008      15.962847       0.004839
   2933    6.26042   -1.33483    8.64660       -16.075481      16.076596       0.001115
   2934    4.64211   -0.41971    8.85187       -16.190685      16.194261       0.003576
   2935    6.12280    0.49540    8.28630       -16.606017      16.607617       0.001600
   2936    4.64211    1.04954    8.26780       -16.905180      16.907910       0.002730
   2937    3.72700    1.97609    7.37118       -18.115041      18.115930       0.000889
   2938    3.16143    0.49540    8.28630       -16.993276      16.996457       0.003181
   2939    2.02363    1.28365    7.02829       -18.603251      18.602579      -0.000672
   2940    1.68074   -0.41971    7.72072       -17.541200      17.545494       0.004293
   2941    0.76562    0.14586    6.24004       -19.433959      19.435641       0.001682
   2942    0.78412   -1.33483    6.79418       -18.345713      18.351276       0.005563
   2943    0.76562   -2.81551    6.24004       -18.398960      18.405642       0.006682
   2944    1.68074   -2.24994    7.72072       -17.127503      17.134483       0.006980
   2945    2.02363   -3.95331    7.02829       -17.291874      17.301390       0.009516
   2946    3.16143   -3.16506    8.28630       -16.369478      16.377215       0.007738
   2947    3.02380   -1.33483    8.64660       -16.395247      16.400796       0.005549
   2948    5.11379   -8.34445    7.64251       -14.313016      14.328926       0.015910
   2949    6.59447   -7.79031    7.66100       -14.511342      14.523994       0.012653
   2950    5.11379   -6.87520    8.22658       -14.715538      14.727265       0.011726
   2951    6.73210   -5.96008    8.02131       -15.210624      15.216971       0.006347
   2952    5.11379   -5.04497    8.22658       -15.697297      15.705389       0.008092
   2953    7.73227   -8.57856    6.40300       -14.827564      14.843989       0.016425
   2954    6.02890   -9.27100    6.74589       -14.314967      14.335454       0.020487
   2955    2.15241   -5.04497    7.09543       -16.643878      16.654863       0.010986
   2956    1.23730   -4.47940    5.61475       -18.226331      18.234517       0.008186
   2957    1.25579   -5.96008    6.16889       -16.672845      16.683813       0.010968
   2958    0.67173   -5.96008    4.69963       -17.631943      17.639967       0.008024
   2959    2.72942   -9.81808    3.78452       -15.399516      15.425207       0.025691
   2960    1.80287   -8.92146    4.69963       -15.481613      15.499497       0.017884
   2961    1.23730   -7.44077    5.61475       -15.982372      15.995564       0.013192
   2962    1.80287   -8.92146    2.86940       -16.326825      16.345014       0.018189
   2963    0.87700   -7.57839    3.78452       -16.839593      16.850590       0.010996
   2964    2.15241   -6.87520    7.09543       -15.487090      15.500414       0.013324
   2965    2.49531   -8.57856    6.40300       -14.869907      14.887045       0.017138
   2966    3.28356   -9.83657    5.26520       -14.726883      14.750771       0.023888
   2967    3.63310   -7.79031    7.66100       -14.625694      14.640709       0.015015
   2968    4.19867   -9.27100    6.74589       -14.327002      14.347013       0.020011
   2969    5.11379  -10.19687    5.40283       -14.545661      14.575463       0.029802
   2970    3.49548   -5.96008    8.02131       -15.403796      15.415467       0.011671
   2971   -8.46412   -1.43716   -7.59305       -15.603942      15.623923       0.019982
   2972   -6.98343   -0.88302   -7.61155       -16.000827      16.014032       0.013205
   2973   -5.50275    0.03209   -7.04598       -17.100517      17.108605       0.008088
   2974   -8.46412    3.33158   -7.59305       -15.024917      15.043199       0.018281
   2975   -6.98343    2.77744   -7.61155       -15.713413      15.727134       0.013721
   2976   -8.46412    1.86232   -8.17712       -14.919808      14.940639       0.020832
   2977   -6.84581    0.94721   -7.97185       -15.726732      15.740986       0.014255
   2978   -8.46412    0.03209   -8.17712       -15.123544      15.145302       0.021758
   2979   -7.54901    4.25812   -6.69644       -15.762809      15.775358       0.012549
   2980   -7.54901    5.38927   -3.73506       -17.389024      17.392004       0.002981
   2981  -10.29435    4.82369   -5.21575       -15.353998      15.370518       0.016520
   2982   -8.46412    5.18400   -5.35337       -15.890976      15.901448       0.010472
   2983   -9.37924    4.25812   -6.69644       -15.008455      15.027031       0.018576
   2984  -11.08260    3.56569   -6.35354       -14.918198      14.947828       0.029630
   2985   -9.94481    2.77744   -7.61155       -14.672516      14.699326       0.026810
   2986  -10.08243    0.94721   -7.97185       -14.778405      14.811499       0.033094
   2987   -4.28843   -0.21555   -6.69954       -17.713030      17.713856       0.000826
   2988   -2.80774    0.33859   -6.71803       -18.098416      18.089975      -0.008441
   2989   -4.28843    4.55319   -6.69954       -16.874377      16.867688      -0.006690
   2990   -4.28843    3.08393   -7.28360       -16.825525      16.823046      -0.002479
   2991   -2.67012    2.16882   -7.07833       -17.772409      17.758652      -0.013756
   2992   -4.28843    1.25370   -7.28360       -17.127716      17.128407       0.000691
   2993   -6.11866    6.04531   -4.32223       -17.104314      17.101553      -0.002761
   2994   -4.28843    6.40561   -4.45985       -17.676796      17.662447      -0.014349
   2995   -5.20355    5.47974   -5.80292       -16.797950      16.794325      -0.003626
   2996   -5.76912    3.99905   -6.71803       -16.569087      16.574415       0.005329
   2997   -5.55570   -3.10230    7.55469       -16.106324      16.115129       0.008805
   2998   -4.07501   -2.54816    7.57319       -16.395608      16.404317       0.008709
   2999   -2.59433   -1.63304    7.00762       -17.438403      17.447620       0.009216
   3000   -5.55570   -1.63304    8.13876       -15.925478      15.933426       0.007948
   3001   -3.93739   -0.71793    7.93349       -16.464373      16.471892       0.007520
   3002   -2.59433    0.19719    7.00762       -17.795999      17.803419       0.007419
   3003   -5.55570    0.19719    8.13876       -16.056374      16.061226       0.004853
   3004   -4.07501    1.11230    7.57319       -16.855702      16.859782       0.004080
   3005   -5.55570    1.66644    7.55469       -16.488401      16.489400       0.000999
   3006   -2.24478   -3.67930    4.61182       -18.792235      18.797932       0.005697
   3007   -3.72547   -4.59441    5.17739       -17.509002      17.513629       0.004627
   3008   -2.93722   -3.33641    6.31518       -17.380614      17.388958       0.008344
   3009   -4.64059   -4.02884    6.65807       -16.570014      16.577412       0.007398
   3010   -4.64059    2.59299    6.65807       -17.427725      17.426283      -0.001443
   3011   -0.40991   -1.03091    6.13962       -18.988161      18.994390       0.006229
   3012   -1.89060   -0.11580    6.70520       -18.241765      18.249408       0.007643
   3013   -0.27228    0.79932    6.49993       -18.900643      18.902054       0.001411
   3014   -1.89060    1.71443    6.70520       -18.238886      18.240211       0.001325
   3015   -0.40991    2.62955    6.13962       -19.197073      19.190282      -0.006791
   3016   -1.89060    3.18369    6.12113       -18.610536      18.604484      -0.006052
   3017   -0.06037   -3.07717    3.74382       -20.519018      20.519330       0.000311
   3018   -0.97548   -2.51160    5.22451       -19.222889      19.229899       0.007010
   3019   -3.37128    2.62955    6.13962       -18.376666      18.375438      -0.001228
   3020   -1.89060   -3.43748    3.88145       -19.654265      19.658310       0.004045
   3021   -9.67122   -5.00954    8.71340       -13.477436      13.481577       0.004141
   3022   -8.19053   -4.45540    8.73189       -14.033267      14.039233       0.005966
   3023   -6.70985   -3.54028    8.16632       -15.181438      15.189128       0.007689
   3024   -9.67122   -3.54028    9.29747       -13.501709      13.506221       0.004512
   3025   -8.05291   -2.62517    9.09220       -14.321766      14.327804       0.006039
   3026   -6.70985   -1.71005    8.16632       -15.743286      15.751134       0.007847
   3027   -9.67122   -1.71005    9.29747       -13.847326      13.850618       0.003293
   3028   -8.19053   -0.79494    8.73189       -14.895582      14.899455       0.003873
   3029   -9.67122   -0.24080    8.71340       -14.442397      14.443083       0.000686
   3030   -7.84099   -6.50166    6.33609       -14.843092      14.845051       0.001959
   3031   -7.05274   -5.24365    7.47389       -14.914036      14.919629       0.005593
   3032   -8.75611   -5.93609    7.81678       -13.941963      13.945904       0.003941
   3033  -11.15191   -0.79494    8.73189       -13.875819      13.875274      -0.000545
   3034  -12.63259   -1.71005    8.16632       -13.705537      13.701981      -0.003555
   3035  -13.52921   -2.62517    7.23978       -13.998261      13.988822      -0.009439
   3036  -10.58634   -7.06723    4.85541       -14.788433      14.782316      -0.006117
   3037  -12.63259   -3.54028    8.16632       -13.402818      13.399936      -0.002881
   3038  -12.28970   -5.24365    7.47389       -13.497324      13.493781      -0.003543
   3039  -11.50145   -6.50166    6.33609       -13.937311      13.932964      -0.004347
   3040  -11.15191   -4.45540    8.73189       -13.230757      13.232581       0.001825
   3041  -10.58634   -5.93609    7.81678       -13.478455      13.479802       0.001347
   3042   -9.67122   -6.86196    6.47372       -14.119690      14.119708       0.000018
   3043  -11.28953   -2.62517    9.09220       -13.353782      13.355201       0.001419

 NET CHARGES:
 -------------------------------------
 ATOM                CHARGE    E.S.D.
 -------------------------------------
 C                   0.3089    0.3122
 C                  -0.3945    0.2062
 C                  -0.2182    0.2147
 C                  -0.3473    0.1960
 C                  -0.4798    0.2051
 C                  -0.1658    0.2256
 C                  -0.3796    0.1816
 C                  -0.2917    0.3897
 H                   0.4421    0.0055
 H                   0.4577    0.0046
 H                   0.4727    0.0049
 H                   0.4480    0.0054
 C                   0.1095    0.2727
 C                   0.3365    0.1565
 C                   0.2197    0.1477
 C                   0.1195    0.2875
 C                   0.3134    0.1547
 C                   0.3401    0.1458
 O                  -0.4997    0.0068
 O                  -0.5441    0.0095
 O                  -0.5614    0.0149
 O                  -0.5958    0.0179
 O                  -0.6751    0.0124
 O                  -0.6276    0.0195
 O                  -0.5552    0.0152
 C                   0.6629    0.0571
 C                   0.8726    0.0847
 O                  -0.5073    0.0550
 H                   0.4713    0.0036
 C                  -0.0197    0.1779
 C                  -0.5303    0.1491
 H                   0.0494    0.0243
 H                   0.1127    0.0267
 H                   0.1145    0.0253
 H                   0.2162    0.0119
 H                   0.1789    0.0125
 H                   0.1886    0.0112
 H                   0.2113    0.0121
 H                   0.1361    0.0124
 H                   0.1774    0.0170
 H                   0.2081    0.0161
 H                   0.2252    0.0111
 -------------------------------------

 RMS DEVIATION IS            0.818 KCAL/MOLE
 RELATIVE RMS DEVIATION IS   6.812 %

 MULTIPOLE MOMENTS:
 ---------------------------------------------------------
 STATUS  ACTUAL VALUE       QUANTITY        FITTED VALUE 
 ---------------------------------------------------------
 FIXED       0.0000       TOTAL CHARGE         0.0000
             3.1479 D    DIPOLE MOMENT         3.1796 D
 FREE       -1.7587 D          DX             -1.7579 D
 FREE       -2.5980 D          DY             -2.6407 D
 FREE       -0.2577 D          DZ             -0.2146 D
 FREE        0.0000 BU         QXX             3.3675 BU
 FREE        0.0000 BU         QYY             7.0072 BU
 FREE        0.0000 BU         QZZ           -10.3747 BU
 FREE        0.0000 BU         QXY             0.2615 BU
 FREE        0.0000 BU         QXZ            33.2459 BU
 FREE        0.0000 BU         QYZ           -10.3563 BU
 ---------------------------------------------------------
 ...... END OF PROPERTY EVALUATION ......
 CPU     0: STEP CPU TIME=     4.32 TOTAL CPU TIME=        188.2 (      3.1 MIN)
 TOTAL WALL CLOCK TIME=        280.5 SECONDS, CPU UTILIZATION IS    67.12%
              1919962  WORDS OF DYNAMIC MEMORY USED
 EXECUTION OF GAMESS TERMINATED NORMALLY Mon May 25 19:48:37 2020
 DDI: 263640 bytes (0.3 MB / 0 MWords) used by master data server.
Note: The following floating-point exceptions are signalling: IEEE_UNDERFLOW_FLAGNote: The following floating-point exceptions are signalling: IEEE_UNDERFLOW_FLAGNote: The following floating-point exceptions are signalling: IEEE_UNDERFLOW_FLAGNote: The following floating-point exceptions are signalling: IEEE_UNDERFLOW_FLAG
 ----------------------------------------
 CPU timing information for all processes
 ========================================
 0: 187.434 + 0.816 = 188.251
 1: 186.296 + 0.511 = 186.807
 2: 181.868 + 0.362 = 182.230
 3: 184.992 + 0.406 = 185.398
 4: 183.920 + 0.426 = 184.347
 5: 182.341 + 0.360 = 182.701
 ----------------------------------------
 IEEE_DENORMAL
 IEEE_DENORMAL
 IEEE_DENORMAL
 IEEE_DENORMALNote: The following floating-point exceptions are signalling: IEEE_UNDERFLOW_FLAGNote: The following floating-point exceptions are signalling:
 IEEE_DENORMAL
 IEEE_UNDERFLOW_FLAG IEEE_DENORMAL
 ddikick.x: exited gracefully.
unset echo
----- accounting info -----
Files used on the master node pietdev were:
-rwxr-xr-x 1 piet piet     1818 mei 25 19:43 /home/piet/scr/rosmarinicacid_charge_geodisk.F05*
-rw-r--r-- 1 piet piet 50790400 mei 25 19:48 /home/piet/scr/rosmarinicacid_charge_geodisk.F10
ls: No match.
ls: No match.
ls: No match.
ma 25 mei 2020 19:48:40 CEST
0.125u 0.015s 4:43.63 0.0%	0+0k 0+8io 0pf+0w
