----- GAMESS execution script 'rungms' -----
This job is running on host pietdev
under operating system Linux at ma 25 mei 2020 19:48:59 CEST
Available scratch disk space (Kbyte units) at beginning of the job is
Filesystem     1K-blocks     Used Available Use% Mounted on
/dev/sda2      244568380 31071620 201003704  14% /
GAMESS temporary binary files will be written to /home/piet/scr
GAMESS supplementary output files will be written to /home/piet/gamess/scr
Copying input file rosmarinicacid_fukui_neu.inp to your run's scratch directory...
cp rosmarinicacid_fukui_neu.inp /home/piet/scr/rosmarinicacid_fukui_neu.F05
unset echo
 
Assuming a single but multicore node.
 
/home/piet/gamess/ddikick.x /home/piet/gamess/gamess.03.x rosmarinicacid_fukui_neu -ddi 1 6 pietdev:cpus=6 -scr /home/piet/scr

 Distributed Data Interface kickoff program.
 Initiating 6 compute processes on 1 nodes to run the following command:
 /home/piet/gamess/gamess.03.x rosmarinicacid_fukui_neu 

          ******************************************************
          *         GAMESS VERSION = 30 SEP 2019 (R2)          *
          *             FROM IOWA STATE UNIVERSITY             *
          * M.W.SCHMIDT, K.K.BALDRIDGE, J.A.BOATZ, S.T.ELBERT, *
          *   M.S.GORDON, J.H.JENSEN, S.KOSEKI, N.MATSUNAGA,   *
          *          K.A.NGUYEN, S.J.SU, T.L.WINDUS,           *
          *       TOGETHER WITH M.DUPUIS, J.A.MONTGOMERY       *
          *         J.COMPUT.CHEM.  14, 1347-1363(1993)        *
          **************** 64 BIT LINUX VERSION ****************

  SINCE 1993, STUDENTS AND POSTDOCS WORKING AT IOWA STATE UNIVERSITY
  AND ALSO IN THEIR VARIOUS JOBS AFTER LEAVING ISU HAVE MADE IMPORTANT
  CONTRIBUTIONS TO THE CODE:
     IVANA ADAMOVIC, CHRISTINE AIKENS, YURI ALEXEEV, POOJA ARORA,
     ANDREY ASADCHEV, ROB BELL, PRADIPTA BANDYOPADHYAY, JONATHAN BENTZ,
     COLLEEN BERTONI, BRETT BODE, KURT BRORSEN, CALEB CARLIN, GALINA CHABAN,
     WEI CHEN, CHEOL HO CHOI, PAUL DAY, ALBERT DEFUSCO, NUWAN DESILVA,
     TIM DUDLEY, DMITRI FEDOROV, ALEX FINDLATER, GRAHAM FLETCHER, 
     MARK FREITAG, KURT GLAESEMANN, EMILIE B GUIDEZ, ANASTASIA GUNINA, 
     DAN KEMP, SAROM SOK LEANG, GRANT MERRILL,
     NORIYUKI MINEZAWA, JONATHAN MULLIN,
     TAKESHI NAGATA, SEAN NEDD, HEATHER NETZLOFF, BOSILJKA NJEGIC, RYAN OLSON,
     MIKE PAK, BUU PHAM, DAVID POOLE,
     SPENCER PRUITT, LUKE ROSKOP, TOSAPORN SATTASATHUCHANA,
     JIM SHOEMAKER, LYUDMILA SLIPCHENKO,
     TONY SMITH, JIE SONG, TETSUYA TAKETSUGU, SIMON WEBB,
     JORGE LUIS GALVEZ VALLEJO, PENG XU, SOOHAENG YOO,
     FEDERICO ZAHARIEV

  ADDITIONAL CODE HAS BEEN PROVIDED BY COLLABORATORS IN OTHER GROUPS:
     IOWA STATE UNIVERSITY:
          JOE IVANIC, AARON WEST, LAIMUTIS BYTAUTAS, KLAUS RUEDENBERG
     UNIVERSITY OF TOKYO: KIMIHIKO HIRAO, TAKAHITO NAKAJIMA,
          TAKAO TSUNEDA, MUNEAKI KAMIYA, SUSUMU YANAGISAWA,
          KIYOSHI YAGI, MAHITO CHIBA, SEIKEN TOKURA, NAOAKI KAWAKAMI
     UNIVERSITY OF AARHUS: FRANK JENSEN
     UNIVERSITY OF IOWA: VISVALDAS KAIRYS, HUI LI
     NATIONAL INST. OF STANDARDS AND TECHNOLOGY: WALT STEVENS, DAVID GARMER
     UNIVERSITY OF PISA: BENEDETTA MENNUCCI, JACOPO TOMASI
     UNIVERSITY OF MEMPHIS: HENRY KURTZ, PRAKASHAN KORAMBATH
     UNIVERSITY OF ALBERTA: TOBY ZENG, MARIUSZ KLOBUKOWSKI
     UNIVERSITY OF NEW ENGLAND: MARK SPACKMAN
     MIE UNIVERSITY: HIROAKI UMEDA
     NAT. INST. OF ADVANCED INDUSTRIAL SCIENCE AND TECHNOLOGY: KAZUO KITAURA
     MICHIGAN STATE UNIVERSITY:
          KAROL KOWALSKI, MARTA WLOCH, JEFFREY GOUR, JESSE LUTZ,
          WEI LI, JUN SHEN, J. EMILIANO DEUSTUA, PIOTR PIECUCH
     UNIVERSITY OF MINNESOTA:
          ANDREW SAND, PRACHI SHARMA, YINAN SHU
     UNIVERSITY OF SILESIA: MONIKA MUSIAL, STANISLAW KUCHARSKI
     FACULTES UNIVERSITAIRES NOTRE-DAME DE LA PAIX:
          OLIVIER QUINET, BENOIT CHAMPAGNE
     UNIVERSITY OF CALIFORNIA - SANTA BARBARA: BERNARD KIRTMAN
     INSTITUTE FOR MOLECULAR SCIENCE:
          KAZUYA ISHIMURA, MICHIO KATOUDA, AND SHIGERU NAGASE
     UNIVERSITY OF NOTRE DAME: ANNA POMOGAEVA, DAN CHIPMAN
     KYUSHU UNIVERSITY:
          HARUYUKI NAKANO,
          FENG LONG GU, JACEK KORCHOWIEC, MARCIN MAKOWSKI, AND YURIKO AOKI,
          HIROTOSHI MORI AND EISAKU MIYOSHI
     PENNSYLVANIA STATE UNIVERSITY:
          TZVETELIN IORDANOV, CHET SWALINA, JONATHAN SKONE,
          SHARON HAMMES-SCHIFFER
     WASEDA UNIVERSITY:
          MASATO KOBAYASHI, TOMOKO AKAMA, TSUGUKI TOUMA,
          TAKESHI YOSHIKAWA, YASUHIRO IKABATA, JUNJI SEINO,
          YUYA NAKAJIMA, HIROMI NAKAI
     NANJING UNIVERSITY: SHUHUA LI
     UNIVERSITY OF NEBRASKA:
          PEIFENG SU, DEJUN SI, NANDUN THELLAMUREGE, YALI WANG, HUI LI
     UNIVERSITY OF ZURICH: ROBERTO PEVERATI, KIM BALDRIDGE
     N. COPERNICUS UNIVERSITY AND JACKSON STATE UNIVERSITY:
          MARIA BARYSZ
     UNIVERSITY OF COPENHAGEN: Jimmy Kromann, CASPER STEINMANN
     TOKYO INSTITUTE OF TECHNOLOGY: HIROYA NAKATA
     NAGOYA UNIVERSITY: YOSHIO NISHIMOTO, STEPHAN IRLE
     MOSCOW STATE UNIVERSITY: VLADIMIR MIRONOV
     A.N.NESMEYANOV INSTITUTE OF ORGANOELEMENT COMPOUNDS OF RUSSIAN ACADEMY OF SCIENCES:
          IGOR S. GERASIMOV
     JOHANNES KEPLER UNIVERSITY LINZ:
          CHRISTIAN FRIEDL


 PARALLEL VERSION RUNNING ON        6 PROCESSORS IN        1 NODES.

 EXECUTION OF GAMESS BEGUN Mon May 25 19:48:59 2020

            ECHO OF THE FIRST FEW INPUT CARDS -
 INPUT CARD> $BASIS GBASIS=N21 NGAUSS=3 $END                                                
 INPUT CARD> $CONTRL SCFTYP=RHF MAXIT=60 MULT=1 ICHARG=0 $END                               
 INPUT CARD> $SYSTEM MEMDDI=1000 MWORDS=30 $END                                             
 INPUT CARD> $SCF DIRSCF=.TRUE. $END                                                        
 INPUT CARD> $DATA                                                                          
 INPUT CARD>                                                                                
 INPUT CARD>C1                                                                              
 INPUT CARD>C 6.0000000 2.36181 1.91040 -0.04372                                            
 INPUT CARD>C 6.0000000 4.42751 -0.67893 -0.43702                                           
 INPUT CARD>C 6.0000000 3.05140 -1.07807 1.50515                                            
 INPUT CARD>C 6.0000000 3.18625 -2.45809 1.31758                                            
 INPUT CARD>C 6.0000000 -4.60906 0.08810 -0.97792                                           
 INPUT CARD>C 6.0000000 -3.73916 -0.40669 1.22322                                           
 INPUT CARD>C 6.0000000 -4.95866 -0.97425 1.57918                                           
 INPUT CARD>C 6.0000000 3.50400 1.31897 0.80912                                             
 INPUT CARD>H 1.0000000 5.29804 -3.48312 -1.66389                                           
 INPUT CARD>H 1.0000000 3.66062 -4.83411 0.60945                                            
 INPUT CARD>H 1.0000000 -6.72742 -0.18379 -2.32052                                          
 INPUT CARD>H 1.0000000 -7.80739 -1.52718 0.26517                                           
 INPUT CARD>C 6.0000000 3.66738 -0.17602 0.63007                                            
 INPUT CARD>C 6.0000000 4.56465 -2.05091 -0.63234                                           
 INPUT CARD>C 6.0000000 3.93771 -2.94362 0.25234                                            
 INPUT CARD>C 6.0000000 -3.53651 0.13353 -0.06208                                           
 INPUT CARD>C 6.0000000 -5.82492 -0.48025 -0.62367                                          
 INPUT CARD>C 6.0000000 -6.01028 -1.01900 0.66085                                           
 INPUT CARD>O 8.0000000 1.52919 4.07410 0.73285                                             
 INPUT CARD>O 8.0000000 0.13411 1.93975 -1.52363                                            
 INPUT CARD>O 8.0000000 5.31206 -2.51401 -1.67791                                           
 INPUT CARD>O 8.0000000 4.13795 -4.28171 -0.02235                                           
 INPUT CARD>O 8.0000000 3.33057 3.99484 -0.62741                                            
 INPUT CARD>O 8.0000000 -6.91984 -0.56998 -1.45655                                          
 INPUT CARD>O 8.0000000 -7.19773 -1.57902 1.01781                                           
 INPUT CARD>C 6.0000000 2.31829 3.43368 0.07883                                             
 INPUT CARD>C 6.0000000 0.06512 1.43180 -0.41781                                            
 INPUT CARD>O 8.0000000 1.13578 1.35384 0.42826                                             
 INPUT CARD>H 1.0000000 3.27081 4.95754 -0.50304                                            
 INPUT CARD>C 6.0000000 -2.27648 0.72860 -0.49799                                           
 INPUT CARD>C 6.0000000 -1.11980 0.81022 0.19158                                            
 INPUT CARD>H 1.0000000 2.49886 1.65998 -1.09980                                            
 INPUT CARD>H 1.0000000 4.42650 1.83596 0.52489                                             
 INPUT CARD>H 1.0000000 3.30392 1.55676 1.85982                                             
 INPUT CARD>H 1.0000000 4.92596 -0.00972 -1.13319                                           
 INPUT CARD>H 1.0000000 2.45650 -0.70636 2.33357                                            
 INPUT CARD>H 1.0000000 2.70610 -3.15394 2.00268                                            
 INPUT CARD>H 1.0000000 -4.47902 0.50124 -1.97651                                           
 INPUT CARD>H 1.0000000 -2.26934 1.14769 -1.50368                                           
 INPUT CARD>H 1.0000000 -2.93995 -0.37991 1.95621                                           
 INPUT CARD>H 1.0000000 -1.00046 0.42298 1.19760                                            
 INPUT CARD>H 1.0000000 -5.11779 -1.38918 2.56937                                           
 INPUT CARD> $END                                                                           
   30000000 WORDS OF MEMORY AVAILABLE

     BASIS OPTIONS
     -------------
     GBASIS=N21          IGAUSS=       3      POLAR=NONE    
     NDFUNC=       0     NFFUNC=       0     DIFFSP=       F
     NPFUNC=       0      DIFFS=       F     BASNAM=        


     RUN TITLE
     ---------
                                                                                 

 THE POINT GROUP OF THE MOLECULE IS C1      
 THE ORDER OF THE PRINCIPAL AXIS IS     0

 ATOM      ATOMIC                      COORDINATES (BOHR)
           CHARGE         X                   Y                   Z
 C           6.0     4.4631737351        3.6101325269       -0.0826188202
 C           6.0     8.3667807079       -1.2829916648       -0.8258480512
 C           6.0     5.7663098789       -2.0372568956        2.8443210704
 C           6.0     6.0211394284       -4.6451165532        2.4898651669
 C           6.0    -8.7098604610        0.1664848595       -1.8480008379
 C           6.0    -7.0659878243       -0.7685326619        2.3115506227
 C           6.0    -9.3705086663       -1.8410655435        2.9842174853
 C           6.0     6.6215998610        2.4924918860        1.5290150912
 H           1.0    10.0118438720       -6.5821423824       -3.1442961737
 H           1.0     6.9175687452       -9.1351432945        1.1516935032
 H           1.0   -12.7129804043       -0.3473127393       -4.3851469490
 H           1.0   -14.7538277793       -2.8859517339        0.5010986402
 C           6.0     6.9303432929       -0.3326295684        1.1906596531
 C           6.0     8.6259377299       -3.8756579255       -1.1949493311
 C           6.0     7.4411929191       -5.5626352120        0.4768534557
 C           6.0    -6.6830348528        0.2523351111       -0.1173141893
 C           6.0   -11.0075027004       -0.9075409056       -1.1785654068
 C           6.0   -11.3577823095       -1.9256307815        1.2488254190
 O           8.0     2.8897500832        7.6989326466        1.3848856901
 O           8.0     0.2534311522        3.6655959847       -2.8792432067
 O           8.0    10.0383378303       -4.7507900304       -3.1707901321
 O           8.0     7.8195916509       -8.0912586589       -0.0422353758
 O           8.0     6.2938646829        7.5491529648       -1.1856329820
 O           8.0   -13.0766014789       -1.0771060185       -2.7524803874
 O           8.0   -13.6017374336       -2.9839151291        1.9233820076
 C           6.0     4.3809328601        6.4887143295        0.1489670996
 C           6.0     0.1230589563        2.7057096692       -0.7895464149
 O           8.0     2.1463129823        2.5583866312        0.8092940515
 H           1.0     6.1809346579        9.3683921732       -0.9506077609
 C           6.0    -4.3019234165        1.3768543547       -0.9410646446
 C           6.0    -2.1161151611        1.5310937898        0.3620337047
 H           1.0     4.7221606817        3.1369073451       -2.0783206413
 H           1.0     8.3648720847        3.4694613244        0.9918982737
 H           1.0     6.2435034854        2.9418498286        3.5145501865
 H           1.0     9.3087146265       -0.0183681366       -2.1414185920
 H           1.0     4.6421118888       -1.3348268487        4.4098078732
 H           1.0     5.1137874954       -5.9600823817        3.7845164411
 H           1.0    -8.4641204935        0.9472062541       -3.7350623120
 H           1.0    -4.2884307730        2.1688196188       -2.8415431732
 H           1.0    -5.5556999176       -0.7179258000        3.6967008744
 H           1.0    -1.8905952617        0.7993162983        2.2631358429
 H           1.0    -9.6712207627       -2.6251695476        4.8554052611

          INTERNUCLEAR DISTANCES (ANGS.)
          ------------------------------

                1 C          2 C          3 C          4 C          5 C     

   1 C       0.0000000    3.3356306    3.4359112    4.6493595    7.2654343  
   2 C       3.3356306    0.0000000    2.4135069 *  2.7901179 *  9.0851805  
   3 C       3.4359112    2.4135069 *  0.0000000    1.3992220 *  8.1368444  
   4 C       4.6493595    2.7901179 *  1.3992220 *  0.0000000    8.5158242  
   5 C       7.2654343    9.0851805    8.1368444    8.5158242    0.0000000  
   6 C       6.6479980    8.3381659    6.8294905    7.2234652    2.4179662 *
   7 C       8.0339462    9.6048146    8.0110748    8.2831018    2.7909798 *
   8 C       1.5432834 *  2.5292964 *  2.5367509 *  3.8243534    8.3982317  
   9 H       6.3510988    3.1822184    4.5688589    3.7946682   10.5534259  
  10 H       6.8994169    4.3530151    3.9091257    2.5242714 *  9.7537430  
  11 H       9.6012266   11.3236566   10.5385392   10.8022713    2.5226867 *
  12 H      10.7389477   12.2843550   10.9385817   11.0830628    3.7925871  
  13 C       2.5517944 *  1.4033521 *  1.3996037 *  2.4314604 *  8.4353334  
  14 C       4.5706624    1.3925826 *  2.7937800 *  2.4223893 *  9.4261203  
  15 C       5.1120077    2.4174247 *  2.4156480 *  1.3911031 *  9.1516197  
  16 C       6.1601772    8.0141304    6.8792981    7.3359020    1.4110954 *
  17 C       8.5483389   10.2560535    9.1475855    9.4276979    1.3881031 *
  18 C       8.8977353   10.5008774    9.1011195    9.3315828    2.4237688 *
  19 O       2.4449774 *  5.6885981    5.4275617    6.7644115    7.5161854  
  20 O       2.6746294 *  5.1450452    5.1760339    6.0604480    5.1209441  
  21 O       5.5632685    2.3853208 *  4.1598532    3.6735753   10.2805440  
  22 O       6.4418442    3.6381066    3.7117592    2.4549410 *  9.8243848  
  23 O       2.3715143 *  4.8045449    5.5100058    6.7412254    8.8556874  
  24 O       9.7106849   11.3935799   10.4141946   10.6486530    2.4498694 *
  25 O      10.2317009   11.7504424   10.2729313   10.4254336    3.6692560  
  26 C       1.5288213 *  4.6506420    4.7882906    6.0828291    7.7651661  
  27 C       2.3756654 *  4.8462353    4.3491483    5.2805563    4.8956319  
  28 O       1.4267704 *  3.9643852    3.2777246    4.4188378    6.0483573  
  29 H       3.2128364    5.7543121    6.3647118    7.6363195    9.2751986  
  30 C       4.8079878    6.8504263    5.9718449    6.5797193    2.4660703 *
  31 C       3.6588756    5.7780061    4.7634037    5.5219374    3.7502164  
  32 H       1.0939826 *  3.1031384    3.8194218    4.8243892    7.2806722  
  33 H       2.1428494 *  2.6925719 *  3.3679935    4.5393219    9.3249556  
  34 H       2.1531598 *  3.3965038    2.6705592 *  4.0530101    8.5337555  
  35 H       3.3835885    1.0867139 *  3.4082525    3.8765165    9.5367858  
  36 H       3.5366519    3.4002650    1.0855202 *  2.1525168 *  7.8434221  
  37 H       5.4730091    3.8782809    2.1624071 *  1.0881697 *  8.5385224  
  38 H       7.2469555    9.1153227    8.4453183    8.8524023    1.0884746 *
  39 H       4.9153596    7.0229697    6.5051779    7.1221218    2.6217254 *
  40 H       6.1117836    7.7521887    6.0487319    6.5005390    3.4079437  
  41 H       3.8804836    5.7748633    4.3318942    5.0836503    4.2269405  
  42 H       8.5825336   10.0327259    8.2440899    8.4656144    3.8761358  

                6 C          7 C          8 C          9 H         10 H     

   1 C       6.6479980    8.0339462    1.5432834 *  6.3510988    6.8994169  
   2 C       8.3381659    9.6048146    2.5292964 *  3.1822184    4.3530151  
   3 C       6.8294905    8.0110748    2.5367509 *  4.5688589    3.9091257  
   4 C       7.2234652    8.2831018    3.8243534    3.7946682    2.5242714 *
   5 C       2.4179662 *  2.7909798 *  8.3982317   10.5534259    9.7537430  
   6 C       0.0000000    1.3914065 *  7.4573955    9.9735054    8.6449700  
   7 C       1.3914065 *  0.0000000    8.8016172   11.0458964    9.4937286  
   8 C       7.4573955    8.8016172    0.0000000    5.6916102    6.1583108  
   9 H       9.9735054   11.0458964    5.6916102    0.0000000    3.1103686  
  10 H       8.6449700    9.4937286    6.1583108    3.1103686    0.0000000  
  11 H       4.6408486    4.3544229   10.8043921   12.4871306   11.7525136  
  12 H       4.3271068    3.1855324   11.6766431   13.3902677   11.9402499  
  13 C       7.4338328    8.7147316    1.5145121 *  4.3426046    4.6581405  
  14 C       8.6660154    9.8358249    3.8156096    1.9113298 *  3.1789173  
  15 C       8.1432767    9.2078402    4.3206229    2.4111191 *  1.9437744 *
  16 C       1.4088651 *  2.4379134 *  7.1925683    9.6796294    8.7708084  
  17 C       2.7868994 *  2.4180551 *  9.6082687   11.5680389   10.5096218  
  18 C       2.4185057 *  1.3968669 *  9.7984495   11.8048467   10.3963461  
  19 O       6.9335023    8.2640371    3.3906390    8.7783921    9.1604818  
  20 O       5.2965259    6.6374040    4.1452683    7.4895504    7.9291540  
  21 O       9.7356015   10.8842632    4.9138717    0.9693128 *  3.6526886  
  22 O       8.8665713    9.8108360    5.6974425    2.1629166 *  0.9654848 *
  23 O       8.5310832    9.9132350    3.0420350    7.8016098    8.9212731  
  24 O       4.1622778    3.6366630   10.8331820   12.5620845   11.5929847  
  25 O       3.6576300    2.3862769 * 11.0891353   12.9213536   11.3431095  
  26 C       7.2629726    8.6391492    2.5320407 *  7.7303367    8.3928397  
  27 C       4.5327223    5.9173821    3.6529418    7.2864673    7.2968837  
  28 O       5.2437074    6.6247127    2.3989031 *  6.7154808    6.6856841  
  29 H       8.9941435   10.3559620    3.8749623    8.7579664    9.8623524  
  30 C       2.5280190 *  3.7958428    5.9557554    8.7447848    8.2109270  
  31 C       3.0669525    4.4549538    4.6925162    7.9412976    7.4084743  
  32 H       6.9699670    8.3504914    2.1841634 *  5.8826086    6.8150148  
  33 H       8.4967727    9.8534276    1.0950213 *  5.8174695    6.7144290  
  34 H       7.3393032    8.6460973    1.0956946 *  6.4647844    6.5218003  
  35 H       8.9885793   10.2952893    2.7495373 *  3.5333544    5.2832394  
  36 H       6.3014984    7.4582483    2.7428390 *  5.6359943    4.6325819  
  37 H       7.0495615    7.9799089    4.6976754    4.5022492    2.3822614 *
  38 H       3.4073453    3.8794402    8.4945291   10.5623746   10.0700987  
  39 H       3.4658984    4.6085895    6.2217229    8.8732919    8.6839896  
  40 H       1.0847710 *  2.1378919 *  6.7621373    9.5183778    8.0759634  
  41 H       2.8617279 *  4.2148787    4.6091078    7.9446110    7.0504314  
  42 H       2.1628747 *  1.0853412 *  9.2069441   11.4365462    9.6316827  

               11 H         12 H         13 C         14 C         15 C     

   1 C       9.6012266   10.7389477    2.5517944 *  4.5706624    5.1120077  
   2 C      11.3236566   12.2843550    1.4033521 *  1.3925826 *  2.4174247 *
   3 C      10.5385392   10.9385817    1.3996037 *  2.7937800 *  2.4156480 *
   4 C      10.8022713   11.0830628    2.4314604 *  2.4223893 *  1.3911031 *
   5 C       2.5226867 *  3.7925871    8.4353334    9.4261203    9.1516197  
   6 C       4.6408486    4.3271068    7.4338328    8.6660154    8.1432767  
   7 C       4.3544229    3.1855324    8.7147316    9.8358249    9.2078402  
   8 C      10.8043921   11.6766431    1.5145121 *  3.8156096    4.3206229  
   9 H      12.4871306   13.3902677    4.3426046    1.9113298 *  2.4111191 *
  10 H      11.7525136   11.9402499    4.6581405    3.1789173    1.9437744 *
  11 H       0.0000000    3.1075432   10.8054574   11.5692236   11.3128806  
  12 H       3.1075432    0.0000000   11.5598067   12.4156027   11.8302088  
  13 C      10.8054574   11.5598067    0.0000000    2.4318686 *  2.8063086 *
  14 C      11.5692236   12.4156027    2.4318686 *  0.0000000    1.4045083 *
  15 C      11.3128806   11.8302088    2.8063086 *  1.4045083 *  0.0000000  
  16 C       3.9221359    4.5940686    7.2436817    8.4098614    8.0889849  
  17 C       1.9446580 *  2.4116978 *  9.5795709   10.5076264   10.1066577  
  18 C       3.1781178    1.9090348 *  9.7143536   10.7035659   10.1406877  
  19 O       9.7787680   10.8979259    4.7587751    6.9709044    7.4350691  
  20 O       7.2266901    8.8479846    4.6474620    6.0290505    6.4396230  
  21 O      12.2797374   13.2992241    3.6739544    1.3661259 *  2.4081669 *
  22 O      11.8376855   12.2621879    4.1837517    2.3517290 *  1.3805924 *
  23 O      11.0222835   12.4636895    4.3692986    6.1704190    7.0203138  
  24 O       0.9657186 *  2.1606241 * 10.7980746   11.6088753   11.2445927  
  25 O       3.6486032    0.9699689 * 10.9621789   11.8869365   11.2448255  
  26 C      10.0333364   11.2771561    3.8927938    5.9693068    6.5819892  
  27 C       7.2366454    8.4379167    4.0815946    5.6939496    5.8813565  
  28 O       8.4705379    9.3971892    2.9648267 *  4.9471552    5.1332175  
  29 H      11.3886396   12.8595589    5.2720626    7.1280511    7.9651544  
  30 C       4.8953997    6.0217873    6.1172157    7.3854442    7.2570209  
  31 C       6.2244762    7.0846817    4.9073450    6.4169994    6.2986835  
  32 H       9.4875649   10.8738181    2.7800693 *  4.2727874    5.0091621  
  33 H      11.6869876   12.6903991    2.1529955 *  4.0578350    4.8122328  
  34 H      11.0060229   11.6410826    2.1556704 *  4.5624099    4.8206952  
  35 H      11.7150040   12.8994689    2.1727322 *  2.1325694 *  3.3917695  
  36 H      10.3091231   10.5023551    2.1562475 *  3.8792697    3.3957081  
  37 H      10.7936624   10.7795529    3.4170345    3.4079633    2.1505320 *
  38 H       2.3754813 *  4.4964057    8.5800218    9.4925355    9.3635558  
  39 H       4.7238272    6.3995123    6.4459089    7.5956366    7.6387102  
  40 H       5.7161011    5.2789977    6.7421827    8.1124505    7.5351171  
  41 H       6.7485857    7.1419077    4.7402132    6.3591872    6.0508706  
  42 H       5.2872392    3.5443377    9.0780975   10.2195146    9.4755998  

               16 C         17 C         18 C         19 O         20 O     

   1 C       6.1601772    8.5483389    8.8977353    2.4449774 *  2.6746294 *
   2 C       8.0141304   10.2560535   10.5008774    5.6885981    5.1450452  
   3 C       6.8792981    9.1475855    9.1011195    5.4275617    5.1760339  
   4 C       7.3359020    9.4276979    9.3315828    6.7644115    6.0604480  
   5 C       1.4110954 *  1.3881031 *  2.4237688 *  7.5161854    5.1209441  
   6 C       1.4088651 *  2.7868994 *  2.4185057 *  6.9335023    5.2965259  
   7 C       2.4379134 *  2.4180551 *  1.3968669 *  8.2640371    6.6374040  
   8 C       7.1925683    9.6082687    9.7984495    3.3906390    4.1452683  
   9 H       9.6796294   11.5680389   11.8048467    8.7783921    7.4895504  
  10 H       8.7708084   10.5096218   10.3963461    9.1604818    7.9291540  
  11 H       3.9221359    1.9446580 *  3.1781178    9.7787680    7.2266901  
  12 H       4.5940686    2.4116978 *  1.9090348 * 10.8979259    8.8479846  
  13 C       7.2436817    9.5795709    9.7143536    4.7587751    4.6474620  
  14 C       8.4098614   10.5076264   10.7035659    6.9709044    6.0290505  
  15 C       8.0889849   10.1066577   10.1406877    7.4350691    6.4396230  
  16 C       0.0000000    2.4349393 *  2.8232058 *  6.4669407    4.3441927  
  17 C       2.4349393 *  0.0000000    1.4052052 *  8.7558657    6.4943334  
  18 C       2.8232058 *  1.4052052 *  0.0000000    9.0988164    7.1609834  
  19 O       6.4669407    8.7558657    9.0988164    0.0000000    3.4049082  
  20 O       4.3441927    6.4943334    7.1609834    3.4049082    0.0000000  
  21 O       9.3764367   11.3701330   11.6576257    7.9702611    6.8316138  
  22 O       8.8539968   10.6804243   10.6816951    8.7860979    7.5492477  
  23 O       7.8984872   10.1906546   10.6794047    2.2586632 *  3.9043516  
  24 O       3.7264453    1.3786190 *  2.3478290 *  9.8867113    7.4874198  
  25 O       4.1837210    2.4054853 *  1.3605441 * 10.4018316    8.5203602  
  26 C       6.7223157    9.0622416    9.4620391    1.2085358 *  3.0935978  
  27 C       3.8449691    6.1960378    6.6393082    3.2325329    1.2188563 *
  28 O       4.8538525    7.2747362    7.5333022    2.7653862 *  2.2707946 *
  29 H       8.3549461   10.5979439   11.1001037    2.3110886 *  4.4707435  
  30 C       1.4600690 *  3.7508053    4.2823216    5.2144474    2.8861334 *
  31 C       2.5224472 *  4.9465240    5.2424283    4.2382819    2.4062572 *
  32 H       6.3113076    8.6077057    9.0929800    3.1822698    2.4186661 *
  33 H       8.1640878   10.5723995   10.8210747    3.6670047    4.7572911  
  34 H       7.2464312    9.6774404    9.7378843    3.2797452    4.6521082  
  35 H       8.5311896   10.7732275   11.1282780    5.6300744    5.1879382  
  36 H       6.5085116    8.7964943    8.6360928    5.1259152    5.2223927  
  37 H       7.3512497    9.3179737    9.0737951    7.4325061    6.7078814  
  38 H       2.1653124 *  2.1459137 *  3.4075731    7.4969692    4.8533885  
  39 H       2.1708180 *  4.0083357    4.8347045    5.2910086    2.5306776 *
  40 H       2.1663331 *  3.8715502    3.3931283    6.4271321    5.1903713  
  41 H       2.8464231 *  5.2352902    5.2407732    4.4660720    3.3155592  
  42 H       3.4268967    3.3943617    2.1391634 *  8.7978734    7.4442513  

               21 O         22 O         23 O         24 O         25 O     

   1 C       5.5632685    6.4418442    2.3715143 *  9.7106849   10.2317009  
   2 C       2.3853208 *  3.6381066    4.8045449   11.3935799   11.7504424  
   3 C       4.1598532    3.7117592    5.5100058   10.4141946   10.2729313  
   4 C       3.6735753    2.4549410 *  6.7412254   10.6486530   10.4254336  
   5 C      10.2805440    9.8243848    8.8556874    2.4498694 *  3.6692560  
   6 C       9.7356015    8.8665713    8.5310832    4.1622778    3.6576300  
   7 C      10.8842632    9.8108360    9.9132350    3.6366630    2.3862769 *
   8 C       4.9138717    5.6974425    3.0420350   10.8331820   11.0891353  
   9 H       0.9693128 *  2.1629166 *  7.8016098   12.5620845   12.9213536  
  10 H       3.6526886    0.9654848 *  8.9212731   11.5929847   11.3431095  
  11 H      12.2797374   11.8376855   11.0222835    0.9657186 *  3.6486032  
  12 H      13.2992241   12.2621879   12.4636895    2.1606241 *  0.9699689 *
  13 C       3.6739544    4.1837517    4.3692986   10.7980746   10.9621789  
  14 C       1.3661259 *  2.3517290 *  6.1704190   11.6088753   11.8869365  
  15 C       2.4081669 *  1.3805924 *  7.0203138   11.2445927   11.2448255  
  16 C       9.3764367    8.8539968    7.8984872    3.7264453    4.1837210  
  17 C      11.3701330   10.6804243   10.1906546    1.3786190 *  2.4054853 *
  18 C      11.6576257   10.6816951   10.6794047    2.3478290 *  1.3605441 *
  19 O       7.9702611    8.7860979    2.2586632 *  9.8867113   10.4018316  
  20 O       6.8316138    7.5492477    3.9043516    7.4874198    8.5203602  
  21 O       0.0000000    2.6915008 *  6.8844013   12.3873981   12.8310545  
  22 O       2.6915008 *  0.0000000    8.3378199   11.7519611   11.6997482  
  23 O       6.8844013    8.3378199    0.0000000   11.2514870   12.0257958  
  24 O      12.3873981   11.7519611   11.2514870    0.0000000    2.6866042 *
  25 O      12.8310545   11.6997482   12.0257958    2.6866042 *  0.0000000  
  26 C       6.8864948    7.9277136    1.3558710 * 10.1847794   10.7964569  
  27 C       6.6848820    7.0276973    4.1564733    7.3400116    7.9921857  
  28 O       6.0693929    6.4012107    3.5925511    8.4939158    8.8541869  
  29 H       7.8339697    9.2922944    0.9725381 * 11.6323689   12.4350284  
  30 C       8.3362264    8.1531805    6.4903068    4.9158864    5.6428239  
  31 C       7.4775879    7.3223939    5.5333843    6.1856082    6.5827317  
  32 H       5.0666062    6.2570915    2.5231855 *  9.6856544   10.4402706  
  33 H       4.9556819    6.1488714    2.6813468 * 11.7666513   12.1255013  
  34 H       5.7549395    6.1907917    3.4829955   10.9565780   10.9921222  
  35 H       2.5917680 *  4.4838403    4.3402285   11.8634494   12.4126292  
  36 H       5.2453592    4.6000827    5.6242939   10.1143147    9.7824801  
  37 H       4.5549183    2.7244827 *  7.6428000   10.5499688   10.0765168  
  38 H      10.2492020   10.0472645    8.6611205    2.7157822 *  4.5480565  
  39 H       8.4211655    8.5279592    6.3429571    4.9577981    6.1710524  
  40 H       9.2658988    8.3207819    8.0704988    5.2461969    4.5218525  
  41 H       7.5327536    7.0728808    5.9031065    6.5627389    6.5150966  
  42 H      11.3175263   10.0375528   10.5157910    4.4862573    2.6018317 *

               26 C         27 C         28 O         29 H         30 C     

   1 C       1.5288213 *  2.3756654 *  1.4267704 *  3.2128364    4.8079878  
   2 C       4.6506420    4.8462353    3.9643852    5.7543121    6.8504263  
   3 C       4.7882906    4.3491483    3.2777246    6.3647118    5.9718449  
   4 C       6.0828291    5.2805563    4.4188378    7.6363195    6.5797193  
   5 C       7.7651661    4.8956319    6.0483573    9.2751986    2.4660703 *
   6 C       7.2629726    4.5327223    5.2437074    8.9941435    2.5280190 *
   7 C       8.6391492    5.9173821    6.6247127   10.3559620    3.7958428  
   8 C       2.5320407 *  3.6529418    2.3989031 *  3.8749623    5.9557554  
   9 H       7.7303367    7.2864673    6.7154808    8.7579664    8.7447848  
  10 H       8.3928397    7.2968837    6.6856841    9.8623524    8.2109270  
  11 H      10.0333364    7.2366454    8.4705379   11.3886396    4.8953997  
  12 H      11.2771561    8.4379167    9.3971892   12.8595589    6.0217873  
  13 C       3.8927938    4.0815946    2.9648267 *  5.2720626    6.1172157  
  14 C       5.9693068    5.6939496    4.9471552    7.1280511    7.3854442  
  15 C       6.5819892    5.8813565    5.1332175    7.9651544    7.2570209  
  16 C       6.7223157    3.8449691    4.8538525    8.3549461    1.4600690 *
  17 C       9.0622416    6.1960378    7.2747362   10.5979439    3.7508053  
  18 C       9.4620391    6.6393082    7.5333022   11.1001037    4.2823216  
  19 O       1.2085358 *  3.2325329    2.7653862 *  2.3110886 *  5.2144474  
  20 O       3.0935978    1.2188563 *  2.2707946 *  4.4707435    2.8861334 *
  21 O       6.8864948    6.6848820    6.0693929    7.8339697    8.3362264  
  22 O       7.9277136    7.0276973    6.4012107    9.2922944    8.1531805  
  23 O       1.3558710 *  4.1564733    3.5925511    0.9725381 *  6.4903068  
  24 O      10.1847794    7.3400116    8.4939158   11.6323689    4.9158864  
  25 O      10.7964569    7.9921857    8.8541869   12.4350284    5.6428239  
  26 C       0.0000000    3.0546604    2.4178845 *  1.8889194 *  5.3630300  
  27 C       3.0546604    0.0000000    1.3668303 *  4.7659789    2.4462235 *
  28 O       2.4178845 *  1.3668303 *  0.0000000    4.2909587    3.5905964  
  29 H       1.8889194 *  4.7659789    4.2909587    0.0000000    6.9754129  
  30 C       5.3630300    2.4462235 *  3.5905964    6.9754129    0.0000000  
  31 C       4.3261666    1.4702902 *  2.3322052 *  6.0794915    1.3491024 *
  32 H       2.1372379 *  2.5377681 *  2.0704290 *  3.4388852    4.9023990  
  33 H       2.6825786 *  4.4803643    3.3272534    3.4837510    6.8704054  
  34 H       2.7687941 *  3.9614440    2.6060260 *  4.1411965    6.1144077  
  35 H       4.4861943    5.1203041    4.3200563    5.2735455    7.2679940  
  36 H       4.7162364    4.2261707    3.1014402    6.3866439    5.6989422  
  37 H       6.8737423    5.8191545    5.0264086    8.5084451    6.7936419  
  38 H       7.6829064    4.8933318    6.1673191    9.0603305    2.6624982 *
  39 H       5.3643674    2.5902771 *  3.9204250    6.7977569    1.0895411 *
  40 H       6.7614431    4.2365918    4.6853063    8.5504282    2.7734607 *
  41 H       4.6184480    2.1823675 *  2.4539572 *  6.4574111    2.1439814 *
  42 H       9.2064137    6.6139042    7.1565109   10.9585203    4.6868680  

               31 C         32 H         33 H         34 H         35 H     

   1 C       3.6588756    1.0939826 *  2.1428494 *  2.1531598 *  3.3835885  
   2 C       5.7780061    3.1031384    2.6925719 *  3.3965038    1.0867139 *
   3 C       4.7634037    3.8194218    3.3679935    2.6705592 *  3.4082525  
   4 C       5.5219374    4.8243892    4.5393219    4.0530101    3.8765165  
   5 C       3.7502164    7.2806722    9.3249556    8.5337555    9.5367858  
   6 C       3.0669525    6.9699670    8.4967727    7.3393032    8.9885793  
   7 C       4.4549538    8.3504914    9.8534276    8.6460973   10.2952893  
   8 C       4.6925162    2.1841634 *  1.0950213 *  1.0956946 *  2.7495373 *
   9 H       7.9412976    5.8826086    5.8174695    6.4647844    3.5333544  
  10 H       7.4084743    6.8150148    6.7144290    6.5218003    5.2832394  
  11 H       6.2244762    9.4875649   11.6869876   11.0060229   11.7150040  
  12 H       7.0846817   10.8738181   12.6903991   11.6410826   12.8994689  
  13 C       4.9073450    2.7800693 *  2.1529955 *  2.1556704 *  2.1727322 *
  14 C       6.4169994    4.2727874    4.0578350    4.5624099    2.1325694 *
  15 C       6.2986835    5.0091621    4.8122328    4.8206952    3.3917695  
  16 C       2.5224472 *  6.3113076    8.1640878    7.2464312    8.5311896  
  17 C       4.9465240    8.6077057   10.5723995    9.6774404   10.7732275  
  18 C       5.2424283    9.0929800   10.8210747    9.7378843   11.1282780  
  19 O       4.2382819    3.1822698    3.6670047    3.2797452    5.6300744  
  20 O       2.4062572 *  2.4186661 *  4.7572911    4.6521082    5.1879382  
  21 O       7.4775879    5.0666062    4.9556819    5.7549395    2.5917680 *
  22 O       7.3223939    6.2570915    6.1488714    6.1907917    4.4838403  
  23 O       5.5333843    2.5231855 *  2.6813468 *  3.4829955    4.3402285  
  24 O       6.1856082    9.6856544   11.7666513   10.9565780   11.8634494  
  25 O       6.5827317   10.4402706   12.1255013   10.9921222   12.4126292  
  26 C       4.3261666    2.1372379 *  2.6825786 *  2.7687941 *  4.4861943  
  27 C       1.4702902 *  2.5377681 *  4.4803643    3.9614440    5.1203041  
  28 O       2.3322052 *  2.0704290 *  3.3272534    2.6060260 *  4.3200563  
  29 H       6.0794915    3.4388852    3.4837510    4.1411965    5.2735455  
  30 C       1.3491024 *  4.9023990    6.8704054    6.1144077    7.2679940  
  31 C       0.0000000    3.9350292    5.6501931    4.7864021    6.2432789  
  32 H       3.9350292    0.0000000    2.5271293 *  3.0688966    2.9461547 *
  33 H       5.6501931    2.5271293 *  0.0000000    1.7664022 *  2.5308544 *
  34 H       4.7864021    3.0688966    1.7664022 *  0.0000000    3.7473967  
  35 H       6.2432789    2.9461547 *  2.5308544 *  3.7473967    0.0000000  
  36 H       4.4359957    4.1700586    3.6899342    2.4625742 *  4.3129995  
  37 H       5.7993240    5.7308077    5.4811259    4.7506307    4.9646328  
  38 H       4.0100426    7.1275598    9.3459492    8.7410357    9.4565278  
  39 H       2.0758696 *  4.8126179    7.0301554    6.5223997    7.2972051  
  40 H       2.8005847 *  6.5636120    7.8245346    6.5380344    8.4589582  
  41 H       1.0845612 *  4.3650265    5.6480923    4.5001866    6.3829668  
  42 H       5.1454028    8.9874102   10.2798297    8.9502639   10.7929965  

               36 H         37 H         38 H         39 H         40 H     

   1 C       3.5366519    5.4730091    7.2469555    4.9153596    6.1117836  
   2 C       3.4002650    3.8782809    9.1153227    7.0229697    7.7521887  
   3 C       1.0855202 *  2.1624071 *  8.4453183    6.5051779    6.0487319  
   4 C       2.1525168 *  1.0881697 *  8.8524023    7.1221218    6.5005390  
   5 C       7.8434221    8.5385224    1.0884746 *  2.6217254 *  3.4079437  
   6 C       6.3014984    7.0495615    3.4073453    3.4658984    1.0847710 *
   7 C       7.4582483    7.9799089    3.8794402    4.6085895    2.1378919 *
   8 C       2.7428390 *  4.6976754    8.4945291    6.2217229    6.7621373  
   9 H       5.6359943    4.5022492   10.5623746    8.8732919    9.5183778  
  10 H       4.6325819    2.3822614 * 10.0700987    8.6839896    8.0759634  
  11 H      10.3091231   10.7936624    2.3754813 *  4.7238272    5.7161011  
  12 H      10.5023551   10.7795529    4.4964057    6.3995123    5.2789977  
  13 C       2.1562475 *  3.4170345    8.5800218    6.4459089    6.7421827  
  14 C       3.8792697    3.4079633    9.4925355    7.5956366    8.1124505  
  15 C       3.3957081    2.1505320 *  9.3635558    7.6387102    7.5351171  
  16 C       6.5085116    7.3512497    2.1653124 *  2.1708180 *  2.1663331 *
  17 C       8.7964943    9.3179737    2.1459137 *  4.0083357    3.8715502  
  18 C       8.6360928    9.0737951    3.4075731    4.8347045    3.3931283  
  19 O       5.1259152    7.4325061    7.4969692    5.2910086    6.4271321  
  20 O       5.2223927    6.7078814    4.8533885    2.5306776 *  5.1903713  
  21 O       5.2453592    4.5549183   10.2492020    8.4211655    9.2658988  
  22 O       4.6000827    2.7244827 * 10.0472645    8.5279592    8.3207819  
  23 O       5.6242939    7.6428000    8.6611205    6.3429571    8.0704988  
  24 O      10.1143147   10.5499688    2.7157822 *  4.9577981    5.2461969  
  25 O       9.7824801   10.0765168    4.5480565    6.1710524    4.5218525  
  26 C       4.7162364    6.8737423    7.6829064    5.3643674    6.7614431  
  27 C       4.2261707    5.8191545    4.8933318    2.5902771 *  4.2365918  
  28 O       3.1014402    5.0264086    6.1673191    3.9204250    4.6853063  
  29 H       6.3866439    8.5084451    9.0603305    6.7977569    8.5504282  
  30 C       5.6989422    6.7936419    2.6624982 *  1.0895411 *  2.7734607 *
  31 C       4.4359957    5.7993240    4.0100426    2.0758696 *  2.8005847 *
  32 H       4.1700586    5.7308077    7.1275598    4.8126179    6.5636120  
  33 H       3.6899342    5.4811259    9.3459492    7.0301554    7.8245346  
  34 H       2.4625742 *  4.7506307    8.7410357    6.5223997    6.5380344  
  35 H       4.3129995    4.9646328    9.4565278    7.2972051    8.4589582  
  36 H       0.0000000    2.4824255 *  8.2544851    6.3636116    5.4194689  
  37 H       2.4824255 *  0.0000000    8.9900080    7.4534277    6.2908888  
  38 H       8.2544851    8.9900080    0.0000000    2.3503514 *  4.3140988  
  39 H       6.3636116    7.4534277    2.3503514 *  0.0000000    3.8411090  
  40 H       5.4194689    6.2908888    4.3140988    3.8411090    0.0000000  
  41 H       3.8100406    5.2135494    4.7097217    3.0711846    2.2319818 *
  42 H       7.6086604    8.0404459    4.9645483    5.5802431    2.4774136 *

               41 H         42 H     

   1 C       3.8804836    8.5825336  
   2 C       5.7748633   10.0327259  
   3 C       4.3318942    8.2440899  
   4 C       5.0836503    8.4656144  
   5 C       4.2269405    3.8761358  
   6 C       2.8617279 *  2.1628747 *
   7 C       4.2148787    1.0853412 *
   8 C       4.6091078    9.2069441  
   9 H       7.9446110   11.4365462  
  10 H       7.0504314    9.6316827  
  11 H       6.7485857    5.2872392  
  12 H       7.1419077    3.5443377  
  13 C       4.7402132    9.0780975  
  14 C       6.3591872   10.2195146  
  15 C       6.0508706    9.4755998  
  16 C       2.8464231 *  3.4268967  
  17 C       5.2352902    3.3943617  
  18 C       5.2407732    2.1391634 *
  19 O       4.4660720    8.7978734  
  20 O       3.3155592    7.4442513  
  21 O       7.5327536   11.3175263  
  22 O       7.0728808   10.0375528  
  23 O       5.9031065   10.5157910  
  24 O       6.5627389    4.4862573  
  25 O       6.5150966    2.6018317 *
  26 C       4.6184480    9.2064137  
  27 C       2.1823675 *  6.6139042  
  28 O       2.4539572 *  7.1565109  
  29 H       6.4574111   10.9585203  
  30 C       2.1439814 *  4.6868680  
  31 C       1.0845612 *  5.1454028  
  32 H       4.3650265    8.9874102  
  33 H       5.6480923   10.2798297  
  34 H       4.5001866    8.9502639  
  35 H       6.3829668   10.7929965  
  36 H       3.8100406    7.6086604  
  37 H       5.2135494    8.0404459  
  38 H       4.7097217    4.9645483  
  39 H       3.0711846    5.5802431  
  40 H       2.2319818 *  2.4774136 *
  41 H       0.0000000    4.7029866  
  42 H       4.7029866    0.0000000  

  * ... LESS THAN  3.000


     ATOMIC BASIS SET
     ----------------
 THE CONTRACTED PRIMITIVE FUNCTIONS HAVE BEEN UNNORMALIZED
 THE CONTRACTED BASIS FUNCTIONS ARE NOW NORMALIZED TO UNITY

  SHELL TYPE  PRIMITIVE        EXPONENT          CONTRACTION COEFFICIENT(S)

 C         

      1   S       1           172.2560000    0.061766907377
      1   S       2            25.9109000    0.358794042852
      1   S       3             5.5333500    0.700713083689

      2   L       4             3.6649800   -0.395895162119    0.236459946619
      2   L       5             0.7705450    1.215834355681    0.860618805716

      3   L       6             0.1958570    1.000000000000    1.000000000000

 C         

      4   S       7           172.2560000    0.061766907377
      4   S       8            25.9109000    0.358794042852
      4   S       9             5.5333500    0.700713083689

      5   L      10             3.6649800   -0.395895162119    0.236459946619
      5   L      11             0.7705450    1.215834355681    0.860618805716

      6   L      12             0.1958570    1.000000000000    1.000000000000

 C         

      7   S      13           172.2560000    0.061766907377
      7   S      14            25.9109000    0.358794042852
      7   S      15             5.5333500    0.700713083689

      8   L      16             3.6649800   -0.395895162119    0.236459946619
      8   L      17             0.7705450    1.215834355681    0.860618805716

      9   L      18             0.1958570    1.000000000000    1.000000000000

 C         

     10   S      19           172.2560000    0.061766907377
     10   S      20            25.9109000    0.358794042852
     10   S      21             5.5333500    0.700713083689

     11   L      22             3.6649800   -0.395895162119    0.236459946619
     11   L      23             0.7705450    1.215834355681    0.860618805716

     12   L      24             0.1958570    1.000000000000    1.000000000000

 C         

     13   S      25           172.2560000    0.061766907377
     13   S      26            25.9109000    0.358794042852
     13   S      27             5.5333500    0.700713083689

     14   L      28             3.6649800   -0.395895162119    0.236459946619
     14   L      29             0.7705450    1.215834355681    0.860618805716

     15   L      30             0.1958570    1.000000000000    1.000000000000

 C         

     16   S      31           172.2560000    0.061766907377
     16   S      32            25.9109000    0.358794042852
     16   S      33             5.5333500    0.700713083689

     17   L      34             3.6649800   -0.395895162119    0.236459946619
     17   L      35             0.7705450    1.215834355681    0.860618805716

     18   L      36             0.1958570    1.000000000000    1.000000000000

 C         

     19   S      37           172.2560000    0.061766907377
     19   S      38            25.9109000    0.358794042852
     19   S      39             5.5333500    0.700713083689

     20   L      40             3.6649800   -0.395895162119    0.236459946619
     20   L      41             0.7705450    1.215834355681    0.860618805716

     21   L      42             0.1958570    1.000000000000    1.000000000000

 C         

     22   S      43           172.2560000    0.061766907377
     22   S      44            25.9109000    0.358794042852
     22   S      45             5.5333500    0.700713083689

     23   L      46             3.6649800   -0.395895162119    0.236459946619
     23   L      47             0.7705450    1.215834355681    0.860618805716

     24   L      48             0.1958570    1.000000000000    1.000000000000

 H         

     25   S      49             5.4471780    0.156284978695
     25   S      50             0.8245472    0.904690876670

     26   S      51             0.1831916    1.000000000000

 H         

     27   S      52             5.4471780    0.156284978695
     27   S      53             0.8245472    0.904690876670

     28   S      54             0.1831916    1.000000000000

 H         

     29   S      55             5.4471780    0.156284978695
     29   S      56             0.8245472    0.904690876670

     30   S      57             0.1831916    1.000000000000

 H         

     31   S      58             5.4471780    0.156284978695
     31   S      59             0.8245472    0.904690876670

     32   S      60             0.1831916    1.000000000000

 C         

     33   S      61           172.2560000    0.061766907377
     33   S      62            25.9109000    0.358794042852
     33   S      63             5.5333500    0.700713083689

     34   L      64             3.6649800   -0.395895162119    0.236459946619
     34   L      65             0.7705450    1.215834355681    0.860618805716

     35   L      66             0.1958570    1.000000000000    1.000000000000

 C         

     36   S      67           172.2560000    0.061766907377
     36   S      68            25.9109000    0.358794042852
     36   S      69             5.5333500    0.700713083689

     37   L      70             3.6649800   -0.395895162119    0.236459946619
     37   L      71             0.7705450    1.215834355681    0.860618805716

     38   L      72             0.1958570    1.000000000000    1.000000000000

 C         

     39   S      73           172.2560000    0.061766907377
     39   S      74            25.9109000    0.358794042852
     39   S      75             5.5333500    0.700713083689

     40   L      76             3.6649800   -0.395895162119    0.236459946619
     40   L      77             0.7705450    1.215834355681    0.860618805716

     41   L      78             0.1958570    1.000000000000    1.000000000000

 C         

     42   S      79           172.2560000    0.061766907377
     42   S      80            25.9109000    0.358794042852
     42   S      81             5.5333500    0.700713083689

     43   L      82             3.6649800   -0.395895162119    0.236459946619
     43   L      83             0.7705450    1.215834355681    0.860618805716

     44   L      84             0.1958570    1.000000000000    1.000000000000

 C         

     45   S      85           172.2560000    0.061766907377
     45   S      86            25.9109000    0.358794042852
     45   S      87             5.5333500    0.700713083689

     46   L      88             3.6649800   -0.395895162119    0.236459946619
     46   L      89             0.7705450    1.215834355681    0.860618805716

     47   L      90             0.1958570    1.000000000000    1.000000000000

 C         

     48   S      91           172.2560000    0.061766907377
     48   S      92            25.9109000    0.358794042852
     48   S      93             5.5333500    0.700713083689

     49   L      94             3.6649800   -0.395895162119    0.236459946619
     49   L      95             0.7705450    1.215834355681    0.860618805716

     50   L      96             0.1958570    1.000000000000    1.000000000000

 O         

     51   S      97           322.0370000    0.059239393389
     51   S      98            48.4308000    0.351499960776
     51   S      99            10.4206000    0.707657921031

     52   L     100             7.4029400   -0.404453583190    0.244586106967
     52   L     101             1.5762000    1.221561761397    0.853955373466

     53   L     102             0.3736840    1.000000000000    1.000000000000

 O         

     54   S     103           322.0370000    0.059239393389
     54   S     104            48.4308000    0.351499960776
     54   S     105            10.4206000    0.707657921031

     55   L     106             7.4029400   -0.404453583190    0.244586106967
     55   L     107             1.5762000    1.221561761397    0.853955373466

     56   L     108             0.3736840    1.000000000000    1.000000000000

 O         

     57   S     109           322.0370000    0.059239393389
     57   S     110            48.4308000    0.351499960776
     57   S     111            10.4206000    0.707657921031

     58   L     112             7.4029400   -0.404453583190    0.244586106967
     58   L     113             1.5762000    1.221561761397    0.853955373466

     59   L     114             0.3736840    1.000000000000    1.000000000000

 O         

     60   S     115           322.0370000    0.059239393389
     60   S     116            48.4308000    0.351499960776
     60   S     117            10.4206000    0.707657921031

     61   L     118             7.4029400   -0.404453583190    0.244586106967
     61   L     119             1.5762000    1.221561761397    0.853955373466

     62   L     120             0.3736840    1.000000000000    1.000000000000

 O         

     63   S     121           322.0370000    0.059239393389
     63   S     122            48.4308000    0.351499960776
     63   S     123            10.4206000    0.707657921031

     64   L     124             7.4029400   -0.404453583190    0.244586106967
     64   L     125             1.5762000    1.221561761397    0.853955373466

     65   L     126             0.3736840    1.000000000000    1.000000000000

 O         

     66   S     127           322.0370000    0.059239393389
     66   S     128            48.4308000    0.351499960776
     66   S     129            10.4206000    0.707657921031

     67   L     130             7.4029400   -0.404453583190    0.244586106967
     67   L     131             1.5762000    1.221561761397    0.853955373466

     68   L     132             0.3736840    1.000000000000    1.000000000000

 O         

     69   S     133           322.0370000    0.059239393389
     69   S     134            48.4308000    0.351499960776
     69   S     135            10.4206000    0.707657921031

     70   L     136             7.4029400   -0.404453583190    0.244586106967
     70   L     137             1.5762000    1.221561761397    0.853955373466

     71   L     138             0.3736840    1.000000000000    1.000000000000

 C         

     72   S     139           172.2560000    0.061766907377
     72   S     140            25.9109000    0.358794042852
     72   S     141             5.5333500    0.700713083689

     73   L     142             3.6649800   -0.395895162119    0.236459946619
     73   L     143             0.7705450    1.215834355681    0.860618805716

     74   L     144             0.1958570    1.000000000000    1.000000000000

 C         

     75   S     145           172.2560000    0.061766907377
     75   S     146            25.9109000    0.358794042852
     75   S     147             5.5333500    0.700713083689

     76   L     148             3.6649800   -0.395895162119    0.236459946619
     76   L     149             0.7705450    1.215834355681    0.860618805716

     77   L     150             0.1958570    1.000000000000    1.000000000000

 O         

     78   S     151           322.0370000    0.059239393389
     78   S     152            48.4308000    0.351499960776
     78   S     153            10.4206000    0.707657921031

     79   L     154             7.4029400   -0.404453583190    0.244586106967
     79   L     155             1.5762000    1.221561761397    0.853955373466

     80   L     156             0.3736840    1.000000000000    1.000000000000

 H         

     81   S     157             5.4471780    0.156284978695
     81   S     158             0.8245472    0.904690876670

     82   S     159             0.1831916    1.000000000000

 C         

     83   S     160           172.2560000    0.061766907377
     83   S     161            25.9109000    0.358794042852
     83   S     162             5.5333500    0.700713083689

     84   L     163             3.6649800   -0.395895162119    0.236459946619
     84   L     164             0.7705450    1.215834355681    0.860618805716

     85   L     165             0.1958570    1.000000000000    1.000000000000

 C         

     86   S     166           172.2560000    0.061766907377
     86   S     167            25.9109000    0.358794042852
     86   S     168             5.5333500    0.700713083689

     87   L     169             3.6649800   -0.395895162119    0.236459946619
     87   L     170             0.7705450    1.215834355681    0.860618805716

     88   L     171             0.1958570    1.000000000000    1.000000000000

 H         

     89   S     172             5.4471780    0.156284978695
     89   S     173             0.8245472    0.904690876670

     90   S     174             0.1831916    1.000000000000

 H         

     91   S     175             5.4471780    0.156284978695
     91   S     176             0.8245472    0.904690876670

     92   S     177             0.1831916    1.000000000000

 H         

     93   S     178             5.4471780    0.156284978695
     93   S     179             0.8245472    0.904690876670

     94   S     180             0.1831916    1.000000000000

 H         

     95   S     181             5.4471780    0.156284978695
     95   S     182             0.8245472    0.904690876670

     96   S     183             0.1831916    1.000000000000

 H         

     97   S     184             5.4471780    0.156284978695
     97   S     185             0.8245472    0.904690876670

     98   S     186             0.1831916    1.000000000000

 H         

     99   S     187             5.4471780    0.156284978695
     99   S     188             0.8245472    0.904690876670

    100   S     189             0.1831916    1.000000000000

 H         

    101   S     190             5.4471780    0.156284978695
    101   S     191             0.8245472    0.904690876670

    102   S     192             0.1831916    1.000000000000

 H         

    103   S     193             5.4471780    0.156284978695
    103   S     194             0.8245472    0.904690876670

    104   S     195             0.1831916    1.000000000000

 H         

    105   S     196             5.4471780    0.156284978695
    105   S     197             0.8245472    0.904690876670

    106   S     198             0.1831916    1.000000000000

 H         

    107   S     199             5.4471780    0.156284978695
    107   S     200             0.8245472    0.904690876670

    108   S     201             0.1831916    1.000000000000

 H         

    109   S     202             5.4471780    0.156284978695
    109   S     203             0.8245472    0.904690876670

    110   S     204             0.1831916    1.000000000000

 TOTAL NUMBER OF BASIS SET SHELLS             =  110
 NUMBER OF CARTESIAN GAUSSIAN BASIS FUNCTIONS =  266
 NUMBER OF ELECTRONS                          =  188
 CHARGE OF MOLECULE                           =    0
 SPIN MULTIPLICITY                            =    1
 NUMBER OF OCCUPIED ORBITALS (ALPHA)          =   94
 NUMBER OF OCCUPIED ORBITALS (BETA )          =   94
 TOTAL NUMBER OF ATOMS                        =   42
 THE NUCLEAR REPULSION ENERGY IS     2141.7433165684

     $CONTRL OPTIONS
     ---------------
 SCFTYP=RHF          RUNTYP=ENERGY       EXETYP=RUN     
 MPLEVL=       0     CITYP =NONE         CCTYP =NONE         VBTYP =NONE    
 DFTTYP=NONE         TDDFT =NONE    
 MULT  =       1     ICHARG=       0     NZVAR =       0     COORD =UNIQUE  
 PP    =NONE         RELWFN=NONE         LOCAL =NONE         NUMGRD=       F
 ISPHER=      -1     NOSYM =       0     MAXIT =      60     UNITS =ANGS    
 PLTORB=       F     MOLPLT=       F     AIMPAC=       F     FRIEND=        
 NPRINT=       7     IREST =       0     GEOM  =INPUT   
 NORMF =       0     NORMP =       0     ITOL  =      20     ICUT  =       9
 INTTYP=BEST         GRDTYP=BEST         QMTTOL= 1.0E-06

     $SYSTEM OPTIONS
     ---------------
  REPLICATED MEMORY=    30000000 WORDS (ON EVERY NODE).
 DISTRIBUTED MEMDDI=        1000 MILLION WORDS IN AGGREGATE,
 MEMDDI DISTRIBUTED OVER   6 PROCESSORS IS   166666666 WORDS/PROCESSOR.
 TOTAL MEMORY REQUESTED ON EACH PROCESSOR=   196666666 WORDS.
 TIMLIM=      525600.00 MINUTES, OR     365.0 DAYS.
 PARALL= T  BALTYP=  DLB     KDIAG=    0  COREFL= F
 MXSEQ2=     300 MXSEQ3=     150  mem10=         0

          ----------------
          PROPERTIES INPUT
          ----------------

     MOMENTS            FIELD           POTENTIAL          DENSITY
 IEMOM =       1   IEFLD =       0   IEPOT =       0   IEDEN =       0
 WHERE =COMASS     WHERE =NUCLEI     WHERE =NUCLEI     WHERE =NUCLEI  
 OUTPUT=BOTH       OUTPUT=BOTH       OUTPUT=BOTH       OUTPUT=BOTH    
 IEMINT=       0   IEFINT=       0                     IEDINT=       0
                                                       MORB  =       0
          EXTRAPOLATION IN EFFECT
          SOSCF IN EFFECT
 ORBITAL PRINTING OPTION: NPREO=     1   266     2     1

     -------------------------------
     INTEGRAL TRANSFORMATION OPTIONS
     -------------------------------
     NWORD  =            0
     CUTOFF = 1.0E-09     MPTRAN =       0
     DIRTRF =       T     AOINTS =DUP     

          ----------------------
          INTEGRAL INPUT OPTIONS
          ----------------------
 NOPK  =       1 NORDER=       0 SCHWRZ=       T

     ------------------------------------------
     THE POINT GROUP IS C1 , NAXIS= 0, ORDER= 1
     ------------------------------------------

     DIMENSIONS OF THE SYMMETRY SUBSPACES ARE
 A   =  266

 ..... DONE SETTING UP THE RUN .....
 CPU     0: STEP CPU TIME=     0.02 TOTAL CPU TIME=          0.0 (      0.0 MIN)
 TOTAL WALL CLOCK TIME=          0.0 SECONDS, CPU UTILIZATION IS    50.00%

          ********************
          1 ELECTRON INTEGRALS
          ********************
 ...... END OF ONE-ELECTRON INTEGRALS ......
 CPU     0: STEP CPU TIME=     0.03 TOTAL CPU TIME=          0.0 (      0.0 MIN)
 TOTAL WALL CLOCK TIME=          0.1 SECONDS, CPU UTILIZATION IS    62.50%

          -------------
          GUESS OPTIONS
          -------------
          GUESS =HUCKEL            NORB  =       0          NORDER=       0
          MIX   =       F          PRTMO =       F          PUNMO =       F
          TOLZ  = 1.0E-08          TOLE  = 1.0E-05
          SYMDEN=       F          PURIFY=       F

 INITIAL GUESS ORBITALS GENERATED BY HUCKEL   ROUTINE.
 HUCKEL GUESS REQUIRES    630138 WORDS.

 SYMMETRIES FOR INITIAL GUESS ORBITALS FOLLOW.   BOTH SET(S).
    94 ORBITALS ARE OCCUPIED (   26 CORE ORBITALS).
    27=A       28=A       29=A       30=A       31=A       32=A       33=A   
    34=A       35=A       36=A       37=A       38=A       39=A       40=A   
    41=A       42=A       43=A       44=A       45=A       46=A       47=A   
    48=A       49=A       50=A       51=A       52=A       53=A       54=A   
    55=A       56=A       57=A       58=A       59=A       60=A       61=A   
    62=A       63=A       64=A       65=A       66=A       67=A       68=A   
    69=A       70=A       71=A       72=A       73=A       74=A       75=A   
    76=A       77=A       78=A       79=A       80=A       81=A       82=A   
    83=A       84=A       85=A       86=A       87=A       88=A       89=A   
    90=A       91=A       92=A       93=A       94=A       95=A       96=A   
    97=A       98=A       99=A      100=A      101=A      102=A      103=A   
   104=A   
 ...... END OF INITIAL ORBITAL SELECTION ......
 CPU     0: STEP CPU TIME=     0.13 TOTAL CPU TIME=          0.2 (      0.0 MIN)
 TOTAL WALL CLOCK TIME=          0.4 SECONDS, CPU UTILIZATION IS    47.37%

                    ----------------------
                    AO INTEGRAL TECHNOLOGY
                    ----------------------
     S,P,L SHELL ROTATED AXIS INTEGRALS, REPROGRAMMED BY
        KAZUYA ISHIMURA (IMS) AND JOSE SIERRA (SYNSTAR).
     S,P,D,L SHELL ROTATED AXIS INTEGRALS PROGRAMMED BY
        KAZUYA ISHIMURA (INSTITUTE FOR MOLECULAR SCIENCE).
     S,P,D,F,G SHELL TO TOTAL QUARTET ANGULAR MOMENTUM SUM 5,
        ERIC PROGRAM BY GRAHAM FLETCHER (ELORET AND NASA ADVANCED
        SUPERCOMPUTING DIVISION, AMES RESEARCH CENTER).
     S,P,D,F,G,L SHELL GENERAL RYS QUADRATURE PROGRAMMED BY
        MICHEL DUPUIS (PACIFIC NORTHWEST NATIONAL LABORATORY).

          --------------------
          2 ELECTRON INTEGRALS
          --------------------

 DIRECT SCF METHOD SKIPS INTEGRAL STORAGE ON DISK.
 DIRECT TRANSFORMATION SKIPS AO INTEGRAL STORAGE ON DISK.
  ...... END OF TWO-ELECTRON INTEGRALS .....
 CPU     0: STEP CPU TIME=     0.02 TOTAL CPU TIME=          0.2 (      0.0 MIN)
 TOTAL WALL CLOCK TIME=          0.4 SECONDS, CPU UTILIZATION IS    50.00%

          --------------------------
                 RHF SCF CALCULATION
          --------------------------

     NUCLEAR ENERGY =      2141.7433165684
     MAXIT =   60     NPUNCH=    2
     EXTRAP=T  DAMP=F  SHIFT=F  RSTRCT=F  DIIS=F  DEM=F  SOSCF=T
     DENSITY MATRIX CONV=  2.00E-05
     SOSCF WILL OPTIMIZE   16168 ORBITAL ROTATIONS, SOGTOL=   0.250
     MEMORY REQUIRED FOR RHF ITERS=    620254 WORDS.

 DIRECT SCF CALCULATION, SCHWRZ=T   FDIFF=T,  DIRTHR=  0.00E+00 NITDIR=10
 SCHWARZ INEQUALITY OVERHEAD:     22239 INTEGRALS, T=        0.00

                                                                                   NONZERO     BLOCKS
 ITER EX DEM     TOTAL ENERGY        E CHANGE  DENSITY CHANGE     ORB. GRAD      INTEGRALS    SKIPPED
   1  0  0    -1279.4602219136 -1279.4602219136   0.795671295   0.000000000      100269805   16121937
          ---------------START SECOND ORDER SCF---------------
   2  1  0    -1282.4095108434    -2.9492889298   0.160534787   0.092949510      100161267   16183438
   3  2  0    -1282.5391525244    -0.1296416810   0.115800448   0.080530371       99299248   16352020
   4  3  0    -1282.6636610581    -0.1245085337   0.026977445   0.007320576       97531129   16498651
   5  4  0    -1282.6663404625    -0.0026794044   0.004834004   0.001558098       94891517   16631713
   6  5  0    -1282.6666549817    -0.0003145192   0.001697634   0.000864035       90389375   16787165
   7  6  0    -1282.6667037912    -0.0000488095   0.000601726   0.000349341       85617074   16931253
   8  7  0    -1282.6667088350    -0.0000050438   0.000223911   0.000327591       80257400   17069058
   9  8  0    -1282.6667099920    -0.0000011570   0.000099676   0.000041378       73748840   17236960
  10  9  0    -1282.6667100999    -0.0000001080   0.000040028   0.000019840       69946964   17323345
  11 10  0    -1282.6667101281    -0.0000000281   0.000018296   0.000007903       65621391   17429582
  12 11  0    -1282.6667101344    -0.0000000063   0.000009599   0.000003201       61420484   17518299

          -----------------
          DENSITY CONVERGED
          -----------------
     TIME TO FORM FOCK OPERATORS=      18.3 SECONDS (       1.5 SEC/ITER)
     FOCK TIME ON FIRST ITERATION=       1.7, LAST ITERATION=       1.2
     TIME TO SOLVE SCF EQUATIONS=       0.4 SECONDS (       0.0 SEC/ITER)

 FINAL RHF ENERGY IS    -1282.6667101344 AFTER  12 ITERATIONS

          ------------
          EIGENVECTORS
          ------------

                      1          2          3          4          5
                  -20.5138   -20.5081   -20.5076   -20.4988   -20.4885
                     A          A          A          A          A   
    1  C  1  S   -0.000124   0.000008  -0.000794  -0.000002  -0.000000
    2  C  1  S   -0.001114   0.000041  -0.003106  -0.000032  -0.000009
    3  C  1  X    0.000017  -0.000014  -0.001541  -0.000020   0.000003
    4  C  1  Y   -0.000524   0.000000  -0.000773   0.000023   0.000008
    5  C  1  Z   -0.000683  -0.000004  -0.000163  -0.000021  -0.000009
    6  C  1  S    0.003846  -0.000117   0.018944  -0.000162   0.000029
    7  C  1  X   -0.004436   0.000166  -0.009951  -0.000009   0.000014
    8  C  1  Y   -0.000387  -0.000005  -0.002075  -0.000286  -0.000052
    9  C  1  Z    0.008331   0.000045   0.007366  -0.000033   0.000060
   10  C  2  S   -0.000010   0.000001  -0.000079   0.000220  -0.000000
   11  C  2  S   -0.000023   0.000004  -0.000411   0.000820  -0.000000
   12  C  2  X   -0.000005  -0.000000   0.000005  -0.000037  -0.000000
   13  C  2  Y    0.000082  -0.000001   0.000106   0.000919  -0.000000
   14  C  2  Z    0.000059  -0.000000   0.000035   0.000048  -0.000000
   15  C  2  S    0.001170  -0.000050   0.005331  -0.023197   0.000006
   16  C  2  X   -0.000185   0.000022  -0.002246   0.004540  -0.000002
   17  C  2  Y    0.000637  -0.000010   0.001644   0.009172   0.000010
   18  C  2  Z    0.000298  -0.000024   0.002870  -0.006310   0.000006
   19  C  3  S    0.000031  -0.000001   0.000054   0.000250   0.000000
   20  C  3  S    0.000164  -0.000003   0.000291   0.001017  -0.000000
   21  C  3  X    0.000001   0.000000   0.000002  -0.000172   0.000001
   22  C  3  Y   -0.000087   0.000002  -0.000207   0.000737  -0.000002
   23  C  3  Z   -0.000042  -0.000000   0.000016   0.000242   0.000001
   24  C  3  S   -0.002396   0.000042  -0.004458  -0.022814  -0.000012
   25  C  3  X   -0.000837   0.000008  -0.000986  -0.005244  -0.000006
   26  C  3  Y   -0.000033   0.000012  -0.001339   0.008828   0.000003
   27  C  3  Z    0.001460  -0.000007   0.001241   0.007413   0.000003
   28  C  4  S   -0.000013   0.000000  -0.000028  -0.000283  -0.000000
   29  C  4  S   -0.000062   0.000002  -0.000190  -0.001542  -0.000000
   30  C  4  X   -0.000018   0.000000  -0.000059   0.000094  -0.000000
   31  C  4  Y    0.000045   0.000000  -0.000007  -0.001244   0.000000
   32  C  4  Z    0.000027  -0.000001   0.000065  -0.000130  -0.000000
   33  C  4  S    0.000921  -0.000008   0.000923   0.026052   0.000007
   34  C  4  X    0.000296  -0.000005   0.000597   0.007969   0.000002
   35  C  4  Y    0.000360  -0.000004   0.000273   0.021532   0.000003
   36  C  4  Z   -0.000497   0.000005  -0.000739  -0.011406   0.000000
   37  C  5  S   -0.000004  -0.000315  -0.000038   0.000000   0.000266
   38  C  5  S   -0.000024  -0.001719  -0.000227   0.000001   0.001043
   39  C  5  X    0.000014  -0.000802   0.000045  -0.000000   0.000707
   40  C  5  Y    0.000009   0.000036   0.000042  -0.000000   0.000372
   41  C  5  Z   -0.000003  -0.000899  -0.000061   0.000000  -0.000317
   42  C  5  S    0.000375   0.028644   0.002988  -0.000011  -0.026595
   43  C  5  X   -0.000017   0.005760  -0.000809   0.000002   0.006651
   44  C  5  Y   -0.000078  -0.007136  -0.001188   0.000004   0.006537
   45  C  5  Z    0.000196   0.025079   0.002452  -0.000007  -0.011276
   46  C  6  S    0.000001  -0.000153  -0.000032   0.000000   0.000252
   47  C  6  S    0.000001  -0.000780  -0.000222   0.000000   0.001026
   48  C  6  X   -0.000006   0.000175   0.000070  -0.000000   0.000716
   49  C  6  Y   -0.000009  -0.000019   0.000031  -0.000000   0.000286
   50  C  6  Z    0.000002   0.000233  -0.000046  -0.000000  -0.000075
   51  C  6  S   -0.000107   0.009357   0.002067  -0.000001  -0.023133
   52  C  6  X   -0.000091  -0.008573  -0.002467   0.000007   0.011405
   53  C  6  Y   -0.000035  -0.001570  -0.000825   0.000002   0.002007
   54  C  6  Z    0.000074  -0.004115  -0.000026   0.000002   0.005710
   55  C  7  S   -0.000001   0.000197   0.000015  -0.000000  -0.000321
   56  C  7  S   -0.000007   0.000683   0.000031   0.000000  -0.001729
   57  C  7  X   -0.000001   0.000707  -0.000057   0.000000  -0.000909
   58  C  7  Y   -0.000002  -0.000015  -0.000051   0.000000  -0.000438
   59  C  7  Z    0.000008   0.000737   0.000092  -0.000000   0.000316
   60  C  7  S   -0.000050  -0.021798  -0.002342   0.000005   0.028038
   61  C  7  X   -0.000022  -0.000072  -0.000927   0.000001   0.007864
   62  C  7  Y   -0.000006  -0.003640  -0.000472   0.000001   0.010714
   63  C  7  Z   -0.000033   0.009945   0.000323  -0.000001  -0.021702
   64  C  8  S    0.000122   0.000001   0.000156  -0.000037   0.000001
   65  C  8  S    0.000840   0.000004   0.000585  -0.000132   0.000004
   66  C  8  X   -0.000228   0.000003   0.000218  -0.000014   0.000004
   67  C  8  Y    0.000427   0.000002  -0.000218  -0.000292   0.000001
   68  C  8  Z    0.000432  -0.000004   0.000729  -0.000055   0.000002
   69  C  8  S   -0.002197  -0.000055  -0.003896   0.004662  -0.000044
   70  C  8  X    0.004023  -0.000012   0.005635   0.000350   0.000022
   71  C  8  Y   -0.003659  -0.000044   0.000041  -0.001786  -0.000021
   72  C  8  Z   -0.003370   0.000062  -0.004484   0.000205   0.000002
   73  H  9  S    0.000019  -0.000000   0.000039  -0.000808   0.000000
   74  H  9  S   -0.000046   0.000001  -0.000082   0.002264  -0.000000
   75  H 10  S   -0.000017   0.000000  -0.000044   0.003424  -0.000000
   76  H 10  S    0.000005  -0.000000   0.000053   0.003099   0.000000
   77  H 11  S   -0.000004   0.003407   0.000003   0.000000  -0.000691
   78  H 11  S    0.000001   0.003090   0.000034   0.000000   0.001657
   79  H 12  S    0.000001  -0.000777  -0.000022   0.000000   0.003651
   80  H 12  S   -0.000000   0.002218   0.000065  -0.000000   0.003586
   81  C 13  S    0.000036  -0.000000   0.000080  -0.000178   0.000000
   82  C 13  S    0.000252  -0.000002   0.000638  -0.000855   0.000002
   83  C 13  X    0.000120  -0.000001   0.000251  -0.000077   0.000003
   84  C 13  Y    0.000166  -0.000001   0.000289   0.000516   0.000002
   85  C 13  Z   -0.000056   0.000006  -0.000541   0.000103  -0.000001
   86  C 13  S   -0.001662   0.000006  -0.002411   0.011834  -0.000014
   87  C 13  X   -0.001650   0.000032  -0.004340   0.001999  -0.000011
   88  C 13  Y   -0.003071  -0.000002  -0.001159  -0.011754  -0.000015
   89  C 13  Z    0.001659  -0.000063   0.006432  -0.002800   0.000010
   90  C 14  S    0.000011  -0.000000   0.000023  -0.000234  -0.000000
   91  C 14  S    0.000089  -0.000001   0.000162  -0.001783   0.000000
   92  C 14  X   -0.000036   0.000001  -0.000071   0.000016  -0.000000
   93  C 14  Y    0.000013   0.000001  -0.000071  -0.000728  -0.000000
   94  C 14  Z    0.000028  -0.000001   0.000075  -0.000013   0.000000
   95  C 14  S   -0.000016   0.000008  -0.000620   0.020597   0.000004
   96  C 14  X    0.000245  -0.000010   0.001155  -0.011960   0.000002
   97  C 14  Y    0.000023  -0.000003   0.000716   0.016299   0.000005
   98  C 14  Z   -0.000298   0.000012  -0.001458   0.016765  -0.000003
   99  C 15  S    0.000005   0.000000  -0.000008  -0.000084  -0.000000
  100  C 15  S    0.000033   0.000000  -0.000039   0.001647  -0.000000
  101  C 15  X    0.000014  -0.000001   0.000044  -0.000072   0.000000
  102  C 15  Y    0.000018  -0.000000   0.000027  -0.000243   0.000000
  103  C 15  Z   -0.000028   0.000000  -0.000048   0.000090  -0.000000
  104  C 15  S   -0.000269  -0.000005   0.000666  -0.004426   0.000002
  105  C 15  X    0.000179  -0.000003   0.000514   0.006278   0.000001
  106  C 15  Y   -0.000141  -0.000002   0.000299  -0.041529  -0.000001
  107  C 15  Z   -0.000226   0.000006  -0.000834  -0.008704  -0.000002
  108  C 16  S   -0.000004   0.000286  -0.000095   0.000000  -0.000166
  109  C 16  S   -0.000026   0.001201  -0.000540   0.000001  -0.000786
  110  C 16  X   -0.000028   0.000468  -0.000216   0.000001   0.000480
  111  C 16  Y   -0.000003   0.000175  -0.000091   0.000000   0.000233
  112  C 16  Z   -0.000019   0.000007   0.000034   0.000000  -0.000172
  113  C 16  S    0.000068  -0.023270   0.004945  -0.000011   0.010873
  114  C 16  X    0.000377   0.012968   0.006667  -0.000019  -0.012433
  115  C 16  Y    0.000009   0.002192   0.002530  -0.000007  -0.005661
  116  C 16  Z    0.000237   0.006391  -0.000641  -0.000001   0.003498
  117  C 17  S    0.000002  -0.000064   0.000014  -0.000000  -0.000237
  118  C 17  S    0.000013   0.001792   0.000048  -0.000000  -0.001707
  119  C 17  X   -0.000003  -0.000068  -0.000091   0.000000  -0.000886
  120  C 17  Y   -0.000003   0.000047  -0.000026   0.000000  -0.000394
  121  C 17  Z    0.000002  -0.000194  -0.000021   0.000000   0.000204
  122  C 17  S   -0.000178  -0.004740  -0.002141   0.000007   0.022794
  123  C 17  X   -0.000117  -0.034431  -0.001210   0.000004   0.027290
  124  C 17  Y   -0.000027  -0.002626  -0.000280   0.000001   0.006527
  125  C 17  Z   -0.000034  -0.026715  -0.000429   0.000001   0.009038
  126  C 18  S   -0.000001  -0.000225  -0.000016   0.000000  -0.000028
  127  C 18  S   -0.000004  -0.001761  -0.000118   0.000000   0.001994
  128  C 18  X   -0.000004  -0.000486  -0.000057   0.000000  -0.000199
  129  C 18  Y   -0.000001   0.000038  -0.000024   0.000000  -0.000211
  130  C 18  Z   -0.000004  -0.000586   0.000007   0.000000   0.000371
  131  C 18  S    0.000022   0.019768   0.000654  -0.000002  -0.003923
  132  C 18  X    0.000039   0.024331   0.000927  -0.000002  -0.041538
  133  C 18  Y    0.000024   0.008709   0.000484  -0.000001  -0.016862
  134  C 18  Z   -0.000017   0.000257  -0.000385   0.000000   0.005074
  135  O 19  S   -0.002486  -0.000003  -0.002195  -0.000004  -0.000049
  136  O 19  S   -0.000659  -0.000000  -0.000758  -0.000001  -0.000010
  137  O 19  X    0.000318  -0.000001  -0.000019   0.000005   0.000001
  138  O 19  Y    0.000699   0.000001   0.000015  -0.000006   0.000002
  139  O 19  Z   -0.000149  -0.000001   0.000002   0.000007  -0.000000
  140  O 19  S    0.002923  -0.000006   0.003425   0.000010   0.000018
  141  O 19  X   -0.002356   0.000002   0.000411  -0.000029   0.000001
  142  O 19  Y   -0.004151   0.000002  -0.001088   0.000041  -0.000005
  143  O 19  Z    0.001303   0.000006  -0.000442  -0.000030  -0.000002
  144  O 20  S    0.000428  -0.000035  -0.002246  -0.000021   0.000467
  145  O 20  S    0.000166  -0.000010  -0.000676  -0.000006   0.000136
  146  O 20  X    0.000075   0.000026   0.000706  -0.000004   0.000011
  147  O 20  Y    0.000000   0.000003   0.000162  -0.000001   0.000001
  148  O 20  Z    0.000013   0.000012   0.000069  -0.000001   0.000008
  149  O 20  S   -0.000574  -0.000036   0.003553   0.000008  -0.000507
  150  O 20  X   -0.000397  -0.000098  -0.004280   0.000017  -0.000000
  151  O 20  Y   -0.000051  -0.000024  -0.000991   0.000002   0.000047
  152  O 20  Z   -0.000235  -0.000021  -0.000639   0.000004  -0.000116
  153  O 21  S    0.000217  -0.000005   0.000633  -0.013228   0.000003
  154  O 21  S    0.000062  -0.000001   0.000172  -0.003010   0.000001
  155  O 21  X   -0.000004   0.000000  -0.000004   0.000136  -0.000000
  156  O 21  Y   -0.000002   0.000000  -0.000009  -0.000254   0.000000
  157  O 21  Z    0.000011  -0.000000   0.000014  -0.000188   0.000000
  158  O 21  S   -0.000190   0.000005  -0.000632   0.009524  -0.000002
  159  O 21  X    0.000038  -0.000001   0.000088  -0.001969   0.000000
  160  O 21  Y   -0.000016   0.000000  -0.000097   0.001293  -0.000001
  161  O 21  Z   -0.000072   0.000001  -0.000159   0.002742  -0.000000
  162  O 22  S    0.000153  -0.000001   0.000086   0.983739  -0.000003
  163  O 22  S    0.000026  -0.000000   0.000016   0.101039  -0.000000
  164  O 22  X    0.000007  -0.000000   0.000012  -0.001829   0.000000
  165  O 22  Y    0.000006  -0.000000   0.000003   0.002524  -0.000000
  166  O 22  Z   -0.000007   0.000000  -0.000022   0.002440  -0.000000
  167  O 22  S   -0.000063   0.000001  -0.000070  -0.059101  -0.000001
  168  O 22  X   -0.000032   0.000000  -0.000067   0.004473  -0.000000
  169  O 22  Y   -0.000035   0.000000  -0.000058  -0.012148  -0.000000
  170  O 22  Z    0.000036  -0.000001   0.000118  -0.006008   0.000000
  171  O 23  S    0.983618  -0.000046  -0.007343  -0.000146   0.000019
  172  O 23  S    0.099568  -0.000004  -0.000459   0.000001   0.000000
  173  O 23  X   -0.003156   0.000000  -0.000016  -0.000002   0.000001
  174  O 23  Y    0.000869  -0.000003   0.000212   0.000004   0.000001
  175  O 23  Z    0.002439  -0.000001   0.000061   0.000001  -0.000000
  176  O 23  S   -0.051675   0.000003  -0.001586  -0.000094  -0.000000
  177  O 23  X    0.010092  -0.000001   0.000468   0.000024  -0.000003
  178  O 23  Y    0.000643   0.000010  -0.000592   0.000025  -0.000003
  179  O 23  Z   -0.007427   0.000004  -0.000536  -0.000032   0.000001
  180  O 24  S    0.000122   0.983650   0.010087   0.000000   0.015991
  181  O 24  S    0.000016   0.101123   0.001017  -0.000000  -0.000048
  182  O 24  X   -0.000001   0.003748   0.000021   0.000000  -0.000244
  183  O 24  Y   -0.000001   0.001259   0.000005   0.000000  -0.000104
  184  O 24  Z    0.000002   0.000253   0.000007  -0.000000   0.000040
  185  O 24  S   -0.000031  -0.059528  -0.000600   0.000000   0.008865
  186  O 24  X    0.000001  -0.013114  -0.000045  -0.000000   0.002857
  187  O 24  Y    0.000004  -0.002825   0.000015  -0.000000   0.000325
  188  O 24  Z   -0.000012  -0.005205  -0.000087   0.000000   0.001941
  189  O 25  S   -0.000027  -0.016434  -0.000839   0.000003   0.983752
  190  O 25  S   -0.000006  -0.003338  -0.000165   0.000000   0.101518
  191  O 25  X   -0.000001  -0.000336  -0.000014   0.000000   0.002035
  192  O 25  Y    0.000000  -0.000092  -0.000004   0.000000   0.001887
  193  O 25  Z   -0.000001  -0.000080  -0.000001   0.000000  -0.003170
  194  O 25  S    0.000021   0.009754   0.000467  -0.000001  -0.061227
  195  O 25  X    0.000007   0.003263   0.000150  -0.000000  -0.010426
  196  O 25  Y    0.000001   0.001460   0.000058  -0.000000  -0.006871
  197  O 25  Z    0.000003  -0.000771  -0.000017   0.000000   0.008512
  198  C 26  S   -0.000413  -0.000001   0.000153  -0.000018  -0.000001
  199  C 26  S   -0.000846  -0.000001   0.000357  -0.000123  -0.000005
  200  C 26  X    0.000949  -0.000004  -0.000012  -0.000027  -0.000001
  201  C 26  Y    0.001279  -0.000005   0.000427   0.000024   0.000001
  202  C 26  Z   -0.000857  -0.000001  -0.000036  -0.000013  -0.000004
  203  C 26  S    0.014470   0.000037  -0.005510   0.000494   0.000020
  204  C 26  X    0.015805  -0.000025   0.004823   0.000162   0.000006
  205  C 26  Y    0.008117  -0.000023   0.002934  -0.000270  -0.000026
  206  C 26  Z   -0.011127  -0.000007  -0.002862   0.000030  -0.000008
  207  C 27  S   -0.000036   0.000018  -0.000391   0.000000   0.000006
[...]
   29    0.0065104  -0.0000002   0.0000000   0.0000000  -0.0000000
   30   -0.0001541   0.0000000  -0.0000001   0.0000000  -0.0582969
   31    0.0039309  -0.0000005  -0.0000229  -0.0000006   0.0018159
   32    0.3513609   0.0019261   0.0002567  -0.0000034   0.0000000
   33   -0.0549117  -0.0001117   0.0016269  -0.0000492  -0.0000000
   34   -0.0496106   0.0020534   0.0001421   0.0001502  -0.0000000
   35    0.0001386   0.3899250   0.0021223  -0.0003587  -0.0000000
   36   -0.0000931   0.0021534   0.3972219  -0.0288621   0.0000000
   37    0.0000009  -0.0001243  -0.0254525   0.4012171   0.0000000
   38   -0.0000000   0.0000000  -0.0000000  -0.0000000   0.4008984
   39   -0.0000025   0.0000000  -0.0000000   0.0000000   0.0015812
   40    0.0000000   0.0000000  -0.0000000  -0.0000000   0.0022529
   41   -0.0001088   0.0000001   0.0000481   0.0000009   0.0001047
   42   -0.0000000  -0.0000000   0.0000000   0.0000000  -0.0003913

             6           7           8           9          10

    6    5.1611310
    7    0.4456291   5.2612366
    8    0.0000000   0.0000000   5.4112275
    9    0.0000000   0.0000000   0.0000009   0.3426185
   10   -0.0000000  -0.0000000  -0.0000000  -0.0004693   0.3527901
   11    0.0000164  -0.0001702   0.0000000   0.0000000   0.0000000
   12   -0.0002065   0.0045613   0.0000000   0.0000000   0.0000000
   13   -0.0000000  -0.0000000   0.2779704  -0.0002038   0.0000130
   14    0.0000000   0.0000000   0.0017584  -0.0526716   0.0059433
   15    0.0000000   0.0000000   0.0000910  -0.0034915  -0.0446529
   16    0.4581352  -0.1009908  -0.0000000  -0.0000000   0.0000000
   17   -0.0084031  -0.0984504   0.0000000   0.0000000  -0.0000000
   18   -0.0940439   0.4235272  -0.0000000   0.0000000   0.0000000
   19   -0.0000000  -0.0000000  -0.0003786  -0.0000000  -0.0000000
   20   -0.0000006  -0.0000000   0.0001980   0.0000000  -0.0000000
   21   -0.0000000   0.0000000  -0.0000061   0.2779920  -0.0000434
   22   -0.0000000  -0.0000000  -0.0000001   0.0144068   0.2814858
   23   -0.0000000  -0.0000000   0.0024367  -0.0000000   0.0000000
   24   -0.0001987   0.0022641   0.0000000   0.0000000   0.0000000
   25    0.0027651  -0.0542577   0.0000000   0.0000000   0.0000000
   26   -0.0000000  -0.0000000  -0.0746885   0.0000000  -0.0000000
   27   -0.0000640  -0.0000006   0.0048539  -0.0000000   0.0000000
   28    0.0000007  -0.0000000  -0.0366843  -0.0000000   0.0000000
   29    0.0000000  -0.0000000  -0.0002917   0.0000000  -0.0000000
   30   -0.0438278   0.0020654  -0.0000005   0.0000000  -0.0000000
   31   -0.0041747   0.0000129   0.0000445  -0.0000000  -0.0000000
   32    0.0000000  -0.0000000  -0.0270218  -0.0000000   0.0000000
   33   -0.0000000  -0.0000000   0.3828049   0.0000000   0.0000000
   34   -0.0000000  -0.0000000   0.3903163  -0.0000000   0.0000000
   35   -0.0000000  -0.0000000  -0.0017945  -0.0000418   0.0000010
   36    0.0000000  -0.0000000  -0.0014084   0.0000000  -0.0000007
   37   -0.0000000   0.0000000  -0.0000446   0.0000029   0.0022093
   38    0.0020691  -0.0000698  -0.0000000  -0.0000000   0.0000000
   39    0.0015314  -0.0000444   0.0000000  -0.0000000   0.0000000
   40    0.3940276  -0.0281485  -0.0000000  -0.0000000   0.0000000
   41    0.0006021  -0.0000575  -0.0000135  -0.0000000  -0.0000000
   42   -0.0297334   0.3883242   0.0000000  -0.0000000  -0.0000000

            11          12          13          14          15

   11    0.3488776
   12   -0.0004721   0.3379457
   13    0.0000000   0.0000000   5.3296589
   14   -0.0000000   0.0000000  -0.0906583   4.9300827
   15    0.0000000   0.0000000  -0.0099437   0.2864445   5.1941448
   16    0.0003104  -0.0000322   0.0000000  -0.0000000  -0.0000000
   17   -0.0445736  -0.0037562  -0.0000000   0.0000000   0.0000000
   18    0.0058643  -0.0522575   0.0000000  -0.0000000  -0.0000000
   19    0.0000000   0.0000000  -0.0000273   0.0000000  -0.0000000
   20    0.0000000   0.0000000  -0.0000063  -0.0000000  -0.0000000
   21    0.0000000   0.0000000   0.0027190   0.2684830  -0.0696631
   22    0.0000000   0.0000000  -0.0002652  -0.0663615   0.2543069
   23    0.0000000   0.0000000  -0.0000067  -0.0000000   0.0000000
   24    0.2819638   0.0145692   0.0000000   0.0000000   0.0000000
   25   -0.0000465   0.2779039   0.0000000   0.0000000   0.0000000
   26    0.0000000  -0.0000000   0.0033478   0.0000005  -0.0000000
   27    0.0000000  -0.0000000  -0.0000751  -0.0000005   0.0000000
   28    0.0000000  -0.0000000   0.0017972   0.0000007   0.0000001
   29    0.0000000   0.0000000   0.0000059   0.0000000   0.0000000
   30   -0.0000051   0.0000001  -0.0000000  -0.0000000   0.0000000
   31   -0.0000000   0.0000000  -0.0000259   0.0000000   0.0000000
   32   -0.0000000   0.0000000  -0.0046703  -0.0000175  -0.0000013
   33   -0.0000000   0.0000000  -0.0434874   0.0001279   0.0000012
   34    0.0000000   0.0000000  -0.0468194  -0.0000521   0.0000027
   35    0.0000000   0.0000000  -0.0334057  -0.0322833   0.0039577
   36    0.0000000  -0.0000000  -0.0316970  -0.0000567   0.0020397
   37    0.0000000   0.0000000   0.0024800   0.0017555  -0.0477334
   38    0.0021607   0.0000020   0.0000000   0.0000000  -0.0000000
   39    0.0000019  -0.0000000   0.0000000  -0.0000000   0.0000000
   40   -0.0000001   0.0000008   0.0000000   0.0000000   0.0000000
   41   -0.0000000   0.0000000   0.0000027  -0.0000000  -0.0000000
   42    0.0000009  -0.0000336  -0.0000000  -0.0000000   0.0000000

            16          17          18          19          20

   16    5.3625064
   17   -0.0569116   5.1917376
   18   -0.0083395   0.2797578   4.9358738
   19    0.0000000  -0.0000000   0.0000000   8.1964238
   20    0.0002785  -0.0000000   0.0000000  -0.0002576   8.2492247
   21   -0.0000000   0.0000000   0.0000000  -0.0000000   0.0000000
   22    0.0000000   0.0000000   0.0000000   0.0000000   0.0000000
   23    0.0000000   0.0000000   0.0000000  -0.0608528  -0.0000098
   24    0.0031381   0.2543532  -0.0678178   0.0000000   0.0000000
   25   -0.0003265  -0.0698048   0.2725896   0.0000000   0.0000000
   26    0.0000000  -0.0000000  -0.0000000   0.5324120   0.0016637
   27    0.0042499   0.0000001   0.0000000   0.0034058   0.5268498
   28   -0.0000111   0.0000000  -0.0000000   0.0000674  -0.0595265
   29   -0.0000000   0.0000000  -0.0000000   0.0032527  -0.0000014
   30    0.2885896   0.0011946   0.0000988   0.0000002   0.0100479
   31   -0.0867099  -0.0000798   0.0000070  -0.0000238  -0.1050259
   32   -0.0000000   0.0000000  -0.0000000   0.0011645   0.0105091
   33    0.0000000   0.0000000   0.0000000  -0.0000376   0.0000025
   34    0.0000000  -0.0000000   0.0000000   0.0006962  -0.0000015
   35    0.0000000  -0.0000000   0.0000000  -0.0000000  -0.0000001
   36   -0.0000000   0.0000000  -0.0000000  -0.0000002   0.0000001
   37    0.0000000  -0.0000000   0.0000000   0.0000000  -0.0000000
   38   -0.0317374  -0.0423028   0.0017623   0.0000000   0.0000005
   39   -0.0360196   0.0001526   0.0000003   0.0000001   0.0086359
   40   -0.0333722  -0.0000640   0.0022977   0.0000000   0.0000001
   41    0.0002708  -0.0000020   0.0000013   0.0000031   0.0012589
   42    0.0022780   0.0038087  -0.0351776   0.0000000  -0.0000000

            21          22          23          24          25

   21    8.3245362
   22   -0.0033721   8.3374005
   23    0.0000000   0.0000000   8.4019401
   24    0.0000000   0.0000000   0.0000000   8.3380810
   25    0.0000000   0.0000000   0.0000000  -0.0034713   8.3181752
   26   -0.0000000   0.0000000   0.1763382   0.0000000   0.0000000
   27    0.0000000   0.0000000   0.0000299   0.0000000   0.0000000
   28    0.0000000  -0.0000000   0.0003036   0.0000000   0.0000000
   29   -0.0000000   0.0000000   0.2617603   0.0000000   0.0000000
   30    0.0000000   0.0000000  -0.0000000  -0.0000116  -0.0000001
   31   -0.0000000  -0.0000000  -0.0000001  -0.0000000   0.0000000
   32   -0.0000001  -0.0000000   0.0049105  -0.0000000   0.0000000
   33   -0.0000000  -0.0000000   0.0049552   0.0000000   0.0000000
   34    0.0000000  -0.0000000   0.0000397   0.0000000   0.0000000
   35   -0.0012190  -0.0000037  -0.0000009   0.0000000   0.0000000
   36   -0.0000001  -0.0000020   0.0000000   0.0000000  -0.0000000
   37   -0.0000011  -0.0035564   0.0000000   0.0000000  -0.0000000
   38    0.0000000   0.0000000   0.0000000  -0.0036070  -0.0000002
   39    0.0000000  -0.0000000  -0.0000000   0.0000004  -0.0000000
   40   -0.0000000   0.0000000   0.0000000  -0.0000001  -0.0000036
   41    0.0000000   0.0000000   0.0000000   0.0000000  -0.0000000
   42    0.0000000  -0.0000000   0.0000000  -0.0000038  -0.0013009

            26          27          28          29          30

   26    4.4938441
   27    0.0005784   4.3127299
   28   -0.0416247   0.1749956   8.5831993
   29   -0.0299742  -0.0000181  -0.0000343   0.3423833
   30    0.0000047  -0.1016188   0.0036159   0.0000000   5.2080651
   31   -0.0002589   0.2520140  -0.0657207  -0.0000001   0.4301756
   32   -0.0476539  -0.0047761  -0.0311773  -0.0002735   0.0000013
   33    0.0006294  -0.0000440   0.0015051  -0.0000457  -0.0000000
   34    0.0001066  -0.0000994   0.0006600  -0.0000157   0.0000001
   35   -0.0000080  -0.0000004   0.0000006   0.0000000   0.0000000
   36   -0.0000006   0.0000038   0.0007321   0.0000000   0.0000000
   37   -0.0000000  -0.0000000  -0.0000001  -0.0000000  -0.0000000
   38    0.0000000  -0.0000035  -0.0000000  -0.0000000   0.0010976
   39    0.0000001   0.0006174   0.0001385   0.0000000   0.3965059
   40   -0.0000000  -0.0000193  -0.0000011  -0.0000000  -0.0015973
   41    0.0000064  -0.0179882   0.0012540   0.0000000  -0.0358181
   42   -0.0000000  -0.0000000   0.0000000   0.0000000  -0.0000331

            31          32          33          34          35

   31    5.6073189
   32    0.0002170   0.4481776
   33    0.0000007   0.0010507   0.4687594
   34   -0.0000116   0.0026858  -0.0173245   0.4655515
   35   -0.0000000   0.0003038   0.0007661   0.0000370   0.4083407
   36    0.0000022   0.0000080   0.0000331   0.0012202  -0.0000308
   37    0.0000000   0.0000000   0.0000004  -0.0000006   0.0000009
   38    0.0000386  -0.0000000   0.0000000   0.0000000   0.0000000
   39   -0.0495210  -0.0000021  -0.0000000   0.0000000   0.0000000
   40    0.0015440  -0.0000000  -0.0000000  -0.0000000   0.0000000
   41    0.3829960   0.0000037   0.0000001   0.0000049   0.0000000
   42    0.0000007   0.0000000  -0.0000000   0.0000000  -0.0000000

            36          37          38          39          40

   36    0.4130533
   37   -0.0014094   0.4328538
   38    0.0000000   0.0000000   0.4208342
   39    0.0000000   0.0000000   0.0022425   0.3971062
   40   -0.0000001   0.0000000  -0.0000352   0.0000480   0.4079020
   41    0.0000413  -0.0000001   0.0000035   0.0013262   0.0031956
   42    0.0000000  -0.0000000   0.0000008   0.0000003  -0.0014208

            41          42

   41    0.4027155
   42   -0.0000001   0.4007922

          TOTAL MULLIKEN AND LOWDIN ATOMIC POPULATIONS
       ATOM         MULL.POP.    CHARGE          LOW.POP.     CHARGE
    1 C             5.978094    0.021906         5.938447    0.061553
    2 C             6.225290   -0.225290         6.131819   -0.131819
    3 C             6.218502   -0.218502         6.103130   -0.103130
    4 C             6.259289   -0.259289         6.155277   -0.155277
    5 C             6.227530   -0.227530         6.132739   -0.132739
    6 C             6.210566   -0.210566         6.073527   -0.073527
    7 C             6.234588   -0.234588         6.130790   -0.130790
    8 C             6.438637   -0.438637         6.142996   -0.142996
    9 H             0.583552    0.416448         0.722451    0.277549
   10 H             0.594861    0.405139         0.725384    0.274616
   11 H             0.591589    0.408411         0.722762    0.277238
   12 H             0.579214    0.420786         0.718812    0.281188
   13 C             6.055802   -0.055802         6.037083   -0.037083
   14 C             5.618587    0.381413         5.873344    0.126656
   15 C             5.686575    0.313425         5.918300    0.081700
   16 C             6.126634   -0.126634         6.066352   -0.066352
   17 C             5.681558    0.318442         5.921009    0.078991
   18 C             5.607506    0.392494         5.858610    0.141390
   19 O             8.594785   -0.594785         8.300477   -0.300477
   20 O             8.642218   -0.642218         8.332073   -0.332073
   21 O             8.749145   -0.749145         8.333443   -0.333443
   22 O             8.756158   -0.756158         8.348484   -0.348484
   23 O             8.707567   -0.707567         8.345931   -0.345931
   24 O             8.756920   -0.756920         8.346558   -0.346558
   25 O             8.745756   -0.745756         8.325385   -0.325385
   26 C             5.142071    0.857929         5.675811    0.324189
   27 C             5.078274    0.921726         5.632660    0.367340
   28 O             8.711057   -0.711057         8.300017   -0.300017
   29 H             0.583258    0.416742         0.717656    0.282344
   30 C             6.100099   -0.100099         5.997503    0.002497
   31 C             6.368542   -0.368542         6.209529   -0.209529
   32 H             0.706978    0.293022         0.882724    0.117276
   33 H             0.746252    0.253748         0.890892    0.109108
   34 H             0.749731    0.250269         0.893205    0.106795
   35 H             0.736447    0.263553         0.882089    0.117911
   36 H             0.752948    0.247052         0.892391    0.107609
   37 H             0.762198    0.237802         0.897262    0.102738
   38 H             0.753354    0.246646         0.893475    0.106525
   39 H             0.724299    0.275701         0.879218    0.120782
   40 H             0.746606    0.253394         0.890159    0.109841
   41 H             0.739852    0.260148         0.883699    0.116301
   42 H             0.727111    0.272889         0.876527    0.123473

          -------------------------------
          BOND ORDER AND VALENCE ANALYSIS     BOND ORDER THRESHOLD=0.050
          -------------------------------

                   BOND                       BOND                       BOND
  ATOM PAIR DIST  ORDER      ATOM PAIR DIST  ORDER      ATOM PAIR DIST  ORDER
    1   8  1.543  0.869        1  26  1.529  0.827        1  28  1.427  0.770
    1  32  1.094  0.857        2   4  2.790  0.097        2  13  1.403  1.364
    2  14  1.393  1.392        2  35  1.087  0.924        3   4  1.399  1.380
    3  13  1.400  1.415        3  14  2.794  0.095        3  36  1.086  0.936
    4  15  1.391  1.345        4  37  1.088  0.936        5   7  2.791  0.088
    5  16  1.411  1.340        5  17  1.388  1.368        5  38  1.088  0.932
    6   7  1.391  1.421        6  16  1.409  1.375        6  17  2.787  0.085
    6  40  1.085  0.929        7  18  1.397  1.353        7  42  1.085  0.919
    8  13  1.515  0.955        8  33  1.095  0.902        8  34  1.096  0.912
    9  21  0.969  0.775       10  22  0.965  0.795       11  24  0.966  0.793
   12  25  0.970  0.772       13  15  2.806  0.091       14  15  1.405  1.270
   14  21  1.366  0.837       15  22  1.381  0.796       16  18  2.823  0.089
   16  30  1.460  1.053       17  18  1.405  1.265       17  24  1.379  0.795
   18  25  1.361  0.849       19  23  2.259  0.081       19  26  1.209  1.812
   20  27  1.219  1.717       20  28  2.271  0.072       23  26  1.356  0.886
   23  29  0.973  0.780       27  28  1.367  0.815       27  31  1.470  0.977
   30  31  1.349  1.729       30  39  1.090  0.914       31  41  1.085  0.918

                       TOTAL       BONDED        FREE
      ATOM            VALENCE     VALENCE     VALENCE
    1 C                 3.321       3.321      -0.000
    2 C                 3.731       3.731       0.000
    3 C                 3.755       3.755      -0.000
    4 C                 3.712       3.712      -0.000
    5 C                 3.720       3.720      -0.000
    6 C                 3.755       3.755      -0.000
    7 C                 3.733       3.733       0.000
    8 C                 3.570       3.570       0.000
    9 H                 0.817       0.817       0.000
   10 H                 0.818       0.818      -0.000
   11 H                 0.816       0.816       0.000
   12 H                 0.814       0.814      -0.000
   13 C                 3.675       3.675      -0.000
   14 C                 3.537       3.537       0.000
   15 C                 3.465       3.465      -0.000
   16 C                 3.713       3.713      -0.000
   17 C                 3.472       3.472       0.000
   18 C                 3.524       3.524       0.000
   19 O                 1.943       1.943      -0.000
   20 O                 1.908       1.908       0.000
   21 O                 1.725       1.725      -0.000
   22 O                 1.710       1.710      -0.000
   23 O                 1.767       1.767       0.000
   24 O                 1.709       1.709       0.000
   25 O                 1.736       1.736      -0.000
   26 C                 3.534       3.534       0.000
   27 C                 3.482       3.482      -0.000
   28 O                 1.729       1.729      -0.000
   29 H                 0.815       0.815      -0.000
   30 C                 3.665       3.665      -0.000
   31 C                 3.667       3.667       0.000
   32 H                 0.881       0.881      -0.000
   33 H                 0.898       0.898       0.000
   34 H                 0.899       0.899       0.000
   35 H                 0.907       0.907       0.000
   36 H                 0.919       0.919       0.000
   37 H                 0.916       0.916      -0.000
   38 H                 0.916       0.916       0.000
   39 H                 0.909       0.909       0.000
   40 H                 0.916       0.916       0.000
   41 H                 0.917       0.917       0.000
   42 H                 0.902       0.902      -0.000

          ---------------------
          ELECTROSTATIC MOMENTS
          ---------------------

 POINT   1           X           Y           Z (BOHR)    CHARGE
                 0.072004    0.032186    0.040725        0.00 (A.U.)
         DX          DY          DZ         /D/  (DEBYE)
    -1.342945   -2.142307    0.352442    2.552880
 ...... END OF PROPERTY EVALUATION ......
 CPU     0: STEP CPU TIME=     0.14 TOTAL CPU TIME=         19.4 (      0.3 MIN)
 TOTAL WALL CLOCK TIME=         44.1 SECONDS, CPU UTILIZATION IS    44.03%
               630936  WORDS OF DYNAMIC MEMORY USED
 EXECUTION OF GAMESS TERMINATED NORMALLY Mon May 25 19:49:44 2020
 DDI: 263640 bytes (0.3 MB / 0 MWords) used by master data server.
Note: The following floating-point exceptions are signalling: IEEE_DENORMALNote: The following floating-point exceptions are signalling: IEEE_DENORMAL
Note: The following floating-point exceptions are signalling: IEEE_DENORMALNote: The following floating-point exceptions are signalling: IEEE_DENORMAL

Note: The following floating-point exceptions are signalling: IEEE_DENORMAL


 ----------------------------------------
 CPU timing information for all processes
 ========================================
 0: 19.148 + 0.309 = 19.458
 1: 18.452 + 0.143 = 18.596
 2: 19.194 + 0.132 = 19.327
 3: 18.449 + 0.128 = 18.578
 4: 18.266 + 0.164 = 18.430
 5: 19.266 + 0.132 = 19.399
 ----------------------------------------
Note: The following floating-point exceptions are signalling: IEEE_DENORMAL
 ddikick.x: exited gracefully.
unset echo
----- accounting info -----
Files used on the master node pietdev were:
-rwxr-xr-x 1 piet piet     1733 mei 25 19:48 /home/piet/scr/rosmarinicacid_fukui_neu.F05*
-rw-r--r-- 1 piet piet 49152000 mei 25 19:49 /home/piet/scr/rosmarinicacid_fukui_neu.F10
ls: No match.
ls: No match.
ls: No match.
ma 25 mei 2020 19:49:47 CEST
0.126u 0.028s 0:47.50 0.2%	0+0k 0+8io 0pf+0w
