----- GAMESS execution script 'rungms' -----
This job is running on host pietdev
under operating system Linux at ma 25 mei 2020 19:04:03 CEST
Available scratch disk space (Kbyte units) at beginning of the job is
Filesystem     1K-blocks     Used Available Use% Mounted on
/dev/sda2      244568380 31071456 201003868  14% /
GAMESS temporary binary files will be written to /home/piet/scr
GAMESS supplementary output files will be written to /home/piet/gamess/scr
Copying input file eugenol_charge_chelpg.inp to your run's scratch directory...
cp eugenol_charge_chelpg.inp /home/piet/scr/eugenol_charge_chelpg.F05
unset echo
 
Assuming a single but multicore node.
 
/home/piet/gamess/ddikick.x /home/piet/gamess/gamess.03.x eugenol_charge_chelpg -ddi 1 6 pietdev:cpus=6 -scr /home/piet/scr

 Distributed Data Interface kickoff program.
 Initiating 6 compute processes on 1 nodes to run the following command:
 /home/piet/gamess/gamess.03.x eugenol_charge_chelpg 

          ******************************************************
          *         GAMESS VERSION = 30 SEP 2019 (R2)          *
          *             FROM IOWA STATE UNIVERSITY             *
          * M.W.SCHMIDT, K.K.BALDRIDGE, J.A.BOATZ, S.T.ELBERT, *
          *   M.S.GORDON, J.H.JENSEN, S.KOSEKI, N.MATSUNAGA,   *
          *          K.A.NGUYEN, S.J.SU, T.L.WINDUS,           *
          *       TOGETHER WITH M.DUPUIS, J.A.MONTGOMERY       *
          *         J.COMPUT.CHEM.  14, 1347-1363(1993)        *
          **************** 64 BIT LINUX VERSION ****************

  SINCE 1993, STUDENTS AND POSTDOCS WORKING AT IOWA STATE UNIVERSITY
  AND ALSO IN THEIR VARIOUS JOBS AFTER LEAVING ISU HAVE MADE IMPORTANT
  CONTRIBUTIONS TO THE CODE:
     IVANA ADAMOVIC, CHRISTINE AIKENS, YURI ALEXEEV, POOJA ARORA,
     ANDREY ASADCHEV, ROB BELL, PRADIPTA BANDYOPADHYAY, JONATHAN BENTZ,
     COLLEEN BERTONI, BRETT BODE, KURT BRORSEN, CALEB CARLIN, GALINA CHABAN,
     WEI CHEN, CHEOL HO CHOI, PAUL DAY, ALBERT DEFUSCO, NUWAN DESILVA,
     TIM DUDLEY, DMITRI FEDOROV, ALEX FINDLATER, GRAHAM FLETCHER, 
     MARK FREITAG, KURT GLAESEMANN, EMILIE B GUIDEZ, ANASTASIA GUNINA, 
     DAN KEMP, SAROM SOK LEANG, GRANT MERRILL,
     NORIYUKI MINEZAWA, JONATHAN MULLIN,
     TAKESHI NAGATA, SEAN NEDD, HEATHER NETZLOFF, BOSILJKA NJEGIC, RYAN OLSON,
     MIKE PAK, BUU PHAM, DAVID POOLE,
     SPENCER PRUITT, LUKE ROSKOP, TOSAPORN SATTASATHUCHANA,
     JIM SHOEMAKER, LYUDMILA SLIPCHENKO,
     TONY SMITH, JIE SONG, TETSUYA TAKETSUGU, SIMON WEBB,
     JORGE LUIS GALVEZ VALLEJO, PENG XU, SOOHAENG YOO,
     FEDERICO ZAHARIEV

  ADDITIONAL CODE HAS BEEN PROVIDED BY COLLABORATORS IN OTHER GROUPS:
     IOWA STATE UNIVERSITY:
          JOE IVANIC, AARON WEST, LAIMUTIS BYTAUTAS, KLAUS RUEDENBERG
     UNIVERSITY OF TOKYO: KIMIHIKO HIRAO, TAKAHITO NAKAJIMA,
          TAKAO TSUNEDA, MUNEAKI KAMIYA, SUSUMU YANAGISAWA,
          KIYOSHI YAGI, MAHITO CHIBA, SEIKEN TOKURA, NAOAKI KAWAKAMI
     UNIVERSITY OF AARHUS: FRANK JENSEN
     UNIVERSITY OF IOWA: VISVALDAS KAIRYS, HUI LI
     NATIONAL INST. OF STANDARDS AND TECHNOLOGY: WALT STEVENS, DAVID GARMER
     UNIVERSITY OF PISA: BENEDETTA MENNUCCI, JACOPO TOMASI
     UNIVERSITY OF MEMPHIS: HENRY KURTZ, PRAKASHAN KORAMBATH
     UNIVERSITY OF ALBERTA: TOBY ZENG, MARIUSZ KLOBUKOWSKI
     UNIVERSITY OF NEW ENGLAND: MARK SPACKMAN
     MIE UNIVERSITY: HIROAKI UMEDA
     NAT. INST. OF ADVANCED INDUSTRIAL SCIENCE AND TECHNOLOGY: KAZUO KITAURA
     MICHIGAN STATE UNIVERSITY:
          KAROL KOWALSKI, MARTA WLOCH, JEFFREY GOUR, JESSE LUTZ,
          WEI LI, JUN SHEN, J. EMILIANO DEUSTUA, PIOTR PIECUCH
     UNIVERSITY OF MINNESOTA:
          ANDREW SAND, PRACHI SHARMA, YINAN SHU
     UNIVERSITY OF SILESIA: MONIKA MUSIAL, STANISLAW KUCHARSKI
     FACULTES UNIVERSITAIRES NOTRE-DAME DE LA PAIX:
          OLIVIER QUINET, BENOIT CHAMPAGNE
     UNIVERSITY OF CALIFORNIA - SANTA BARBARA: BERNARD KIRTMAN
     INSTITUTE FOR MOLECULAR SCIENCE:
          KAZUYA ISHIMURA, MICHIO KATOUDA, AND SHIGERU NAGASE
     UNIVERSITY OF NOTRE DAME: ANNA POMOGAEVA, DAN CHIPMAN
     KYUSHU UNIVERSITY:
          HARUYUKI NAKANO,
          FENG LONG GU, JACEK KORCHOWIEC, MARCIN MAKOWSKI, AND YURIKO AOKI,
          HIROTOSHI MORI AND EISAKU MIYOSHI
     PENNSYLVANIA STATE UNIVERSITY:
          TZVETELIN IORDANOV, CHET SWALINA, JONATHAN SKONE,
          SHARON HAMMES-SCHIFFER
     WASEDA UNIVERSITY:
          MASATO KOBAYASHI, TOMOKO AKAMA, TSUGUKI TOUMA,
          TAKESHI YOSHIKAWA, YASUHIRO IKABATA, JUNJI SEINO,
          YUYA NAKAJIMA, HIROMI NAKAI
     NANJING UNIVERSITY: SHUHUA LI
     UNIVERSITY OF NEBRASKA:
          PEIFENG SU, DEJUN SI, NANDUN THELLAMUREGE, YALI WANG, HUI LI
     UNIVERSITY OF ZURICH: ROBERTO PEVERATI, KIM BALDRIDGE
     N. COPERNICUS UNIVERSITY AND JACKSON STATE UNIVERSITY:
          MARIA BARYSZ
     UNIVERSITY OF COPENHAGEN: Jimmy Kromann, CASPER STEINMANN
     TOKYO INSTITUTE OF TECHNOLOGY: HIROYA NAKATA
     NAGOYA UNIVERSITY: YOSHIO NISHIMOTO, STEPHAN IRLE
     MOSCOW STATE UNIVERSITY: VLADIMIR MIRONOV
     A.N.NESMEYANOV INSTITUTE OF ORGANOELEMENT COMPOUNDS OF RUSSIAN ACADEMY OF SCIENCES:
          IGOR S. GERASIMOV
     JOHANNES KEPLER UNIVERSITY LINZ:
          CHRISTIAN FRIEDL


 PARALLEL VERSION RUNNING ON        6 PROCESSORS IN        1 NODES.

 EXECUTION OF GAMESS BEGUN Mon May 25 19:04:03 2020

            ECHO OF THE FIRST FEW INPUT CARDS -
 INPUT CARD> $BASIS GBASIS=N21 NGAUSS=3 $END                                                
 INPUT CARD> $CONTRL SCFTYP=RHF DFTTYP=B3LYP MAXIT=60 MULT=1 ICHARG=0 $END                  
 INPUT CARD> $SYSTEM MEMDDI=1000 MWORDS=30 $END                                             
 INPUT CARD> $SCF DIRSCF=.TRUE. $END                                                        
 INPUT CARD> $ELPOT  IEPOT=1 WHERE=PDC $END                                                 
 INPUT CARD> $PDC PTSEL=CHELPG CONSTR=CHARGE $END                                           
 INPUT CARD> $DATA                                                                          
 INPUT CARD>                                                                                
 INPUT CARD>C1                                                                              
 INPUT CARD>C 6.0000000 -1.13361 0.32570 -0.02502                                           
 INPUT CARD>C 6.0000000 -1.74998 -0.94292 -0.04536                                          
 INPUT CARD>O 8.0000000 -3.09732 -1.05307 -0.24638                                          
 INPUT CARD>C 6.0000000 -0.97559 -2.08100 0.14013                                           
 INPUT CARD>C 6.0000000 0.40544 -1.96304 0.34556                                            
 INPUT CARD>C 6.0000000 1.02765 -0.71292 0.36921                                            
 INPUT CARD>C 6.0000000 2.52567 -0.57889 0.60372                                            
 INPUT CARD>C 6.0000000 3.25071 0.12404 -0.51775                                            
 INPUT CARD>C 6.0000000 3.99711 1.22466 -0.37992                                            
 INPUT CARD>C 6.0000000 0.23912 0.43767 0.17693                                             
 INPUT CARD>O 8.0000000 -2.00736 1.37149 -0.22063                                           
 INPUT CARD>C 6.0000000 -1.49346 2.69913 -0.20430                                           
 INPUT CARD>H 1.0000000 -3.45815 -0.15898 -0.35099                                          
 INPUT CARD>H 1.0000000 -1.46083 -3.05190 0.12244                                           
 INPUT CARD>H 1.0000000 0.99800 -2.86242 0.49176                                            
 INPUT CARD>H 1.0000000 2.71610 -0.04401 1.54410                                            
 INPUT CARD>H 1.0000000 2.94544 -1.58622 0.72694                                            
 INPUT CARD>H 1.0000000 3.13518 -0.32129 -1.50695                                           
 INPUT CARD>H 1.0000000 4.13474 1.70220 0.58855                                             
 INPUT CARD>H 1.0000000 4.50102 1.68135 -1.22740                                            
 INPUT CARD>H 1.0000000 0.71545 1.41238 0.18019                                             
 INPUT CARD>H 1.0000000 -0.75324 2.84588 -1.00018                                           
 INPUT CARD>H 1.0000000 -2.34906 3.35397 -0.37550                                           
 INPUT CARD>H 1.0000000 -1.03999 2.93395 0.76655                                            
 INPUT CARD> $END                                                                           
   30000000 WORDS OF MEMORY AVAILABLE

     BASIS OPTIONS
     -------------
     GBASIS=N21          IGAUSS=       3      POLAR=NONE    
     NDFUNC=       0     NFFUNC=       0     DIFFSP=       F
     NPFUNC=       0      DIFFS=       F     BASNAM=        


     RUN TITLE
     ---------
                                                                                 

 THE POINT GROUP OF THE MOLECULE IS C1      
 THE ORDER OF THE PRINCIPAL AXIS IS     0

 ATOM      ATOMIC                      COORDINATES (BOHR)
           CHARGE         X                   Y                   Z
 C           6.0    -2.1422122769        0.6154837542       -0.0472809442
 C           6.0    -3.3069826840       -1.7818604283       -0.0857179708
 O           8.0    -5.8530860963       -1.9900137459       -0.4655906889
 C           6.0    -1.8435977764       -3.9325197804        0.2648073027
 C           6.0     0.7661705045       -3.7096077029        0.6530137123
 C           6.0     1.9419769113       -1.3472234512        0.6977057319
 C           6.0     4.7728242354       -1.0939434770        1.1408653733
 C           6.0     6.1429511655        0.2344016115       -0.9784056301
 C           6.0     7.5534426428        2.3142718281       -0.7179446973
 C           6.0     0.4518712782        0.8270763730        0.3343492190
 O           8.0    -3.7933603587        2.5917402949       -0.4169302447
 C           6.0    -2.8222301736        5.1006161052       -0.3860710193
 H           1.0    -6.5349559244       -0.3004286375       -0.6632749244
 H           1.0    -2.7605684146       -5.7672547419        0.2313780499
 H           1.0     1.8859465357       -5.4091894618        0.9292916517
 H           1.0     5.1326847553       -0.0831668407        2.9179258976
 H           1.0     5.5660745133       -2.9975211562        1.3737174095
 H           1.0     5.9246311222       -0.6071500626       -2.8477225772
 H           1.0     7.8135256305        3.2166915763        1.1121982301
 H           1.0     8.5056944653        3.1772907895       -2.3194496773
 H           1.0     1.3520044579        2.6690111905        0.3405097257
 H           1.0    -1.4234172030        5.3779333939       -1.8900661384
 H           1.0    -4.4390797287        6.3380842710       -0.7095921084
 H           1.0    -1.9652961300        5.5443615617        1.4485694559

          INTERNUCLEAR DISTANCES (ANGS.)
          ------------------------------

                1 C          2 C          3 O          4 C          5 C     

   1 C       0.0000000    1.4105752 *  2.4095983 *  2.4175297 *  2.7828646 *
   2 C       1.4105752 *  0.0000000    1.3666994 *  1.3889969 *  2.4164641 *
   3 O       2.4095983 *  1.3666994 *  0.0000000    2.3890936 *  3.6671196  
   4 C       2.4175297 *  1.3889969 *  2.3890936 *  0.0000000    1.4011995 *
   5 C       2.7828646 *  2.4164641 *  3.6671196    1.4011995 *  0.0000000  
   6 C       2.4300604 *  2.8178000 *  4.1844988    2.4366147 *  1.3966047 *
   7 C       3.8215085    4.3399315    5.7066219    3.8379776    2.5451705 *
   8 C       4.4165271    5.1350225    6.4619436    4.8121325    3.6327357  
   9 C       5.2209550    6.1513720    7.4523033    5.9937956    4.8567320  
  10 C       1.3920161 *  2.4314523 *  3.6787673    2.7965288 *  2.4123654 *
  11 O       1.3767277 *  2.3352639 *  2.6584144 *  3.6213788    4.1546679  
  12 C       2.4072398 *  3.6545304    4.0808262    4.8204216    5.0639902  
  13 H       2.3968015 *  1.9041577 *  0.9698136 *  3.1778080    4.3205488  
  14 H       3.3966158    2.1353129 *  2.6094921 *  1.0855494 *  2.1721792 *
  15 H       3.8697457    3.3947566    4.5376474    2.1515851 *  1.0869159 *
  16 H       4.1736184    4.8249656    6.1660257    4.4439886    3.2339332  
  17 H       4.5672235    4.8017967    6.1438220    3.9954511    2.5959669 *
  18 H       4.5647870    5.1368723    6.4006714    4.7652788    3.6849175  
  19 H       5.4796653    6.4829338    7.7840422    6.3741004    5.2345685  
  20 H       5.9188310    6.8817885    8.1347541    6.7837064    5.7034689  
  21 H       2.1545318 *  3.4171122    4.5604408    3.8813561    3.3936579  
  22 H       2.7289056 *  4.0323910    4.6113704    5.0620048    5.1263308  
  23 H       3.2818553    4.3509945    4.4719757    5.6294931    6.0314006  
  24 H       2.7273276 *  4.0241030    4.5994524    5.0543321    5.1231837  

                6 C          7 C          8 C          9 C         10 C     

   1 C       2.4300604 *  3.8215085    4.4165271    5.2209550    1.3920161 *
   2 C       2.8178000 *  4.3399315    5.1350225    6.1513720    2.4314523 *
   3 O       4.1844988    5.7066219    6.4619436    7.4523033    3.6787673  
   4 C       2.4366147 *  3.8379776    4.8121325    5.9937956    2.7965288 *
   5 C       1.3966047 *  2.5451705 *  3.6327357    4.8567320    2.4123654 *
   6 C       0.0000000    1.5221770 *  2.5355859 *  3.6239626    1.4080513 *
   7 C       1.5221770 *  0.0000000    1.5091350 *  2.5269499 *  2.5384749 *
   8 C       2.5355859 *  1.5091350 *  0.0000000    1.3369646 *  3.1065444  
   9 C       3.6239626    2.5269499 *  1.3369646 *  0.0000000    3.8796809  
  10 C       1.4080513 *  2.5384749 *  3.1065444    3.8796809    0.0000000  
  11 O       3.7288017    5.0031886    5.4121818    6.0083768    2.4651057 *
  12 C       4.2810039    5.2489730    5.4070776    5.6878171    2.8742601 *
  13 H       4.5768919    6.0740347    6.7168975    7.5826248    3.7821285  
  14 H       3.4240700    4.7158871    5.7179583    6.9520098    3.8819966  
  15 H       2.1531948 *  2.7496945 *  3.8746298    5.1438030    3.4008250  
  16 H       2.1630235 *  1.0984875 *  2.1366502 *  2.6367334 *  2.8699476 *
  17 H       2.1374148 *  1.0982275 *  2.1371552 *  3.1987803    3.4238589  
  18 H       2.8486897 *  2.2119647 *  1.0909549 *  2.0983521 *  3.4349142  
  19 H       3.9414367    2.7915422 *  2.1203768 *  1.0885406 *  4.1163482  
  20 H       4.5106531    3.5162043    2.1194557 *  1.0866064 *  4.6564659  
  21 H       2.1564085 *  2.7242302 *  2.9282219 *  3.3344046    1.0848781 *
  22 H       4.2085455    5.0052768    4.8654668    5.0575589    2.8582935 *
  23 H       5.3381980    6.3394994    6.4660735    6.6938669    3.9381036  
  24 H       4.2110183    5.0080425    5.2872608    5.4413640    2.8662149 *

               11 O         12 C         13 H         14 H         15 H     

   1 C       1.3767277 *  2.4072398 *  2.3968015 *  3.3966158    3.8697457  
   2 C       2.3352639 *  3.6545304    1.9041577 *  2.1353129 *  3.3947566  
   3 O       2.6584144 *  4.0808262    0.9698136 *  2.6094921 *  4.5376474  
   4 C       3.6213788    4.8204216    3.1778080    1.0855494 *  2.1515851 *
   5 C       4.1546679    5.0639902    4.3205488    2.1721792 *  1.0869159 *
   6 C       3.7288017    4.2810039    4.5768919    3.4240700    2.1531948 *
   7 C       5.0031886    5.2489730    6.0740347    4.7158871    2.7496945 *
   8 C       5.4121818    5.4070776    6.7168975    5.7179583    3.8746298  
   9 C       6.0083768    5.6878171    7.5826248    6.9520098    5.1438030  
  10 C       2.4651057 *  2.8742601 *  3.7821285    3.8819966    3.4008250  
  11 O       0.0000000    1.4237232 *  2.1128473 *  4.4702093    5.2407711  
  12 C       1.4237232 *  0.0000000    3.4713567    5.7603967    6.1337355  
  13 H       2.1128473 *  3.4713567    0.0000000    3.5471692    5.2797811  
  14 H       4.4702093    5.7603967    3.5471692    0.0000000    2.4936208 *
  15 H       5.2407711    6.1337355    5.2797811    2.4936208 *  0.0000000  
  16 H       5.2372690    5.3199732    6.4595625    5.3399685    3.4644945  
  17 H       5.8460384    6.2398130    6.6486775    4.6828254    2.3401963 *
  18 H       5.5646959    5.6783926    6.6958635    5.5887790    3.8755286  
  19 H       6.2039934    5.7705386    7.8739256    7.3572501    5.5393377  
  20 H       6.5930728    6.1657441    8.2160390    7.7310658    5.9893661  
  21 H       2.7524576 *  2.5851192 *  4.4911314    4.9668225    4.2954424  
  22 H       2.0867058 *  1.0967617 *  4.0947734    6.0452269    6.1544630  
  23 H       2.0176646 *  1.0909520 *  3.6839516    6.4862984    7.1132591  
  24 H       2.0860514 *  1.0969618 *  4.0819860    6.0350960    6.1503510  

               16 H         17 H         18 H         19 H         20 H     

   1 C       4.1736184    4.5672235    4.5647870    5.4796653    5.9188310  
   2 C       4.8249656    4.8017967    5.1368723    6.4829338    6.8817885  
   3 O       6.1660257    6.1438220    6.4006714    7.7840422    8.1347541  
   4 C       4.4439886    3.9954511    4.7652788    6.3741004    6.7837064  
   5 C       3.2339332    2.5959669 *  3.6849175    5.2345685    5.7034689  
   6 C       2.1630235 *  2.1374148 *  2.8486897 *  3.9414367    4.5106531  
   7 C       1.0984875 *  1.0982275 *  2.2119647 *  2.7915422 *  3.5162043  
   8 C       2.1366502 *  2.1371552 *  1.0909549 *  2.1203768 *  2.1194557 *
   9 C       2.6367334 *  3.1987803    2.0983521 *  1.0885406 *  1.0866064 *
  10 C       2.8699476 *  3.4238589    3.4349142    4.1163482    4.6564659  
  11 O       5.2372690    5.8460384    5.5646959    6.2039934    6.5930728  
  12 C       5.3199732    6.2398130    5.6783926    5.7705386    6.1657441  
  13 H       6.4595625    6.6486775    6.6958635    7.8739256    8.2160390  
  14 H       5.3399685    4.6828254    5.5887790    7.3572501    7.7310658  
  15 H       3.4644945    2.3401963 *  3.8755286    5.5393377    5.9893661  
  16 H       0.0000000    1.7603292 *  3.0921543    2.4443536 *  3.7207551  
  17 H       1.7603292 *  0.0000000    2.5741627 *  3.4996132    4.1129415  
  18 H       3.0921543    2.5741627 *  0.0000000    3.0797325    2.4401299 *
  19 H       2.4443536 *  3.4996132    3.0797325    0.0000000    1.8526387 *
  20 H       3.7207551    4.1129415    2.4401299 *  1.8526387 *  0.0000000  
  21 H       2.8255836 *  3.7766907    3.4215707    3.4557630    4.0477395  
  22 H       5.1827739    6.0255031    5.0405944    5.2653979    5.3865580  
  23 H       6.3942926    7.3247922    6.6981045    6.7599851    7.1026043  
  24 H       4.8560315    6.0263719    5.7617215    5.3222855    6.0206009  

               21 H         22 H         23 H         24 H     

   1 C       2.1545318 *  2.7289056 *  3.2818553    2.7273276 *
   2 C       3.4171122    4.0323910    4.3509945    4.0241030  
   3 O       4.5604408    4.6113704    4.4719757    4.5994524  
   4 C       3.8813561    5.0620048    5.6294931    5.0543321  
   5 C       3.3936579    5.1263308    6.0314006    5.1231837  
   6 C       2.1564085 *  4.2085455    5.3381980    4.2110183  
   7 C       2.7242302 *  5.0052768    6.3394994    5.0080425  
   8 C       2.9282219 *  4.8654668    6.4660735    5.2872608  
   9 C       3.3344046    5.0575589    6.6938669    5.4413640  
  10 C       1.0848781 *  2.8582935 *  3.9381036    2.8662149 *
  11 O       2.7524576 *  2.0867058 *  2.0176646 *  2.0860514 *
  12 C       2.5851192 *  1.0967617 *  1.0909520 *  1.0969618 *
  13 H       4.4911314    4.0947734    3.6839516    4.0819860  
  14 H       4.9668225    6.0452269    6.4862984    6.0350960  
  15 H       4.2954424    6.1544630    7.1132591    6.1503510  
  16 H       2.8255836 *  5.1827739    6.3942926    4.8560315  
  17 H       3.7766907    6.0255031    7.3247922    6.0263719  
  18 H       3.4215707    5.0405944    6.6981045    5.7617215  
  19 H       3.4557630    5.2653979    6.7599851    5.3222855  
  20 H       4.0477395    5.3865580    7.1026043    6.0206009  
  21 H       0.0000000    2.3675401 *  3.6701205    2.3959472 *
  22 H       2.3675401 *  0.0000000    1.7874625 *  1.7920147 *
  23 H       3.6701205    1.7874625 *  0.0000000    1.7872771 *
  24 H       2.3959472 *  1.7920147 *  1.7872771 *  0.0000000  

  * ... LESS THAN  3.000


     ATOMIC BASIS SET
     ----------------
 THE CONTRACTED PRIMITIVE FUNCTIONS HAVE BEEN UNNORMALIZED
 THE CONTRACTED BASIS FUNCTIONS ARE NOW NORMALIZED TO UNITY

  SHELL TYPE  PRIMITIVE        EXPONENT          CONTRACTION COEFFICIENT(S)

 C         

      1   S       1           172.2560000    0.061766907377
      1   S       2            25.9109000    0.358794042852
      1   S       3             5.5333500    0.700713083689

      2   L       4             3.6649800   -0.395895162119    0.236459946619
      2   L       5             0.7705450    1.215834355681    0.860618805716

      3   L       6             0.1958570    1.000000000000    1.000000000000

 C         

      4   S       7           172.2560000    0.061766907377
      4   S       8            25.9109000    0.358794042852
      4   S       9             5.5333500    0.700713083689

      5   L      10             3.6649800   -0.395895162119    0.236459946619
      5   L      11             0.7705450    1.215834355681    0.860618805716

      6   L      12             0.1958570    1.000000000000    1.000000000000

 O         

      7   S      13           322.0370000    0.059239393389
      7   S      14            48.4308000    0.351499960776
      7   S      15            10.4206000    0.707657921031

      8   L      16             7.4029400   -0.404453583190    0.244586106967
      8   L      17             1.5762000    1.221561761397    0.853955373466

      9   L      18             0.3736840    1.000000000000    1.000000000000

 C         

     10   S      19           172.2560000    0.061766907377
     10   S      20            25.9109000    0.358794042852
     10   S      21             5.5333500    0.700713083689

     11   L      22             3.6649800   -0.395895162119    0.236459946619
     11   L      23             0.7705450    1.215834355681    0.860618805716

     12   L      24             0.1958570    1.000000000000    1.000000000000

 C         

     13   S      25           172.2560000    0.061766907377
     13   S      26            25.9109000    0.358794042852
     13   S      27             5.5333500    0.700713083689

     14   L      28             3.6649800   -0.395895162119    0.236459946619
     14   L      29             0.7705450    1.215834355681    0.860618805716

     15   L      30             0.1958570    1.000000000000    1.000000000000

 C         

     16   S      31           172.2560000    0.061766907377
     16   S      32            25.9109000    0.358794042852
     16   S      33             5.5333500    0.700713083689

     17   L      34             3.6649800   -0.395895162119    0.236459946619
     17   L      35             0.7705450    1.215834355681    0.860618805716

     18   L      36             0.1958570    1.000000000000    1.000000000000

 C         

     19   S      37           172.2560000    0.061766907377
     19   S      38            25.9109000    0.358794042852
     19   S      39             5.5333500    0.700713083689

     20   L      40             3.6649800   -0.395895162119    0.236459946619
     20   L      41             0.7705450    1.215834355681    0.860618805716

     21   L      42             0.1958570    1.000000000000    1.000000000000

 C         

     22   S      43           172.2560000    0.061766907377
     22   S      44            25.9109000    0.358794042852
     22   S      45             5.5333500    0.700713083689

     23   L      46             3.6649800   -0.395895162119    0.236459946619
     23   L      47             0.7705450    1.215834355681    0.860618805716

     24   L      48             0.1958570    1.000000000000    1.000000000000

 C         

     25   S      49           172.2560000    0.061766907377
     25   S      50            25.9109000    0.358794042852
     25   S      51             5.5333500    0.700713083689

     26   L      52             3.6649800   -0.395895162119    0.236459946619
     26   L      53             0.7705450    1.215834355681    0.860618805716

     27   L      54             0.1958570    1.000000000000    1.000000000000

 C         

     28   S      55           172.2560000    0.061766907377
     28   S      56            25.9109000    0.358794042852
     28   S      57             5.5333500    0.700713083689

     29   L      58             3.6649800   -0.395895162119    0.236459946619
     29   L      59             0.7705450    1.215834355681    0.860618805716

     30   L      60             0.1958570    1.000000000000    1.000000000000

 O         

     31   S      61           322.0370000    0.059239393389
     31   S      62            48.4308000    0.351499960776
     31   S      63            10.4206000    0.707657921031

     32   L      64             7.4029400   -0.404453583190    0.244586106967
     32   L      65             1.5762000    1.221561761397    0.853955373466

     33   L      66             0.3736840    1.000000000000    1.000000000000

 C         

     34   S      67           172.2560000    0.061766907377
     34   S      68            25.9109000    0.358794042852
     34   S      69             5.5333500    0.700713083689

     35   L      70             3.6649800   -0.395895162119    0.236459946619
     35   L      71             0.7705450    1.215834355681    0.860618805716

     36   L      72             0.1958570    1.000000000000    1.000000000000

 H         

     37   S      73             5.4471780    0.156284978695
     37   S      74             0.8245472    0.904690876670

     38   S      75             0.1831916    1.000000000000

 H         

     39   S      76             5.4471780    0.156284978695
     39   S      77             0.8245472    0.904690876670

     40   S      78             0.1831916    1.000000000000

 H         

     41   S      79             5.4471780    0.156284978695
     41   S      80             0.8245472    0.904690876670

     42   S      81             0.1831916    1.000000000000

 H         

     43   S      82             5.4471780    0.156284978695
     43   S      83             0.8245472    0.904690876670

     44   S      84             0.1831916    1.000000000000

 H         

     45   S      85             5.4471780    0.156284978695
     45   S      86             0.8245472    0.904690876670

     46   S      87             0.1831916    1.000000000000

 H         

     47   S      88             5.4471780    0.156284978695
     47   S      89             0.8245472    0.904690876670

     48   S      90             0.1831916    1.000000000000

 H         

     49   S      91             5.4471780    0.156284978695
     49   S      92             0.8245472    0.904690876670

     50   S      93             0.1831916    1.000000000000

 H         

     51   S      94             5.4471780    0.156284978695
     51   S      95             0.8245472    0.904690876670

     52   S      96             0.1831916    1.000000000000

 H         

     53   S      97             5.4471780    0.156284978695
     53   S      98             0.8245472    0.904690876670

     54   S      99             0.1831916    1.000000000000

 H         

     55   S     100             5.4471780    0.156284978695
     55   S     101             0.8245472    0.904690876670

     56   S     102             0.1831916    1.000000000000

 H         

     57   S     103             5.4471780    0.156284978695
     57   S     104             0.8245472    0.904690876670

     58   S     105             0.1831916    1.000000000000

 H         

     59   S     106             5.4471780    0.156284978695
     59   S     107             0.8245472    0.904690876670

     60   S     108             0.1831916    1.000000000000

 TOTAL NUMBER OF BASIS SET SHELLS             =   60
 NUMBER OF CARTESIAN GAUSSIAN BASIS FUNCTIONS =  132
 NUMBER OF ELECTRONS                          =   88
 CHARGE OF MOLECULE                           =    0
 SPIN MULTIPLICITY                            =    1
 NUMBER OF OCCUPIED ORBITALS (ALPHA)          =   44
 NUMBER OF OCCUPIED ORBITALS (BETA )          =   44
 TOTAL NUMBER OF ATOMS                        =   24
 THE NUCLEAR REPULSION ENERGY IS      668.4306035993

 SELECTED MURRAY-HANDY-LAMING RADIAL GRID

 LEGACY BECKE'S FUZZY CELL METHOD

 SELECTED ORIGINAL BECKE'S PARTITION FUNCTION

     LEBEDEV GRID-BASED DFT OPTIONS
     ------------------------------
     DFTTYP=B3LYP   
     NRAD  =      96     NLEB  =     302
     NRAD0 =      24     NLEB0 =     110
     SWOFF =    5.00E-03 (PURE SCF -> DFT)
     SWITCH=    3.00E-04 (COARSE -> TIGHT GRID)
     THRESH=    0.00E+00 GTHRE=    1.00E+00

 GRIMME'S EMPIRICAL DISPERSION CORRECTION= F

     $CONTRL OPTIONS
     ---------------
 SCFTYP=RHF          RUNTYP=ENERGY       EXETYP=RUN     
 MPLEVL=       0     CITYP =NONE         CCTYP =NONE         VBTYP =NONE    
 DFTTYP=B3LYP        TDDFT =NONE    
 MULT  =       1     ICHARG=       0     NZVAR =       0     COORD =UNIQUE  
 PP    =NONE         RELWFN=NONE         LOCAL =NONE         NUMGRD=       F
 ISPHER=      -1     NOSYM =       0     MAXIT =      60     UNITS =ANGS    
 PLTORB=       F     MOLPLT=       F     AIMPAC=       F     FRIEND=        
 NPRINT=       7     IREST =       0     GEOM  =INPUT   
 NORMF =       0     NORMP =       0     ITOL  =      20     ICUT  =       9
 INTTYP=BEST         GRDTYP=BEST         QMTTOL= 1.0E-06

     $SYSTEM OPTIONS
     ---------------
  REPLICATED MEMORY=    30000000 WORDS (ON EVERY NODE).
 DISTRIBUTED MEMDDI=        1000 MILLION WORDS IN AGGREGATE,
 MEMDDI DISTRIBUTED OVER   6 PROCESSORS IS   166666666 WORDS/PROCESSOR.
 TOTAL MEMORY REQUESTED ON EACH PROCESSOR=   196666666 WORDS.
 TIMLIM=      525600.00 MINUTES, OR     365.0 DAYS.
 PARALL= T  BALTYP=  DLB     KDIAG=    0  COREFL= F
 MXSEQ2=     300 MXSEQ3=     150  mem10=         0

     INPUT FOR POTENTIAL-DERIVED CHARGES 
     -----------------------------------
     VDWSCL=    1.00   RMAX=    3.00   DELR=    0.80
     VDWINC=    0.20 PTDENS=    0.28
     LAYER =       4  NFREQ=      30 MAXPDC=   10000
     CONSTR=CHARGE    UNITS=ANGS      PTSEL=CHELPG  
     CENTER=  0.0000  0.0000  0.0000
     DPOLE =  0.0000  0.0000  0.0000
     QPOLE =  0.0000  0.0000  0.0000  0.0000  0.0000  0.0000


          ----------------
          PROPERTIES INPUT
          ----------------

     MOMENTS            FIELD           POTENTIAL          DENSITY
 IEMOM =       1   IEFLD =       0   IEPOT =       1   IEDEN =       0
 WHERE =COMASS     WHERE =NUCLEI     WHERE =PDC        WHERE =NUCLEI  
 OUTPUT=BOTH       OUTPUT=BOTH       OUTPUT=BOTH       OUTPUT=BOTH    
 IEMINT=       0   IEFINT=       0                     IEDINT=       0
                                                       MORB  =       0
          EXTRAPOLATION IN EFFECT
          DIIS IN EFFECT
 ORBITAL PRINTING OPTION: NPREO=     1   132     2     1

     -------------------------------
     INTEGRAL TRANSFORMATION OPTIONS
     -------------------------------
     NWORD  =            0
     CUTOFF = 1.0E-09     MPTRAN =       0
     DIRTRF =       T     AOINTS =DUP     

          ----------------------
          INTEGRAL INPUT OPTIONS
          ----------------------
 NOPK  =       1 NORDER=       0 SCHWRZ=       T

     ------------------------------------------
     THE POINT GROUP IS C1 , NAXIS= 0, ORDER= 1
     ------------------------------------------

     DIMENSIONS OF THE SYMMETRY SUBSPACES ARE
 A   =  132

 ..... DONE SETTING UP THE RUN .....
 CPU     0: STEP CPU TIME=     0.02 TOTAL CPU TIME=          0.0 (      0.0 MIN)
 TOTAL WALL CLOCK TIME=          0.0 SECONDS, CPU UTILIZATION IS    66.67%

          ********************
          1 ELECTRON INTEGRALS
          ********************
 ...... END OF ONE-ELECTRON INTEGRALS ......
 CPU     0: STEP CPU TIME=     0.01 TOTAL CPU TIME=          0.0 (      0.0 MIN)
 TOTAL WALL CLOCK TIME=          0.0 SECONDS, CPU UTILIZATION IS    75.00%

          -------------
          GUESS OPTIONS
          -------------
          GUESS =HUCKEL            NORB  =       0          NORDER=       0
          MIX   =       F          PRTMO =       F          PUNMO =       F
          TOLZ  = 1.0E-08          TOLE  = 1.0E-05
          SYMDEN=       F          PURIFY=       F

 INITIAL GUESS ORBITALS GENERATED BY HUCKEL   ROUTINE.
 HUCKEL GUESS REQUIRES    164928 WORDS.

 SYMMETRIES FOR INITIAL GUESS ORBITALS FOLLOW.   BOTH SET(S).
    44 ORBITALS ARE OCCUPIED (   12 CORE ORBITALS).
    13=A       14=A       15=A       16=A       17=A       18=A       19=A   
    20=A       21=A       22=A       23=A       24=A       25=A       26=A   
    27=A       28=A       29=A       30=A       31=A       32=A       33=A   
    34=A       35=A       36=A       37=A       38=A       39=A       40=A   
    41=A       42=A       43=A       44=A       45=A       46=A       47=A   
    48=A       49=A       50=A       51=A       52=A       53=A       54=A   
 ...... END OF INITIAL ORBITAL SELECTION ......
 CPU     0: STEP CPU TIME=     0.05 TOTAL CPU TIME=          0.1 (      0.0 MIN)
 TOTAL WALL CLOCK TIME=          0.1 SECONDS, CPU UTILIZATION IS    88.89%

                    ----------------------
                    AO INTEGRAL TECHNOLOGY
                    ----------------------
     S,P,L SHELL ROTATED AXIS INTEGRALS, REPROGRAMMED BY
        KAZUYA ISHIMURA (IMS) AND JOSE SIERRA (SYNSTAR).
     S,P,D,L SHELL ROTATED AXIS INTEGRALS PROGRAMMED BY
        KAZUYA ISHIMURA (INSTITUTE FOR MOLECULAR SCIENCE).
     S,P,D,F,G SHELL TO TOTAL QUARTET ANGULAR MOMENTUM SUM 5,
        ERIC PROGRAM BY GRAHAM FLETCHER (ELORET AND NASA ADVANCED
        SUPERCOMPUTING DIVISION, AMES RESEARCH CENTER).
     S,P,D,F,G,L SHELL GENERAL RYS QUADRATURE PROGRAMMED BY
        MICHEL DUPUIS (PACIFIC NORTHWEST NATIONAL LABORATORY).

          --------------------
          2 ELECTRON INTEGRALS
          --------------------

 DIRECT SCF METHOD SKIPS INTEGRAL STORAGE ON DISK.
 DIRECT TRANSFORMATION SKIPS AO INTEGRAL STORAGE ON DISK.
  ...... END OF TWO-ELECTRON INTEGRALS .....
 CPU     0: STEP CPU TIME=     0.01 TOTAL CPU TIME=          0.1 (      0.0 MIN)
 TOTAL WALL CLOCK TIME=          0.1 SECONDS, CPU UTILIZATION IS    81.82%

          --------------------------
             R-B3LYP SCF CALCULATION
          --------------------------

     NUCLEAR ENERGY =       668.4306035993
     MAXIT =   60     NPUNCH=    2
     EXTRAP=T  DAMP=F  SHIFT=F  RSTRCT=F  DIIS=T  DEM=F  SOSCF=F
         DENSITY MATRIX CONVERGENCE THRESHOLD=  2.00E-05
     COARSE -> FINE DFT GRID SWITCH THRESHOLD=  3.00E-04 (SWITCH IN $DFT)
                   HF -> DFT SWITCH THRESHOLD=  5.00E-03 (SWOFF IN $DFT)
     MEMORY REQUIRED FOR RHF ITERS=    955663 WORDS.

 DIRECT SCF CALCULATION, SCHWRZ=T   FDIFF=T,  DIRTHR=  0.00E+00 NITDIR=10
 SCHWARZ INEQUALITY OVERHEAD:      8014 INTEGRALS, T=        0.00

 DFT CODE IS SWITCHING FROM THE FINE GRID NRAD= 96,  NLEB=  302
                      TO THE COARSE GRID NRAD0= 24, NLEB0=  110

     EXCHANGE FUNCTIONAL   =B88&HFX   
     CORRELATION FUNCTIONAL=LYP88&VWN5
     DFT THRESHOLD         =.575E-08
     GRID CHANGE THRESHOLD =.300E-03
 FOR AN EULER-MACLAURIN QUADRATURE USING  96 RADIAL POINTS:
 SMALLEST GAUSSIAN PRIMITIVE EXPONENT=        0.1831915800 OF TYPE -S-
 ON ATOM NUMBER  13 HAS RADIAL NORMALIZATION=  1.000000
  LARGEST GAUSSIAN PRIMITIVE EXPONENT=      322.0370000000 OF TYPE -S-
 ON ATOM NUMBER   3 HAS RADIAL NORMALIZATION=  1.000000
 DFT IS SWITCHED OFF, PERFORMING PURE SCF UNTIL SWOFF THRESHOLD IS REACHED.

                                                                                   NONZERO     BLOCKS
 ITER EX DEM     TOTAL ENERGY        E CHANGE  DENSITY CHANGE    DIIS ERROR      INTEGRALS    SKIPPED
   1  0  0     -531.2021636239  -531.2021636239   0.659131439   0.703920678       19875864     989393
          * * *   INITIATING DIIS PROCEDURE   * * *
   2  1  0     -532.3263975934    -1.1242339694   0.139655739   0.053348909       19827763    1009599
   3  2  0     -532.3754660383    -0.0490684449   0.047388851   0.018269250       19605122    1052910
   4  3  0     -532.3813162489    -0.0058502107   0.015172603   0.009824007       19206299    1094600
   5  4  0     -532.3825933762    -0.0012771273   0.004127579   0.002504282       18801163    1120399
 CONVERGED TO SWOFF, SO DFT CALCULATION IS NOW SWITCHED ON.
          * * *   INITIATING DIIS PROCEDURE   * * *
   6  5  0     -535.3625849478    -2.9799915716   0.160090516   0.074674746       19889270     982156
   7  6  0     -535.4032599728    -0.0406750250   0.055498934   0.026146510       19737586    1035109
   8  7  0     -535.4055343933    -0.0022744204   0.035585091   0.031321923       19481050    1065969
   9  8  0     -535.4132033989    -0.0076690056   0.007310458   0.009847278       19241869    1089850
  10  9  0     -535.4138180588    -0.0006146599   0.002283539   0.001973310       18588915    1134624
  11 10  0     -535.4138470675    -0.0000290087   0.000850035   0.000637125       17620177    1184865
  12 11  0     -535.4138507125    -0.0000036450   0.000229806   0.000079364       16541466    1223518
 DFT CODE IS SWITCHING BACK TO THE FINE GRID
          * * *   INITIATING DIIS PROCEDURE   * * *
  13 12  0     -535.4188795719    -0.0050288594   0.002431344   0.001977971       19898126     977154
  14 13  0     -535.4189146424    -0.0000350705   0.001842649   0.000815014       18022172    1162382
  15 14  0     -535.4189145795     0.0000000629   0.001074249   0.000940138       16856329    1213107
  16 15  0     -535.4189190553    -0.0000044758   0.000156117   0.000074725       16293698    1236171
  17 16  0     -535.4189190832    -0.0000000278   0.000054802   0.000054781       14802670    1289003
  18 17  0     -535.4189191036    -0.0000000205   0.000024208   0.000011852       14206734    1312758
  19 18  0     -535.4189191052    -0.0000000015   0.000006629   0.000003550       12722562    1357580
  20 19  0     -535.4189191052    -0.0000000000   0.000002659   0.000000867       11353358    1400120

          -----------------
          DENSITY CONVERGED
          -----------------
     TIME TO FORM FOCK OPERATORS=      42.5 SECONDS (       2.1 SEC/ITER)
     FOCK TIME ON FIRST ITERATION=       0.3, LAST ITERATION=       4.7
     TIME TO SOLVE SCF EQUATIONS=       0.5 SECONDS (       0.0 SEC/ITER)

 FINAL R-B3LYP ENERGY IS     -535.4189191052 AFTER  20 ITERATIONS
 DFT EXCHANGE + CORRELATION ENERGY =       -60.9174343197
 TOTAL ELECTRON NUMBER             =        88.0008093777

          ------------
          EIGENVECTORS
          ------------

                      1          2          3          4          5
                  -19.0776   -19.0484   -10.1847   -10.1822   -10.1775
                     A          A          A          A          A   
    1  C  1  S   -0.000059  -0.000269  -0.025446   0.972544   0.160283
    2  C  1  S    0.001799  -0.001892  -0.003332   0.109460   0.012055
    3  C  1  X    0.000110  -0.001115  -0.000552   0.000442   0.000584
    4  C  1  Y    0.000472   0.000077  -0.002013  -0.001013   0.001895
    5  C  1  Z   -0.000005  -0.000174   0.000024   0.000127  -0.000020
    6  C  1  S   -0.003862   0.025016  -0.002956  -0.111706   0.035174
    7  C  1  X   -0.028682   0.028004   0.008330  -0.026715   0.003436
    8  C  1  Y    0.031669  -0.016599   0.020241   0.039182  -0.027966
    9  C  1  Z   -0.006285   0.005265   0.000125  -0.006379   0.002166
   10  C  2  S   -0.000200  -0.000024  -0.012503  -0.161600   0.972614
   11  C  2  S   -0.001577   0.002117  -0.002845  -0.023517   0.107742
   12  C  2  X   -0.000315  -0.000230  -0.000165  -0.001207   0.001022
   13  C  2  Y    0.000677  -0.000301   0.000351  -0.001544  -0.000022
   14  C  2  Z   -0.000092  -0.000017  -0.000043  -0.000096   0.000155
   15  C  2  S    0.018165  -0.005161   0.018390   0.061740  -0.098747
   16  C  2  X    0.024493  -0.048852   0.008575   0.034145  -0.040480
   17  C  2  Y   -0.007280   0.003806   0.008466   0.015719  -0.002226
   18  C  2  Z    0.004207  -0.007733   0.000804   0.004326  -0.006081
   19  O  3  S   -0.010878   0.982863  -0.000056  -0.000195   0.000415
   20  O  3  S   -0.002795   0.108806  -0.000550  -0.001787   0.003149
   21  O  3  X   -0.000312   0.003181  -0.000083  -0.000441   0.000624
   22  O  3  Y    0.000149   0.002768   0.000127   0.000278   0.000043
   23  O  3  Z   -0.000056   0.000337  -0.000021  -0.000084   0.000095
   24  O  3  S    0.009323  -0.067657   0.002342   0.007850  -0.008908
   25  O  3  X    0.003621  -0.014760   0.000640   0.003016  -0.005446
   26  O  3  Y    0.000225  -0.006842  -0.000830  -0.001975  -0.000621
   27  O  3  Z    0.000540  -0.001892   0.000152   0.000578  -0.000808
   28  C  4  S    0.000206  -0.000346   0.000396   0.000397  -0.011483
   29  C  4  S    0.000722  -0.001850   0.000399   0.000974  -0.007007
   30  C  4  X    0.000411  -0.001183   0.000386   0.000576   0.000304
   31  C  4  Y   -0.000876  -0.000132  -0.000095  -0.001016  -0.002370
   32  C  4  Z    0.000113  -0.000173   0.000066   0.000145   0.000187
   33  C  4  S   -0.022735   0.030539  -0.004337  -0.026775   0.048715
   34  C  4  X   -0.002737   0.016434  -0.004066  -0.009199   0.005409
   35  C  4  Y   -0.010509   0.022610  -0.003520  -0.013960   0.032489
   36  C  4  Z    0.000197   0.001199  -0.000421  -0.000586  -0.001078
   37  C  5  S   -0.000175   0.000279  -0.000222  -0.001506  -0.000881
   38  C  5  S   -0.000893   0.001121  -0.000271  -0.001549   0.000385
   39  C  5  X    0.000207   0.000860  -0.000185   0.000160   0.001440
   40  C  5  Y   -0.000229  -0.000083  -0.000161  -0.000355  -0.000169
   41  C  5  Z    0.000049   0.000135  -0.000022   0.000048   0.000228
   42  C  5  S    0.010907  -0.025318   0.003535   0.019139  -0.022536
   43  C  5  X   -0.007444   0.010231  -0.001706  -0.010136   0.007508
   44  C  5  Y    0.007091  -0.008938   0.000394   0.009147  -0.010760
   45  C  5  Z   -0.001571   0.002110  -0.000266  -0.002109   0.001803
   46  C  6  S    0.000288  -0.000208  -0.000868  -0.000263  -0.001654
   47  C  6  S    0.001232  -0.000984  -0.000430   0.001002  -0.001245
   48  C  6  X    0.000423   0.000573   0.000453   0.000717   0.000873
   49  C  6  Y   -0.000272   0.000106  -0.000114  -0.000590  -0.000032
   50  C  6  Z    0.000066   0.000090   0.000094   0.000128   0.000145
   51  C  6  S   -0.023368   0.013819  -0.001853  -0.025955   0.013770
   52  C  6  X    0.013220  -0.014153  -0.002133   0.015873  -0.013481
   53  C  6  Y   -0.007252  -0.001464  -0.000109  -0.004744  -0.002140
   54  C  6  Z    0.002477  -0.002141  -0.000363   0.002763  -0.002004
   55  C  7  S   -0.000022  -0.000048  -0.000237  -0.001682  -0.000881
   56  C  7  S   -0.000177  -0.000164  -0.000237  -0.001048  -0.000719
   57  C  7  X    0.000097  -0.000385  -0.000048   0.000392  -0.000199
   58  C  7  Y   -0.000089   0.000055   0.000116  -0.000367  -0.000084
   59  C  7  Z   -0.000029  -0.000070   0.000003   0.000079  -0.000014
   60  C  7  S   -0.002174   0.005615   0.001872  -0.001632   0.006392
   61  C  7  X    0.000991  -0.001938  -0.000983   0.000063  -0.002652
   62  C  7  Y    0.002331  -0.000577  -0.000846   0.003474   0.000319
   63  C  7  Z    0.000447  -0.000314  -0.000265   0.000080  -0.000528
   64  C  8  S    0.000012   0.000004   0.000020  -0.000717  -0.000374
   65  C  8  S    0.000042   0.000016   0.000008  -0.000305  -0.000163
   66  C  8  X    0.000101  -0.000014  -0.000032   0.000262   0.000078
   67  C  8  Y    0.000138   0.000079  -0.000003   0.000059   0.000058
   68  C  8  Z    0.000066   0.000000  -0.000028  -0.000032  -0.000047
   69  C  8  S   -0.000631  -0.000408   0.000161  -0.000178  -0.000254
   70  C  8  X   -0.000427   0.000077   0.000287  -0.000228   0.000190
   71  C  8  Y   -0.000985  -0.000212   0.000335  -0.000468  -0.000039
   72  C  8  Z   -0.000870  -0.000285   0.000268  -0.000798  -0.000372
   73  C  9  S    0.000006  -0.000008   0.000037   0.000222  -0.000014
   74  C  9  S    0.000081  -0.000048   0.000028   0.000148  -0.000010
   75  C  9  X   -0.000125  -0.000009  -0.000012  -0.000100  -0.000015
   76  C  9  Y   -0.000047   0.000002   0.000034  -0.000047  -0.000003
   77  C  9  Z    0.000055  -0.000018  -0.000014   0.000070  -0.000004
   78  C  9  S    0.000823   0.000309  -0.000390   0.000242   0.000074
   79  C  9  X    0.000011  -0.000147   0.000113   0.000237  -0.000019
   80  C  9  Y   -0.000251  -0.000147   0.000087   0.000039  -0.000008
   81  C  9  Z   -0.000098   0.000193   0.000044  -0.000166   0.000162
   82  C 10  S   -0.000318   0.000305   0.000235  -0.011518  -0.003291
   83  C 10  S   -0.001663   0.001220   0.000488  -0.007266  -0.000975
   84  C 10  X   -0.000656   0.000912   0.000334   0.001625   0.001489
   85  C 10  Y    0.001306   0.000189  -0.000339   0.001209   0.000570
   86  C 10  Z   -0.000186   0.000140   0.000065   0.000165   0.000207
   87  C 10  S    0.029281  -0.029156  -0.008116   0.058155  -0.012212
   88  C 10  X   -0.003653   0.011877   0.003697  -0.022028   0.002917
   89  C 10  Y   -0.027401   0.011223  -0.003721  -0.028416   0.010068
   90  C 10  Z    0.001191   0.001076   0.000806  -0.001560  -0.000209
   91  O 11  S    0.982880   0.010438   0.000062   0.000413  -0.000034
   92  O 11  S    0.109092  -0.000471   0.000753   0.003282  -0.000541
   93  O 11  X    0.003620  -0.000334   0.000878   0.000548  -0.000054
   94  O 11  Y   -0.000155   0.000048   0.000727  -0.000970   0.000276
   95  O 11  Z    0.000597  -0.000050   0.000098   0.000142  -0.000020
   96  O 11  S   -0.067684   0.009448   0.003122  -0.009527   0.003820
   97  O 11  X   -0.012338   0.002631  -0.003478  -0.004113   0.000913
   98  O 11  Y    0.004759  -0.003288   0.000586   0.005746  -0.001149
   99  O 11  Z   -0.002244   0.000581  -0.000556  -0.000974   0.000185
  100  C 12  S   -0.000551  -0.000077   0.985530   0.023021   0.016031
  101  C 12  S   -0.001542  -0.000650   0.109540   0.002095   0.000454
  102  C 12  X   -0.000753   0.000044   0.000316  -0.000179  -0.000233
  103  C 12  Y   -0.002340   0.000395  -0.001254   0.000578   0.000455
  104  C 12  Z    0.000002  -0.000016   0.000118  -0.000058  -0.000059
  105  C 12  S    0.012793   0.001478  -0.075581  -0.002670   0.002247
  106  C 12  X   -0.001299  -0.000352  -0.003689   0.002382   0.001867
  107  C 12  Y   -0.004769  -0.001711  -0.000454  -0.000908  -0.003542
  108  C 12  Z    0.000003   0.000055  -0.000599   0.000418   0.000484
  109  H 13  S   -0.000895   0.003871   0.000348  -0.000083   0.000258
  110  H 13  S    0.002495   0.004033  -0.000255   0.001512   0.000031
  111  H 14  S   -0.000252   0.001969  -0.000436  -0.000776   0.000673
  112  H 14  S   -0.001514   0.008262  -0.001196  -0.002521   0.008713
  113  H 15  S    0.000630  -0.000357  -0.000048   0.000541  -0.000592
  114  H 15  S    0.002689  -0.002234   0.000180   0.003217  -0.001708
  115  H 16  S   -0.000195  -0.000115   0.000012  -0.000414  -0.000270
  116  H 16  S   -0.000509  -0.000057   0.000128  -0.000538  -0.000141
  117  H 17  S    0.000241  -0.000121  -0.000199   0.000241  -0.000097
  118  H 17  S    0.000563  -0.000658  -0.000233   0.001458  -0.000140
  119  H 18  S   -0.000120  -0.000021   0.000045  -0.000111  -0.000030
  120  H 18  S   -0.000526  -0.000101   0.000180  -0.000493  -0.000152
  121  H 19  S    0.000047  -0.000048   0.000006   0.000077  -0.000027
  122  H 19  S   -0.000081  -0.000034   0.000008  -0.000084  -0.000052
  123  H 20  S   -0.000024   0.000017   0.000013  -0.000018   0.000020
  124  H 20  S   -0.000112   0.000087   0.000030  -0.000201   0.000029
  125  H 21  S    0.002042  -0.000332   0.000528   0.000867  -0.000563
  126  H 21  S    0.007652  -0.003166   0.001603   0.008330  -0.002441
  127  H 22  S   -0.001090  -0.000245  -0.000621  -0.000327  -0.000596
  128  H 22  S   -0.001841   0.000522   0.016136  -0.000155   0.000079
  129  H 23  S   -0.001059  -0.000089  -0.001413   0.000521   0.000117
  130  H 23  S   -0.001149   0.000176   0.014181   0.001438   0.001566
  131  H 24  S   -0.001087  -0.000247  -0.000615  -0.000353  -0.000592
  132  H 24  S   -0.001814   0.000487   0.016153  -0.000064   0.000063

                      6          7          8          9         10
                  -10.1255   -10.1235   -10.1224   -10.1201   -10.1151
                     A          A          A          A          A   
    1  C  1  S   -0.000616   0.000147   0.000951   0.011021   0.000371
    2  C  1  S    0.000743   0.000074  -0.000537  -0.004245  -0.000956
    3  C  1  X   -0.000368  -0.000118  -0.000546  -0.002375  -0.000408
    4  C  1  Y    0.000260  -0.000063   0.000057  -0.000011  -0.000265
    5  C  1  Z   -0.000050  -0.000174  -0.000092  -0.000357  -0.000047
    6  C  1  S   -0.013727  -0.002310   0.000082   0.042549   0.018622
    7  C  1  X   -0.007648   0.000195   0.004967   0.027137   0.010209
    8  C  1  Y    0.006147   0.002487   0.002269  -0.008015  -0.007343
    9  C  1  Z   -0.001673   0.000776   0.000535   0.004585   0.001988
   10  C  2  S    0.000880   0.000104   0.000407   0.001724  -0.004342
   11  C  2  S   -0.000674  -0.000169  -0.000263   0.000065   0.002439
   12  C  2  X   -0.000096   0.000033  -0.000084  -0.000552   0.000097
   13  C  2  Y    0.000105  -0.000047  -0.000092  -0.000855  -0.000399
   14  C  2  Z   -0.000026   0.000029  -0.000024  -0.000032   0.000039
   15  C  2  S    0.011627   0.003238   0.002565  -0.010398  -0.035200
   16  C  2  X    0.007466   0.001478  -0.000487  -0.008391  -0.020192
   17  C  2  Y   -0.002097   0.000976   0.002751   0.002302   0.009199
   18  C  2  Z    0.001289  -0.000047  -0.000173  -0.001424  -0.003643
   19  O  3  S   -0.000032  -0.000002   0.000013   0.000021   0.000042
   20  O  3  S   -0.000269  -0.000022   0.000077   0.000078   0.000379
   21  O  3  X   -0.000008   0.000002  -0.000034  -0.000205  -0.000001
   22  O  3  Y   -0.000002   0.000008   0.000029  -0.000124   0.000203
   23  O  3  Z    0.000000  -0.000010  -0.000003  -0.000025  -0.000012
   24  O  3  S    0.001654   0.000182  -0.000543  -0.001751  -0.002921
   25  O  3  X    0.000305   0.000004  -0.000101   0.000312  -0.000152
   26  O  3  Y    0.000191  -0.000085  -0.000304   0.000255  -0.001538
   27  O  3  Z    0.000029   0.000054  -0.000016   0.000034   0.000067
   28  C  4  S   -0.001024   0.001399  -0.006965  -0.009875  -0.500096
   29  C  4  S    0.000388   0.000406  -0.001277  -0.001989  -0.060371
   30  C  4  X   -0.000677  -0.000072  -0.000547  -0.000181  -0.001937
   31  C  4  Y   -0.000084   0.000052  -0.000171  -0.000304  -0.001435
   32  C  4  Z   -0.000122   0.000033  -0.000094  -0.000009  -0.000215
   33  C  4  S   -0.013103  -0.003322  -0.000866   0.013354   0.091622
   34  C  4  X   -0.001705  -0.001653  -0.000652   0.003407   0.021468
   35  C  4  Y   -0.009528  -0.002097   0.000555   0.006383   0.029080
   36  C  4  Z    0.000414  -0.000405  -0.000130   0.000147   0.001612
   37  C  5  S   -0.055814  -0.004168  -0.024136  -0.028427   0.848562
   38  C  5  S   -0.010630  -0.000956  -0.004060  -0.003722   0.097224
   39  C  5  X   -0.000592   0.000301  -0.000621  -0.000436  -0.001851
   40  C  5  Y   -0.001930  -0.000141  -0.000377  -0.001344   0.001103
   41  C  5  Z    0.000100  -0.000219  -0.000038   0.000021  -0.000336
   42  C  5  S    0.040412   0.006552   0.009439  -0.006460  -0.113504
   43  C  5  X    0.001383  -0.001998  -0.003320   0.008339   0.023429
   44  C  5  Y    0.022864   0.003997   0.006289  -0.003911  -0.028506
   45  C  5  Z   -0.001374   0.000251  -0.000719   0.001517   0.005239
   46  C  6  S    0.972652   0.049719   0.083370   0.116662   0.050392
   47  C  6  S    0.110589   0.004840   0.007915   0.008682   0.001344
   48  C  6  X   -0.000415  -0.001069  -0.001477   0.001918   0.001266
   49  C  6  Y    0.000301  -0.000663   0.000173  -0.001582   0.001393
   50  C  6  Z   -0.000268   0.000237  -0.000219   0.000399   0.000100
   51  C  6  S   -0.111887  -0.011013   0.005978   0.025070   0.037781
   52  C  6  X    0.016511   0.004266   0.030317  -0.026009  -0.027120
   53  C  6  Y   -0.000268   0.000977  -0.001981   0.013654  -0.017983
   54  C  6  Z    0.002564   0.000779   0.003728  -0.004970  -0.003212
   55  C  7  S   -0.072918  -0.297239   0.936479   0.053808   0.012606
   56  C  7  S   -0.008988  -0.036166   0.110393   0.005262   0.000697
   57  C  7  X    0.000344  -0.000172  -0.000167   0.000092  -0.000226
   58  C  7  Y    0.000133  -0.000362  -0.000159  -0.000053   0.000005
   59  C  7  Z   -0.000018   0.000226  -0.000258   0.000094  -0.000053
   60  C  7  S    0.011977   0.046168  -0.105223   0.004431   0.008309
   61  C  7  X   -0.009460   0.009400   0.008641  -0.005824  -0.003991
   62  C  7  Y   -0.002761   0.009520   0.001343  -0.003877   0.002490
   63  C  7  Z    0.002658  -0.007722   0.007240  -0.000408  -0.000267
   64  C  8  S   -0.076379   0.938038   0.289468   0.022908   0.005873
   65  C  8  S   -0.009708   0.104262   0.030119   0.002029   0.000253
   66  C  8  X    0.001279  -0.000057   0.000097   0.000371   0.000198
   67  C  8  Y    0.000830   0.000496   0.000453   0.000089   0.000173
   68  C  8  Z   -0.000229   0.001028  -0.000165  -0.000126  -0.000115
   69  C  8  S    0.006782  -0.090981  -0.006196   0.000352  -0.000426
   70  C  8  X   -0.005487  -0.000094  -0.012359  -0.001125  -0.000693
   71  C  8  Y   -0.005325  -0.005105  -0.013405  -0.000395  -0.001083
   72  C  8  Z    0.002397  -0.015173   0.010130   0.002020  -0.000516
   73  C  9  S    0.000977  -0.036732  -0.025713  -0.001020   0.000231
   74  C  9  S    0.000102  -0.008195  -0.005195  -0.000198   0.000019
   75  C  9  X   -0.000407   0.001361   0.000950  -0.000084  -0.000073
   76  C  9  Y   -0.000158   0.002006   0.001154   0.000243  -0.000033
   77  C  9  Z    0.000185   0.000028  -0.000194  -0.000026   0.000067
   78  C  9  S    0.003363   0.031784   0.016547   0.000479   0.000985
   79  C  9  X    0.000217  -0.010037  -0.004584   0.000330   0.000018
   80  C  9  Y   -0.001845  -0.012879  -0.007198  -0.000721  -0.000282
   81  C  9  Z   -0.002216   0.004618  -0.002698  -0.000380  -0.000265
   82  C 10  S   -0.112546  -0.011776  -0.069309   0.976897   0.013044
   83  C 10  S   -0.017031  -0.001509  -0.008830   0.108986   0.001724
   84  C 10  X   -0.000701  -0.000345  -0.001097  -0.000963  -0.000567
   85  C 10  Y    0.001822   0.000271   0.000536  -0.000955   0.000767
   86  C 10  Z   -0.000324   0.000474  -0.000224  -0.000096  -0.000128
   87  C 10  S    0.049319   0.002783   0.011666  -0.106907  -0.017660
   88  C 10  X    0.003055   0.000390   0.005115   0.015236   0.010404
   89  C 10  Y   -0.022685  -0.004789  -0.010488   0.023470   0.009536
   90  C 10  Z    0.002159  -0.001167   0.001777   0.000930   0.000990
   91  O 11  S    0.000041   0.000008  -0.000008  -0.000039  -0.000032
   92  O 11  S    0.000295   0.000059  -0.000075  -0.000490  -0.000236
   93  O 11  X   -0.000069  -0.000007   0.000056   0.000036  -0.000026
   94  O 11  Y   -0.000020   0.000030   0.000167   0.000401  -0.000088
   95  O 11  Z   -0.000016   0.000052  -0.000002  -0.000019   0.000001
   96  O 11  S   -0.002363  -0.000384   0.000401   0.003282   0.002163
   97  O 11  X   -0.000050  -0.000099  -0.000389  -0.001083   0.000255
   98  O 11  Y    0.000378  -0.000098  -0.001104  -0.002570  -0.000179
   99  O 11  Z    0.000001  -0.000253   0.000015  -0.000008   0.000048
  100  C 12  S    0.000759  -0.000031   0.000251   0.000243   0.000302
  101  C 12  S   -0.000374  -0.000003  -0.000227  -0.000214  -0.000133
  102  C 12  X   -0.000371   0.000041  -0.000203  -0.000122   0.000016
  103  C 12  Y    0.000300  -0.000067   0.000016  -0.000001   0.000124
  104  C 12  Z   -0.000075   0.000017  -0.000033  -0.000014  -0.000005
  105  C 12  S    0.000408   0.000279   0.000920   0.001575   0.000248
  106  C 12  X    0.001680  -0.000231   0.000537  -0.000369   0.000181
  107  C 12  Y   -0.001233   0.000255  -0.000738  -0.001170  -0.000496
  108  C 12  Z    0.000342  -0.000064   0.000133  -0.000051   0.000065
  109  H 13  S   -0.000051   0.000019   0.000078  -0.000201   0.000282
  110  H 13  S    0.000175   0.000035   0.000064   0.000876  -0.000776
  111  H 14  S   -0.000526  -0.000148  -0.000009   0.000119   0.001588
  112  H 14  S   -0.001514  -0.000629   0.000659   0.001808   0.001780
  113  H 15  S   -0.000260   0.000128   0.000558  -0.000620  -0.002709
  114  H 15  S    0.003198   0.001452   0.000798  -0.001793   0.002597
  115  H 16  S   -0.001210  -0.001353   0.000504  -0.000287  -0.000538
  116  H 16  S    0.000661  -0.006241   0.014371   0.001840  -0.000185
  117  H 17  S   -0.000219  -0.001323   0.001005  -0.000639   0.000109
  118  H 17  S   -0.002287  -0.002229   0.016674   0.000463   0.000263
  119  H 18  S   -0.000692  -0.001729  -0.001641  -0.000155  -0.000208
  120  H 18  S   -0.000778   0.009379   0.004975   0.001148  -0.000342
  121  H 19  S    0.000232  -0.001798  -0.000105   0.000064   0.000033
  122  H 19  S    0.000914  -0.001819   0.000217   0.000189   0.000008
  123  H 20  S   -0.000310  -0.000314  -0.000814  -0.000073  -0.000051
  124  H 20  S   -0.000720   0.002284   0.000688   0.000039  -0.000193
  125  H 21  S    0.000063  -0.000390   0.000030  -0.002991  -0.000739
  126  H 21  S    0.001188   0.003257   0.002280   0.006873  -0.002728
  127  H 22  S   -0.000300   0.000126  -0.000154  -0.000169  -0.000077
  128  H 22  S   -0.000061  -0.000339  -0.000136  -0.000192   0.000128
  129  H 23  S    0.000138  -0.000054  -0.000009  -0.000122   0.000028
  130  H 23  S    0.001147  -0.000208   0.000372  -0.000020   0.000181
  131  H 24  S   -0.000274   0.000051  -0.000130  -0.000188  -0.000075
  132  H 24  S   -0.000141  -0.000147  -0.000203  -0.000057   0.000103

                     11         12         13         14         15
                  -10.1136   -10.1111    -1.0797    -1.0454    -0.8521
                     A          A          A          A          A   
    1  C  1  S    0.002355  -0.000127  -0.078280   0.019258  -0.081247
    2  C  1  S   -0.000670   0.000155   0.083906  -0.015097   0.093788
    3  C  1  X    0.000049  -0.000068  -0.054979   0.011281   0.046998
    4  C  1  Y    0.001006  -0.000100   0.057975  -0.052699  -0.056992
    5  C  1  Z   -0.000051  -0.000006  -0.011782   0.004779   0.010439
    6  C  1  S   -0.001428  -0.002283   0.101345  -0.115929   0.135238
    7  C  1  X    0.000033  -0.000335   0.018947  -0.103239   0.026055
    8  C  1  Y    0.000682   0.002194  -0.071357   0.085662  -0.010106
    9  C  1  Z   -0.000048  -0.000212   0.007129  -0.020829   0.004731
   10  C  2  S    0.009698   0.000055  -0.047381  -0.075983  -0.070520
   11  C  2  S   -0.003470  -0.000093   0.054623   0.075663   0.080808
   12  C  2  X   -0.001525   0.000004  -0.033565  -0.094191   0.081214
   13  C  2  Y    0.001875   0.000027   0.018117  -0.005398   0.003538
   14  C  2  Z   -0.000346  -0.000007  -0.006214  -0.014175   0.012250
   15  C  2  S    0.027880   0.001515   0.005258   0.178892   0.137388
   16  C  2  X    0.013356   0.000877  -0.017164   0.147486   0.029158
   17  C  2  Y   -0.011337   0.001105   0.022316  -0.012602   0.013149
   18  C  2  Z    0.002726   0.000107  -0.003956   0.023402   0.003639
   19  O  3  S   -0.000024  -0.000004  -0.086732  -0.200628   0.035438
   20  O  3  S   -0.000445  -0.000030   0.081673   0.179504  -0.035585
   21  O  3  X   -0.000352   0.000000   0.030621   0.062583   0.014911
   22  O  3  Y    0.000079   0.000024   0.037699   0.077817  -0.022467
   23  O  3  Z   -0.000058   0.000000   0.002625   0.005349   0.003518
   24  O  3  S    0.001483   0.000213   0.257065   0.667238  -0.116240
   25  O  3  X    0.000858   0.000047   0.038528   0.094564   0.008151
   26  O  3  Y    0.000467  -0.000147   0.035466   0.081737  -0.019938
   27  O  3  Z    0.000100   0.000007   0.003971   0.010060   0.002362
   28  C  4  S    0.849717   0.000728  -0.008124  -0.013258  -0.084070
   29  C  4  S    0.092283   0.000109   0.008592   0.020421   0.093028
   30  C  4  X   -0.000481  -0.000000  -0.005117  -0.010071   0.028043
   31  C  4  Y    0.000825  -0.000045   0.010692   0.011094   0.051100
   32  C  4  Z   -0.000121   0.000005  -0.001409  -0.002200   0.001331
   33  C  4  S   -0.068794  -0.001414   0.038564  -0.097246   0.152548
   34  C  4  X    0.001445  -0.001147  -0.022442  -0.055143   0.001842
   35  C  4  Y   -0.013162  -0.000019   0.004166  -0.073148   0.008728
   36  C  4  Z    0.000977  -0.000225  -0.003699  -0.004178  -0.000203
   37  C  5  S    0.497891  -0.000502  -0.002108  -0.003051  -0.094901
   38  C  5  S    0.051131  -0.000002   0.003156  -0.000597   0.104095
   39  C  5  X    0.001274   0.000031  -0.003517  -0.004465  -0.021992
   40  C  5  Y    0.000095   0.000008   0.003176   0.000925   0.052630
   41  C  5  Z    0.000190  -0.000002  -0.000727  -0.000731  -0.006451
   42  C  5  S   -0.018146   0.000008   0.014260   0.080637   0.174308
   43  C  5  X   -0.009988  -0.002224   0.005841  -0.042171  -0.009267
   44  C  5  Y   -0.001224  -0.000236  -0.009916   0.026285   0.011478
   45  C  5  Z   -0.001440  -0.000184   0.001488  -0.008083  -0.002301
   46  C  6  S    0.033104   0.003103  -0.003236   0.000285  -0.112114
   47  C  6  S    0.001539  -0.000025   0.001345   0.003351   0.121110
   48  C  6  X    0.001522  -0.000311  -0.005691  -0.001479  -0.043166
   49  C  6  Y    0.001541   0.000260   0.001499  -0.001247  -0.001647
   50  C  6  Z    0.000178   0.000045  -0.000961  -0.000188  -0.007318
   51  C  6  S    0.004275   0.000197   0.057147  -0.056778   0.205471
   52  C  6  X   -0.007426   0.003663  -0.012114   0.051943  -0.013130
   53  C  6  Y   -0.006417  -0.002836   0.027959  -0.011558   0.000461
   54  C  6  Z   -0.000855   0.000401  -0.003483   0.008850  -0.001022
   55  C  7  S    0.015875   0.013402  -0.000019   0.000122  -0.054293
   56  C  7  S    0.000526   0.000834   0.001400   0.000495   0.050996
   57  C  7  X    0.000317  -0.000382  -0.000046   0.000854  -0.024870
   58  C  7  Y    0.000363  -0.000664   0.000334  -0.000328   0.001192
   59  C  7  Z    0.000124   0.000347   0.000069   0.000101  -0.009906
   60  C  7  S    0.004216  -0.001109  -0.006983  -0.018285   0.136921
   61  C  7  X   -0.004053   0.001677   0.003347   0.007233  -0.000588
   62  C  7  Y   -0.001419   0.001521  -0.006335   0.005920   0.002296
   63  C  7  Z   -0.000936  -0.001734  -0.000028   0.001523  -0.009432
   64  C  8  S    0.004422   0.042430  -0.000115   0.000026  -0.028338
   65  C  8  S    0.000139   0.000245  -0.000055   0.000073   0.032099
   66  C  8  X    0.000067  -0.001806  -0.000352   0.000121  -0.009451
   67  C  8  Y   -0.000075  -0.002649  -0.000486  -0.000006  -0.003252
   68  C  8  Z   -0.000211  -0.000439  -0.000083   0.000109   0.012516
   69  C  8  S    0.001124   0.023463   0.003231  -0.000365   0.047737
   70  C  8  X    0.000526   0.009375   0.000727  -0.000986   0.009714
   71  C  8  Y    0.001125   0.013536   0.003435  -0.001085   0.010762
   72  C  8  Z    0.001407   0.001077   0.003059  -0.001002  -0.006414
   73  C  9  S   -0.000842   0.984465  -0.000007   0.000030  -0.013174
   74  C  9  S   -0.000055   0.106086   0.000027   0.000114   0.015113
   75  C  9  X    0.000031  -0.000041   0.000250  -0.000118  -0.007484
   76  C  9  Y    0.000115  -0.000056   0.000085  -0.000079  -0.010078
   77  C  9  Z   -0.000016  -0.000035  -0.000050   0.000096   0.000692
   78  C  9  S   -0.001261  -0.077077  -0.003243   0.000861   0.014528
   79  C  9  X    0.000458   0.004713   0.000534   0.000274   0.000180
   80  C  9  Y    0.000381   0.007100   0.001239  -0.000129   0.004704
   81  C  9  Z   -0.000185   0.001243  -0.000244  -0.000511   0.005014
   82  C 10  S    0.017934  -0.001109  -0.014143   0.003692  -0.098682
   83  C 10  S    0.001207  -0.000154   0.017436  -0.008632   0.108632
   84  C 10  X   -0.000082   0.000138  -0.017233   0.003037  -0.017270
   85  C 10  Y    0.000864   0.000276  -0.001118  -0.003382  -0.057382
   86  C 10  Z   -0.000063   0.000006  -0.002547   0.000631   0.000769
   87  C 10  S   -0.000535   0.002325  -0.017023   0.103660   0.174607
   88  C 10  X    0.001546  -0.000554  -0.016944  -0.031287  -0.005642
   89  C 10  Y   -0.000756  -0.003853   0.069709  -0.066059  -0.011700
   90  C 10  Z    0.000308   0.000258  -0.006917  -0.000568  -0.000566
   91  O 11  S   -0.000022   0.000012  -0.194527   0.097747   0.027835
   92  O 11  S   -0.000270   0.000102   0.175806  -0.085529  -0.028017
   93  O 11  X    0.000023   0.000001   0.079918  -0.042818   0.002637
   94  O 11  Y    0.000361  -0.000010  -0.001657  -0.014415  -0.038437
   95  O 11  Z   -0.000017  -0.000000   0.013217  -0.006210   0.002337
   96  O 11  S    0.000519  -0.000552   0.620756  -0.343254  -0.090991
   97  O 11  X   -0.000159  -0.000133   0.101419  -0.062894   0.001235
   98  O 11  Y   -0.001626   0.000123  -0.013409   0.001386  -0.032696
   99  O 11  Z    0.000069  -0.000021   0.017317  -0.010227   0.001802
  100  C 12  S   -0.000023  -0.000029  -0.057974   0.034718   0.026184
  101  C 12  S   -0.000151   0.000018   0.061214  -0.034889  -0.025600
  102  C 12  X   -0.000115   0.000031  -0.018190   0.010692   0.012111
  103  C 12  Y   -0.000115  -0.000039  -0.063488   0.034864   0.015601
  104  C 12  Z   -0.000012   0.000007   0.000276  -0.000020   0.001142
  105  C 12  S    0.001049   0.000083   0.099112  -0.064381  -0.065112
  106  C 12  X   -0.000049  -0.000144  -0.005290   0.001773  -0.001984
  107  C 12  Y   -0.000474   0.000232  -0.002037   0.008079   0.006095
  108  C 12  Z    0.000007  -0.000035  -0.000714  -0.000233  -0.000596
  109  H 13  S    0.000084   0.000036   0.045235   0.094776  -0.029137
  110  H 13  S    0.001453  -0.000017   0.014424   0.015144  -0.015749
  111  H 14  S   -0.002497   0.000007   0.000422   0.000301   0.026654
  112  H 14  S    0.008987  -0.000046  -0.007960  -0.024266  -0.006955
  113  H 15  S   -0.001544   0.000155  -0.000985   0.001673   0.032821
  114  H 15  S    0.007584   0.000332  -0.006995   0.008651  -0.000405
  115  H 16  S   -0.000159  -0.000231   0.000814   0.000075   0.022177
  116  H 16  S    0.000835   0.000573   0.001692  -0.000875  -0.004587
  117  H 17  S   -0.000593   0.000044  -0.000343   0.000568   0.022227
  118  H 17  S    0.000342   0.000992  -0.000811   0.003470  -0.004032
  119  H 18  S    0.000073  -0.001173   0.000282  -0.000086   0.012456
  120  H 18  S    0.000803   0.002062   0.001796  -0.000788  -0.000448
  121  H 19  S    0.000054  -0.001933   0.000026   0.000096   0.005241
  122  H 19  S    0.000103   0.013457   0.000304  -0.000052  -0.001405
  123  H 20  S    0.000004  -0.001910   0.000030  -0.000060   0.004967
  124  H 20  S   -0.000061   0.013843   0.000036  -0.000402  -0.000017
  125  H 21  S   -0.000218  -0.000134   0.000700   0.000235   0.034875
  126  H 21  S    0.000772   0.002527  -0.020460   0.018190  -0.002553
  127  H 22  S   -0.000077   0.000067   0.016532  -0.009586  -0.008327
  128  H 22  S   -0.000140  -0.000167  -0.002247   0.000000   0.004114
  129  H 23  S   -0.000072  -0.000031   0.014223  -0.009229  -0.012570
  130  H 23  S   -0.000021  -0.000134  -0.004607   0.000328  -0.003250
  131  H 24  S   -0.000077   0.000070   0.016563  -0.009592  -0.008348
  132  H 24  S   -0.000129  -0.000169  -0.002285   0.000134   0.003943

                     16         17         18         19         20
                   -0.7950    -0.7553    -0.7412    -0.7067    -0.6715
                     A          A          A          A          A   
    1  C  1  S    0.057054   0.112585   0.018733  -0.030395  -0.016276
    2  C  1  S   -0.062913  -0.121989  -0.019998   0.037550   0.021955
    3  C  1  X    0.007753   0.032246  -0.078016   0.138402  -0.038518
    4  C  1  Y    0.037827   0.000617  -0.044903  -0.057088  -0.075590
    5  C  1  Z   -0.001071   0.005214  -0.009387   0.024570  -0.001338
    6  C  1  S   -0.117997  -0.278012  -0.039703   0.050135   0.021362
    7  C  1  X   -0.034670  -0.051452  -0.001835   0.024194  -0.010633
    8  C  1  Y    0.001676   0.002927   0.002924  -0.021255  -0.008625
    9  C  1  Z   -0.005224  -0.008062  -0.000418   0.004863  -0.001040
   10  C  2  S    0.060348   0.024366  -0.082692  -0.026878  -0.093606
   11  C  2  S   -0.067638  -0.027044   0.093140   0.030280   0.104369
   12  C  2  X   -0.052865  -0.013385   0.049610   0.021867   0.017149
   13  C  2  Y   -0.006471  -0.100541  -0.066188  -0.002140  -0.011676
   14  C  2  Z   -0.007713   0.003870   0.011462   0.003448   0.003310
   15  C  2  S   -0.134183  -0.061660   0.187300   0.069869   0.253752
   16  C  2  X   -0.018586   0.015213   0.026349   0.031570   0.037892
   17  C  2  Y   -0.021798  -0.049431   0.004372  -0.027733   0.002725
   18  C  2  Z   -0.001858   0.005381   0.003625   0.006503   0.005619
   19  O  3  S   -0.028272  -0.022163   0.031456  -0.002128   0.030604
   20  O  3  S    0.028045   0.020942  -0.031195   0.000394  -0.031268
   21  O  3  X   -0.021451  -0.007928   0.049824   0.013753   0.087950
   22  O  3  Y    0.019663  -0.008617  -0.045133  -0.013453  -0.054902
   23  O  3  Z   -0.004380  -0.000660   0.010160   0.002875   0.016541
   24  O  3  S    0.098385   0.083958  -0.112943   0.015719  -0.108302
   25  O  3  X   -0.014050  -0.001464   0.038083   0.012734   0.071755
   26  O  3  Y    0.018206  -0.004813  -0.038978  -0.010131  -0.046801
   27  O  3  Z   -0.003111   0.000083   0.008048   0.002537   0.013625
   28  C  4  S    0.052023  -0.068349  -0.115685   0.014999  -0.008767
   29  C  4  S   -0.056009   0.073344   0.123162  -0.014984   0.010678
   30  C  4  X    0.006491   0.043063  -0.016283  -0.044913  -0.105705
   31  C  4  Y   -0.033205  -0.003783   0.039797   0.024515   0.048265
   32  C  4  Z    0.002847   0.006930  -0.004932  -0.008408  -0.019058
   33  C  4  S   -0.110340   0.127235   0.280246  -0.056262   0.025607
   34  C  4  X    0.001063   0.007415   0.001644  -0.001100  -0.026075
   35  C  4  Y   -0.007170  -0.004635   0.012452  -0.002227  -0.001684
   36  C  4  Z    0.001092   0.001149  -0.000093   0.000026  -0.003837
   37  C  5  S    0.006858  -0.097513  -0.024238   0.070418   0.093940
   38  C  5  S   -0.006491   0.102953   0.026923  -0.074785  -0.098024
   39  C  5  X    0.044149  -0.016808  -0.077306  -0.019157   0.003818
   40  C  5  Y    0.010556   0.018423  -0.042646  -0.001302  -0.016515
   41  C  5  Z    0.005875  -0.003376  -0.009642  -0.003149   0.001518
   42  C  5  S   -0.025175   0.232769   0.041848  -0.169248  -0.252130
   43  C  5  X    0.014105  -0.008350  -0.000524  -0.010638   0.019278
   44  C  5  Y   -0.012532   0.018965  -0.011480   0.006573  -0.012208
   45  C  5  Z    0.001153  -0.001589  -0.000487  -0.002270   0.003247
   46  C  6  S   -0.052549  -0.051934   0.087473   0.032693   0.026046
   47  C  6  S    0.057104   0.055005  -0.091253  -0.033546  -0.027471
   48  C  6  X    0.061042  -0.015440   0.013309  -0.052913   0.110055
   49  C  6  Y    0.009987  -0.057495  -0.050820   0.082692   0.045430
   50  C  6  Z    0.004633   0.003106   0.001899  -0.014480   0.014897
   51  C  6  S    0.102114   0.107107  -0.203991  -0.084490  -0.074444
   52  C  6  X   -0.026098   0.020262  -0.013657   0.001466   0.002367
   53  C  6  Y    0.000940   0.003497  -0.014127   0.014295   0.009674
   54  C  6  Z   -0.001887   0.003090  -0.001853  -0.001972   0.002021
   55  C  7  S   -0.126053  -0.000131   0.021188   0.062599  -0.122458
   56  C  7  S    0.116058   0.000117  -0.019601  -0.058100   0.112966
   57  C  7  X    0.006527  -0.029964   0.054108   0.020184   0.012753
   58  C  7  Y    0.021306  -0.022161   0.015326   0.026634  -0.004527
   59  C  7  Z   -0.031045   0.010312  -0.013165  -0.005423   0.003008
   60  C  7  S    0.352108  -0.005803  -0.060602  -0.197992   0.406447
   61  C  7  X   -0.015152   0.000191   0.006036   0.008297  -0.002422
   62  C  7  Y    0.003744  -0.002542  -0.001371   0.012626  -0.000551
   63  C  7  Z   -0.019348   0.000547   0.002993   0.005939  -0.009743
   64  C  8  S   -0.131352   0.053729  -0.078399  -0.026346   0.011058
   65  C  8  S    0.141476  -0.056558   0.083024   0.027145  -0.011839
   66  C  8  X    0.004620  -0.021785   0.047284   0.038894  -0.076492
   67  C  8  Y    0.021073  -0.029967   0.055839   0.051913  -0.098170
   68  C  8  Z    0.037323  -0.003665  -0.002940  -0.017967   0.049674
   69  C  8  S    0.266569  -0.122430   0.179925   0.069416  -0.034763
   70  C  8  X    0.013722  -0.000234   0.000875  -0.001055  -0.007562
   71  C  8  Y    0.016996  -0.002307   0.000176   0.004025  -0.015923
   72  C  8  Z    0.001261  -0.006029   0.008342   0.002300   0.003113
   73  C  9  S   -0.090234   0.054393  -0.092257  -0.058746   0.099015
   74  C  9  S    0.099315  -0.058449   0.098940   0.062069  -0.104192
   75  C  9  X   -0.040680   0.019008  -0.028453  -0.012174   0.006870
   76  C  9  Y   -0.057405   0.028094  -0.044017  -0.018909   0.014572
   77  C  9  Z    0.000021   0.002929  -0.006772  -0.007601   0.018241
   78  C  9  S    0.168972  -0.120987   0.215197   0.148679  -0.264489
   79  C  9  X   -0.001289   0.002586  -0.003789  -0.002991   0.000690
   80  C  9  Y    0.000816   0.005019  -0.010824  -0.005914   0.004895
   81  C  9  Z    0.002883   0.003908  -0.008607  -0.007605   0.014335
   82  C 10  S    0.003732   0.034667   0.106242  -0.095764   0.032139
   83  C 10  S   -0.005448  -0.040295  -0.112483   0.099702  -0.032747
   84  C 10  X    0.051329   0.059015  -0.014235  -0.050457   0.000993
   85  C 10  Y   -0.002202  -0.018548   0.025760   0.004931   0.017541
   86  C 10  Z    0.007048   0.010716  -0.004587  -0.008449  -0.000616
   87  C 10  S    0.008784  -0.029019  -0.255307   0.266938  -0.086269
   88  C 10  X   -0.005212  -0.030965   0.016506  -0.022667   0.009823
   89  C 10  Y    0.016976  -0.017780   0.006672  -0.014020   0.010806
   90  C 10  Z   -0.003212  -0.003205   0.001389  -0.002358   0.000733
   91  O 11  S   -0.010555  -0.003381  -0.011450   0.060544   0.019729
   92  O 11  S    0.011137   0.005594   0.011722  -0.057211  -0.017446
   93  O 11  X   -0.005230  -0.024186  -0.010835   0.002056  -0.007547
   94  O 11  Y    0.048495   0.163508   0.004401   0.115467   0.017427
   95  O 11  Z   -0.003348  -0.012245  -0.001825  -0.005781  -0.001929
   96  O 11  S    0.031784  -0.003424   0.040998  -0.239306  -0.083668
   97  O 11  X   -0.003263  -0.018286  -0.008024  -0.003066  -0.009149
   98  O 11  Y    0.043659   0.143978   0.006534   0.096770   0.017530
   99  O 11  Z   -0.002863  -0.010389  -0.001535  -0.005682  -0.002232
  100  C 12  S   -0.031570  -0.118626  -0.003590  -0.126496  -0.043543
  101  C 12  S    0.031851   0.120492   0.004535   0.128279   0.045292
  102  C 12  X   -0.008890  -0.025186  -0.009043   0.011897   0.003601
  103  C 12  Y   -0.010902  -0.016239  -0.002406   0.031778   0.024261
  104  C 12  Z   -0.000907  -0.003187  -0.001297   0.000283  -0.000535
  105  C 12  S    0.081739   0.323108   0.007687   0.368043   0.130577
  106  C 12  X    0.002213   0.006299  -0.007597   0.026685   0.002981
  107  C 12  Y   -0.001995   0.004510   0.003077   0.022593   0.020088
  108  C 12  Z    0.000570   0.000807  -0.001250   0.003301  -0.000546
  109  H 13  S    0.026521   0.004789  -0.048521  -0.014828  -0.067702
  110  H 13  S    0.014061   0.009190  -0.021156  -0.012717  -0.040604
  111  H 14  S   -0.019538   0.033793   0.057404  -0.009929   0.006804
  112  H 14  S    0.000701   0.006540   0.008069  -0.002116  -0.005069
  113  H 15  S    0.001062   0.047915   0.011080  -0.046796  -0.054015
  114  H 15  S    0.000059   0.011830  -0.002441  -0.012931  -0.016990
  115  H 16  S    0.057733  -0.002821  -0.008938  -0.029382   0.070769
  116  H 16  S    0.000070  -0.003551   0.002764  -0.000676   0.010631
  117  H 17  S    0.055269   0.004395  -0.008843  -0.041993   0.073633
  118  H 17  S   -0.005591   0.006166  -0.002470  -0.009074   0.010009
  119  H 18  S    0.058122  -0.024090   0.036136   0.011915  -0.005245
  120  H 18  S    0.002118  -0.002242   0.004002   0.001836  -0.003952
  121  H 19  S    0.039939  -0.025504   0.044224   0.029995  -0.054715
  122  H 19  S    0.002942  -0.004174   0.007804   0.006265  -0.013141
  123  H 20  S    0.036439  -0.024774   0.044309   0.032616  -0.064998
  124  H 20  S   -0.001878  -0.001008   0.003195   0.005539  -0.017215
  125  H 21  S    0.006276  -0.015047  -0.056928   0.057292  -0.012876
  126  H 21  S   -0.001279   0.010181  -0.013710   0.022539  -0.004375
  127  H 22  S    0.013634   0.058266  -0.000977   0.081926   0.030409
  128  H 22  S   -0.001725  -0.003330  -0.001590   0.010867   0.005262
  129  H 23  S    0.017054   0.070934   0.003997   0.081990   0.033508
  130  H 23  S    0.002980   0.012674  -0.000641   0.019052   0.006324
  131  H 24  S    0.013618   0.058280  -0.000905   0.081874   0.030457
  132  H 24  S   -0.001887  -0.002933  -0.001719   0.010618   0.005643

                     21         22         23         24         25
                   -0.6081    -0.5898    -0.5539    -0.5446    -0.5181
                     A          A          A          A          A   
    1  C  1  S    0.066954   0.054311   0.021099  -0.004800  -0.025825
    2  C  1  S   -0.074909  -0.056511  -0.023077   0.006559   0.030055
    3  C  1  X    0.104420  -0.085787   0.010984  -0.023503   0.221117
    4  C  1  Y    0.126059  -0.084008  -0.118344   0.109205  -0.030311
    5  C  1  Z    0.008347  -0.007559   0.005780  -0.013196   0.036469
    6  C  1  S   -0.197327  -0.205136  -0.061543  -0.006123   0.085920
    7  C  1  X    0.024574  -0.076101  -0.039822   0.023335   0.120485
    8  C  1  Y    0.076485  -0.005265  -0.069162   0.072128  -0.007240
    9  C  1  Z   -0.001062  -0.011080  -0.003331  -0.002141   0.019412
   10  C  2  S    0.022283  -0.071970  -0.005070  -0.012157  -0.010510
   11  C  2  S   -0.026370   0.078387   0.007455   0.010739   0.009699
   12  C  2  X   -0.044222  -0.061281   0.098682  -0.175807  -0.011853
   13  C  2  Y   -0.216993  -0.019530   0.038600  -0.034851  -0.032547
   14  C  2  Z    0.005773  -0.008137   0.011646  -0.026589   0.000432
   15  C  2  S   -0.051973   0.233681  -0.012138   0.076482   0.062401
   16  C  2  X   -0.012090   0.036119   0.052180  -0.061974   0.026705
   17  C  2  Y   -0.098195   0.005780   0.005456  -0.000068  -0.052324
   18  C  2  Z    0.003835   0.005489   0.006481  -0.010987   0.007401
   19  O  3  S   -0.020815   0.019987   0.003265  -0.002418  -0.022296
   20  O  3  S    0.021155  -0.021751  -0.003849   0.001643   0.019540
   21  O  3  X    0.029361   0.146720  -0.091905   0.197564   0.045335
   22  O  3  Y   -0.081160  -0.081944   0.070994  -0.131975  -0.071795
   23  O  3  Z    0.009154   0.027125  -0.018582   0.036998   0.011177
   24  O  3  S    0.075652  -0.064928  -0.011373   0.016522   0.097929
   25  O  3  X    0.024023   0.133684  -0.072252   0.168912   0.042499
   26  O  3  Y   -0.069849  -0.071386   0.059237  -0.111489  -0.063333
   27  O  3  Z    0.007676   0.024498  -0.014768   0.031611   0.010269
   28  C  4  S   -0.082660   0.057589   0.003382   0.039886   0.050645
   29  C  4  S    0.086762  -0.058374  -0.003479  -0.040714  -0.050010
   30  C  4  X   -0.081024  -0.095061   0.022602  -0.016495  -0.001022
   31  C  4  Y   -0.028225   0.077954   0.062279  -0.039573   0.066085
   32  C  4  Z   -0.010882  -0.018816  -0.002133  -0.002128  -0.003595
   33  C  4  S    0.235607  -0.203006  -0.014639  -0.141434  -0.206357
   34  C  4  X   -0.030413  -0.061907   0.027000  -0.045144   0.002714
   35  C  4  Y   -0.011591   0.010956   0.043591  -0.040623   0.014092
[...]
    811    7.78838    2.55309   -5.25613        -9.709814       9.716570       0.006756
    812    7.78838    2.55309    3.81455       -10.512879      10.526484       0.013606
    813    7.78838    2.55309    5.32633        -9.260671       9.267638       0.006967
    814    7.78838    2.55309    6.83812        -8.255567       8.259760       0.004192
    815    7.78838    4.06487   -6.76791        -8.101457       8.105021       0.003564
    816    7.78838    4.06487   -5.25613        -9.118881       9.126285       0.007404
    817    7.78838    4.06487    3.81455        -9.730697       9.746441       0.015745
    818    7.78838    4.06487    5.32633        -8.724562       8.732012       0.007450
    819    7.78838    5.57665   -6.76791        -7.612707       7.616202       0.003495
    820    7.78838    5.57665   -5.25613        -8.379318       8.384550       0.005232
    821    7.78838    5.57665   -3.74435        -9.230908       9.238763       0.007855
    822    7.78838    5.57665   -0.72079       -10.426042      10.430606       0.004564
    823    7.78838    5.57665    3.81455        -8.834667       8.844838       0.010171
    824    7.78838    5.57665    5.32633        -8.100990       8.107604       0.006614
    825    7.78838    7.08843   -5.25613        -7.650892       7.654923       0.004031
    826    7.78838    7.08843   -3.74435        -8.201861       8.206133       0.004272
    827    7.78838    7.08843   -2.23257        -8.649225       8.652705       0.003480
    828    7.78838    7.08843   -0.72079        -8.868884       8.872147       0.003263
    829    7.78838    7.08843    0.79099        -8.792585       8.797861       0.005276
    830    7.78838    7.08843    2.30277        -8.463628       8.470742       0.007113
    831    7.78838    7.08843    3.81455        -7.991465       7.998249       0.006784
    832    7.78838    8.60021   -3.74435        -7.372003       7.375943       0.003940
    833    7.78838    8.60021   -2.23257        -7.659568       7.663554       0.003986
    834    7.78838    8.60021    0.79099        -7.763286       7.768164       0.004879
    835    7.78838    8.60021    2.30277        -7.564912       7.570341       0.005429
    836    9.30016   -6.51760   -0.72079        -8.076129       8.076305       0.000175
    837    9.30016   -6.51760    0.79099        -8.097666       8.098732       0.001067
    838    9.30016   -6.51760    2.30277        -7.930049       7.931417       0.001368
    839    9.30016   -5.00582   -3.74435        -8.176418       8.174965      -0.001452
    840    9.30016   -5.00582   -2.23257        -8.625558       8.623829      -0.001730
    841    9.30016   -5.00582   -0.72079        -8.898426       8.897382      -0.001044
    842    9.30016   -5.00582    0.79099        -8.921886       8.922343       0.000458
    843    9.30016   -5.00582    2.30277        -8.680123       8.681341       0.001218
    844    9.30016   -5.00582    3.81455        -8.236593       8.237463       0.000870
    845    9.30016   -3.49404   -5.25613        -8.144317       8.143421      -0.000896
    846    9.30016   -3.49404   -3.74435        -8.843725       8.841144      -0.002580
    847    9.30016   -3.49404   -2.23257        -9.452030       9.446958      -0.005072
    848    9.30016   -3.49404   -0.72079        -9.817077       9.811451      -0.005626
    849    9.30016   -3.49404    0.79099        -9.819974       9.816691      -0.003284
    850    9.30016   -3.49404    2.30277        -9.456428       9.455419      -0.001009
    851    9.30016   -3.49404    3.81455        -8.848189       8.847995      -0.000194
    852    9.30016   -3.49404    5.32633        -8.152278       8.152318       0.000040
    853    9.30016   -1.98226   -6.76791        -7.767047       7.767258       0.000212
    854    9.30016   -1.98226   -5.25613        -8.596258       8.595693      -0.000565
    855    9.30016   -1.98226   -3.74435        -9.502325       9.497686      -0.004639
    856    9.30016   -1.98226   -2.23257       -10.335922      10.323025      -0.012897
    857    9.30016   -1.98226   -0.72079       -10.810573      10.792878      -0.017694
    858    9.30016   -1.98226    0.79099       -10.722153      10.709087      -0.013067
    859    9.30016   -1.98226    2.30277       -10.159886      10.154008      -0.005878
    860    9.30016   -1.98226    3.81455        -9.355072       9.353297      -0.001775
    861    9.30016   -1.98226    5.32633        -8.507112       8.507062      -0.000051
    862    9.30016   -0.47048   -6.76791        -7.960929       7.961967       0.001038
    863    9.30016   -0.47048   -5.25613        -8.916199       8.916438       0.000239
    864    9.30016   -0.47048   -3.74435       -10.044191      10.038213      -0.005978
    865    9.30016   -0.47048   -2.23257       -11.181851      11.159794      -0.022058
    866    9.30016   -0.47048   -0.72079       -11.808998      11.773310      -0.035688
    867    9.30016   -0.47048    0.79099       -11.511744      11.484411      -0.027334
    868    9.30016   -0.47048    2.30277       -10.653220      10.642757      -0.010463
    869    9.30016   -0.47048    3.81455        -9.651251       9.649272      -0.001979
    870    9.30016   -0.47048    5.32633        -8.690124       8.690865       0.000742
    871    9.30016    1.04131   -6.76791        -7.995539       7.997752       0.002214
    872    9.30016    1.04131   -5.25613        -9.014969       9.017869       0.002899
    873    9.30016    1.04131    2.30277       -10.821843      10.814588      -0.007255
    874    9.30016    1.04131    3.81455        -9.663391       9.664111       0.000721
    875    9.30016    1.04131    5.32633        -8.660651       8.663108       0.002456
    876    9.30016    2.55309   -6.76791        -7.850945       7.854628       0.003683
    877    9.30016    2.55309   -5.25613        -8.836841       8.845331       0.008490
    878    9.30016    2.55309    3.81455        -9.374287       9.381369       0.007082
    879    9.30016    2.55309    5.32633        -8.422944       8.427498       0.004554
    880    9.30016    4.06487   -6.76791        -7.545303       7.549746       0.004444
    881    9.30016    4.06487   -5.25613        -8.385508       8.395845       0.010337
    882    9.30016    4.06487    3.81455        -8.817626       8.828120       0.010494
    883    9.30016    4.06487    5.32633        -8.019589       8.025358       0.005769
    884    9.30016    5.57665   -6.76791        -7.134444       7.138553       0.004109
    885    9.30016    5.57665   -5.25613        -7.781539       7.788558       0.007019
    886    9.30016    5.57665   -3.74435        -8.481390       8.493777       0.012387
    887    9.30016    5.57665   -0.72079        -9.387324       9.394413       0.007089
    888    9.30016    5.57665    0.79099        -9.226688       9.236119       0.009432
    889    9.30016    5.57665    2.30277        -8.734665       8.745898       0.011233
    890    9.30016    5.57665    3.81455        -8.123993       8.132113       0.008120
    891    9.30016    5.57665    5.32633        -7.519891       7.525404       0.005513
    892    9.30016    7.08843   -5.25613        -7.165896       7.170554       0.004657
    893    9.30016    7.08843   -3.74435        -7.630636       7.636232       0.005596
    894    9.30016    7.08843   -2.23257        -7.999538       8.004839       0.005302
    895    9.30016    7.08843   -0.72079        -8.173819       8.178457       0.004638
    896    9.30016    7.08843    0.79099        -8.105233       8.110660       0.005426
    897    9.30016    7.08843    2.30277        -7.830593       7.836881       0.006288
    898    9.30016    7.08843    3.81455        -7.435366       7.441179       0.005813
    899    9.30016    8.60021   -3.74435        -6.923379       6.927432       0.004053
    900    9.30016    8.60021   -2.23257        -7.166814       7.170944       0.004131
    901    9.30016    8.60021    0.79099        -7.249212       7.253711       0.004499
    902   10.81194   -5.00582    0.79099        -7.899219       7.897608      -0.001611
    903   10.81194   -3.49404    0.79099        -8.501090       8.496604      -0.004486
    904   10.81194   -3.49404    2.30277        -8.257283       8.254595      -0.002688
    905   10.81194   -1.98226   -5.25613        -7.719315       7.717534      -0.001781
    906   10.81194   -1.98226   -3.74435        -8.330686       8.325871      -0.004814
    907   10.81194   -1.98226   -2.23257        -8.843023       8.833759      -0.009263
    908   10.81194   -1.98226   -0.72079        -9.116247       9.104444      -0.011804
    909   10.81194   -1.98226    0.79099        -9.063143       9.053414      -0.009729
    910   10.81194   -1.98226    2.30277        -8.722500       8.716946      -0.005554
    911   10.81194   -0.47048   -5.25613        -7.949811       7.948555      -0.001255
    912   10.81194   -0.47048   -3.74435        -8.673480       8.667761      -0.005719
    913   10.81194   -0.47048   -2.23257        -9.306892       9.292874      -0.014018
    914   10.81194   -0.47048   -0.72079        -9.631177       9.611360      -0.019816
    915   10.81194   -0.47048    0.79099        -9.509882       9.493937      -0.015945
    916   10.81194   -0.47048    2.30277        -9.046092       9.038044      -0.008047
    917   10.81194   -0.47048    3.81455        -8.424712       8.421987      -0.002725
    918   10.81194    1.04131   -6.76791        -7.292650       7.294006       0.001357
    919   10.81194    1.04131   -5.25613        -8.022122       8.023088       0.000966
    920   10.81194    1.04131   -3.74435        -8.827616       8.825138      -0.002478
    921   10.81194    1.04131   -2.23257        -9.569582       9.557601      -0.011981
    922   10.81194    1.04131   -0.72079        -9.936120       9.916700      -0.019420
    923   10.81194    1.04131    0.79099        -9.732001       9.715818      -0.016183
    924   10.81194    1.04131    2.30277        -9.149778       9.142661      -0.007117
    925   10.81194    1.04131    3.81455        -8.451977       8.450674      -0.001303
    926   10.81194    1.04131    5.32633        -7.764445       7.765212       0.000767
    927   10.81194    2.55309   -6.76791        -7.184848       7.187681       0.002833
    928   10.81194    2.55309   -5.25613        -7.896088       7.900816       0.004728
    929   10.81194    2.55309   -3.74435        -8.702314       8.709956       0.007642
    930   10.81194    2.55309   -0.72079        -9.804856       9.799056      -0.005800
    931   10.81194    2.55309    0.79099        -9.565132       9.558671      -0.006461
    932   10.81194    2.55309    2.30277        -8.959447       8.958486      -0.000961
    933   10.81194    2.55309    3.81455        -8.264880       8.266805       0.001924
    934   10.81194    2.55309    5.32633        -7.602298       7.604648       0.002350
    935   10.81194    4.06487   -6.76791        -6.948678       6.952388       0.003710
    936   10.81194    4.06487   -5.25613        -7.574070       7.580717       0.006647
    937   10.81194    4.06487   -3.74435        -8.256159       8.268334       0.012175
    938   10.81194    4.06487   -0.72079        -9.125427       9.128361       0.002934
    939   10.81194    4.06487    0.79099        -8.948489       8.950610       0.002122
    940   10.81194    4.06487    2.30277        -8.467552       8.472172       0.004620
    941   10.81194    4.06487    3.81455        -7.883142       7.887660       0.004518
    942   10.81194    4.06487    5.32633        -7.306455       7.310014       0.003558
    943   10.81194    5.57665   -6.76791        -6.622066       6.625717       0.003652
    944   10.81194    5.57665   -5.25613        -7.127050       7.132642       0.005592
    945   10.81194    5.57665   -3.74435        -7.632638       7.640479       0.007841
    946   10.81194    5.57665   -2.23257        -8.045196       8.052589       0.007394
    947   10.81194    5.57665   -0.72079        -8.230790       8.235335       0.004545
    948   10.81194    5.57665    0.79099        -8.134335       8.138749       0.004414
    949   10.81194    5.57665    2.30277        -7.815307       7.820614       0.005308
    950   10.81194    5.57665    3.81455        -7.384012       7.388884       0.004872
    951   10.81194    7.08843   -5.25613        -6.645058       6.649235       0.004177
    952   10.81194    7.08843   -3.74435        -7.009164       7.014093       0.004929
    953   10.81194    7.08843   -2.23257        -7.287689       7.292502       0.004812
    954   10.81194    7.08843   -0.72079        -7.416717       7.420960       0.004243
    955   10.81194    7.08843    0.79099        -7.366958       7.371233       0.004276
    956   10.81194    7.08843    2.30277        -7.161924       7.166453       0.004529
    957   10.81194    7.08843    3.81455        -6.856381       6.860665       0.004284
    958   12.32373   -0.47048   -3.74435        -7.563561       7.559934      -0.003627
    959   12.32373   -0.47048   -2.23257        -7.938106       7.931264      -0.006842
    960   12.32373   -0.47048   -0.72079        -8.123769       8.114956      -0.008813
    961   12.32373    1.04131   -5.25613        -7.136701       7.136730       0.000029
    962   12.32373    1.04131   -3.74435        -7.637301       7.635286      -0.002014
    963   12.32373    1.04131   -2.23257        -8.043033       8.037368      -0.005665
    964   12.32373    1.04131   -0.72079        -8.236907       8.228614      -0.008293
    965   12.32373    1.04131    0.79099        -8.158410       8.151121      -0.007289
    966   12.32373    1.04131    2.30277        -7.857937       7.853829      -0.004108
    967   12.32373    2.55309   -5.25613        -7.041557       7.043565       0.002008
    968   12.32373    2.55309   -3.74435        -7.532484       7.533788       0.001305
    969   12.32373    2.55309   -2.23257        -7.930376       7.928907      -0.001469
    970   12.32373    2.55309   -0.72079        -8.113824       8.109602      -0.004222
    971   12.32373    2.55309    0.79099        -8.025790       8.021922      -0.003868
    972   12.32373    2.55309    2.30277        -7.722579       7.721018      -0.001560
    973   12.32373    2.55309    3.81455        -7.306678       7.306965       0.000287
    974   12.32373    4.06487   -5.25613        -6.814227       6.817613       0.003386
    975   12.32373    4.06487   -3.74435        -7.248064       7.251879       0.003815
    976   12.32373    4.06487   -2.23257        -7.591549       7.594007       0.002458
    977   12.32373    4.06487   -0.72079        -7.747042       7.747402       0.000361
    978   12.32373    4.06487    0.79099        -7.672248       7.672391       0.000143
    979   12.32373    4.06487    2.30277        -7.410557       7.411764       0.001207
    980   12.32373    4.06487    3.81455        -7.044044       7.045970       0.001926
    981   12.32373    5.57665   -5.25613        -6.493290       6.496850       0.003561
    982   12.32373    5.57665   -3.74435        -6.845251       6.849354       0.004104
    983   12.32373    5.57665   -2.23257        -7.114059       7.117691       0.003632
    984   12.32373    5.57665   -0.72079        -7.236578       7.239207       0.002629
    985   12.32373    5.57665    0.79099        -7.185265       7.187637       0.002372
    986   12.32373    5.57665    2.30277        -6.985149       6.987828       0.002680
    987   12.32373    7.08843   -3.74435        -6.404009       6.407542       0.003533
    988   12.32373    7.08843   -2.23257        -6.606635       6.610081       0.003447
    989   13.83551    2.55309   -3.74435        -6.637190       6.637425       0.000235
    990   13.83551    2.55309   -2.23257        -6.877374       6.876491      -0.000883
    991   13.83551    2.55309   -0.72079        -6.989593       6.987801      -0.001793
    992   13.83551    4.06487   -3.74435        -6.444972       6.446562       0.001590
    993   13.83551    4.06487   -2.23257        -6.660834       6.661768       0.000934
    994   13.83551    4.06487   -0.72079        -6.760558       6.760799       0.000240

 NET CHARGES:
 -------------------------------------
 ATOM                CHARGE    E.S.D.
 -------------------------------------
 C                   0.1350    0.5116
 C                   0.3313    0.4071
 O                  -0.5603    0.0576
 C                  -0.2986    0.4372
 C                  -0.1607    0.3492
 C                  -0.0402    0.4176
 C                   0.1407    0.8142
 C                  -0.0397    0.2854
 C                  -0.4848    0.2226
 C                  -0.2422    0.4385
 O                  -0.3212    0.1609
 C                   0.0036    0.9556
 H                   0.4105    0.0321
 H                   0.1778    0.0359
 H                   0.1299    0.0296
 H                  -0.0045    0.0563
 H                   0.0035    0.0609
 H                   0.0809    0.0281
 H                   0.1902    0.0227
 H                   0.1811    0.0246
 H                   0.1481    0.0515
 H                   0.0644    0.0728
 H                   0.0879    0.0694
 H                   0.0672    0.0699
 -------------------------------------

 RMS DEVIATION IS            1.956 KCAL/MOLE
 RELATIVE RMS DEVIATION IS  24.617 %

 MULTIPOLE MOMENTS:
 ---------------------------------------------------------
 STATUS  ACTUAL VALUE       QUANTITY        FITTED VALUE 
 ---------------------------------------------------------
 FIXED       0.0000       TOTAL CHARGE         0.0000
             2.8205 D    DIPOLE MOMENT         2.8291 D
 FREE        0.6268 D          DX              0.6860 D
 FREE        2.7499 D          DY              2.7442 D
 FREE       -0.0084 D          DZ              0.0485 D
 FREE        0.0000 BU         QXX            -4.5902 BU
 FREE        0.0000 BU         QYY             9.8137 BU
 FREE        0.0000 BU         QZZ            -5.2235 BU
 FREE        0.0000 BU         QXY            -8.3339 BU
 FREE        0.0000 BU         QXZ             1.1809 BU
 FREE        0.0000 BU         QYZ            -1.0267 BU
 ---------------------------------------------------------
 ...... END OF PROPERTY EVALUATION ......
 CPU     0: STEP CPU TIME=     0.63 TOTAL CPU TIME=         44.9 (      0.7 MIN)
 TOTAL WALL CLOCK TIME=         66.3 SECONDS, CPU UTILIZATION IS    67.69%
               956059  WORDS OF DYNAMIC MEMORY USED
 EXECUTION OF GAMESS TERMINATED NORMALLY Mon May 25 19:05:09 2020
 DDI: 263640 bytes (0.3 MB / 0 MWords) used by master data server.
Note: The following floating-point exceptions are signalling:Note: The following floating-point exceptions are signalling: IEEE_UNDERFLOW_FLAGNote: The following floating-point exceptions are signalling: IEEE_UNDERFLOW_FLAG IEEE_UNDERFLOW_FLAG IEEE_DENORMALNote: The following floating-point exceptions are signalling:
 ----------------------------------------
 CPU timing information for all processes
 ========================================
 0: 44.500 + 0.390 = 44.891
 1: 42.683 + 0.184 = 42.868
 2: 42.05 + 0.88 = 42.93
 3: 43.867 + 0.107 = 43.975
 4: 42.386 + 0.88 = 42.474
 5: 42.201 + 0.101 = 42.302
 ----------------------------------------
 IEEE_DENORMAL
 IEEE_DENORMAL

 IEEE_UNDERFLOW_FLAG IEEE_DENORMALNote: The following floating-point exceptions are signalling: IEEE_UNDERFLOW_FLAGNote: The following floating-point exceptions are signalling: IEEE_UNDERFLOW_FLAG
 IEEE_DENORMAL
 IEEE_DENORMAL
 ddikick.x: exited gracefully.
unset echo
----- accounting info -----
Files used on the master node pietdev were:
-rwxr-xr-x 1 piet piet     1143 mei 25 19:04 /home/piet/scr/eugenol_charge_chelpg.F05*
-rw-r--r-- 1 piet piet 50790400 mei 25 19:05 /home/piet/scr/eugenol_charge_chelpg.F10
ls: No match.
ls: No match.
ls: No match.
ma 25 mei 2020 19:05:12 CEST
0.124u 0.028s 1:09.46 0.2%	0+0k 0+8io 0pf+0w
