----- GAMESS execution script 'rungms' -----
This job is running on host pietdev
under operating system Linux at ma 25 mei 2020 19:05:30 CEST
Available scratch disk space (Kbyte units) at beginning of the job is
Filesystem     1K-blocks     Used Available Use% Mounted on
/dev/sda2      244568380 31071460 201003864  14% /
GAMESS temporary binary files will be written to /home/piet/scr
GAMESS supplementary output files will be written to /home/piet/gamess/scr
Copying input file eugenol_fukui_neu.inp to your run's scratch directory...
cp eugenol_fukui_neu.inp /home/piet/scr/eugenol_fukui_neu.F05
unset echo
 
Assuming a single but multicore node.
 
/home/piet/gamess/ddikick.x /home/piet/gamess/gamess.03.x eugenol_fukui_neu -ddi 1 6 pietdev:cpus=6 -scr /home/piet/scr

 Distributed Data Interface kickoff program.
 Initiating 6 compute processes on 1 nodes to run the following command:
 /home/piet/gamess/gamess.03.x eugenol_fukui_neu 

          ******************************************************
          *         GAMESS VERSION = 30 SEP 2019 (R2)          *
          *             FROM IOWA STATE UNIVERSITY             *
          * M.W.SCHMIDT, K.K.BALDRIDGE, J.A.BOATZ, S.T.ELBERT, *
          *   M.S.GORDON, J.H.JENSEN, S.KOSEKI, N.MATSUNAGA,   *
          *          K.A.NGUYEN, S.J.SU, T.L.WINDUS,           *
          *       TOGETHER WITH M.DUPUIS, J.A.MONTGOMERY       *
          *         J.COMPUT.CHEM.  14, 1347-1363(1993)        *
          **************** 64 BIT LINUX VERSION ****************

  SINCE 1993, STUDENTS AND POSTDOCS WORKING AT IOWA STATE UNIVERSITY
  AND ALSO IN THEIR VARIOUS JOBS AFTER LEAVING ISU HAVE MADE IMPORTANT
  CONTRIBUTIONS TO THE CODE:
     IVANA ADAMOVIC, CHRISTINE AIKENS, YURI ALEXEEV, POOJA ARORA,
     ANDREY ASADCHEV, ROB BELL, PRADIPTA BANDYOPADHYAY, JONATHAN BENTZ,
     COLLEEN BERTONI, BRETT BODE, KURT BRORSEN, CALEB CARLIN, GALINA CHABAN,
     WEI CHEN, CHEOL HO CHOI, PAUL DAY, ALBERT DEFUSCO, NUWAN DESILVA,
     TIM DUDLEY, DMITRI FEDOROV, ALEX FINDLATER, GRAHAM FLETCHER, 
     MARK FREITAG, KURT GLAESEMANN, EMILIE B GUIDEZ, ANASTASIA GUNINA, 
     DAN KEMP, SAROM SOK LEANG, GRANT MERRILL,
     NORIYUKI MINEZAWA, JONATHAN MULLIN,
     TAKESHI NAGATA, SEAN NEDD, HEATHER NETZLOFF, BOSILJKA NJEGIC, RYAN OLSON,
     MIKE PAK, BUU PHAM, DAVID POOLE,
     SPENCER PRUITT, LUKE ROSKOP, TOSAPORN SATTASATHUCHANA,
     JIM SHOEMAKER, LYUDMILA SLIPCHENKO,
     TONY SMITH, JIE SONG, TETSUYA TAKETSUGU, SIMON WEBB,
     JORGE LUIS GALVEZ VALLEJO, PENG XU, SOOHAENG YOO,
     FEDERICO ZAHARIEV

  ADDITIONAL CODE HAS BEEN PROVIDED BY COLLABORATORS IN OTHER GROUPS:
     IOWA STATE UNIVERSITY:
          JOE IVANIC, AARON WEST, LAIMUTIS BYTAUTAS, KLAUS RUEDENBERG
     UNIVERSITY OF TOKYO: KIMIHIKO HIRAO, TAKAHITO NAKAJIMA,
          TAKAO TSUNEDA, MUNEAKI KAMIYA, SUSUMU YANAGISAWA,
          KIYOSHI YAGI, MAHITO CHIBA, SEIKEN TOKURA, NAOAKI KAWAKAMI
     UNIVERSITY OF AARHUS: FRANK JENSEN
     UNIVERSITY OF IOWA: VISVALDAS KAIRYS, HUI LI
     NATIONAL INST. OF STANDARDS AND TECHNOLOGY: WALT STEVENS, DAVID GARMER
     UNIVERSITY OF PISA: BENEDETTA MENNUCCI, JACOPO TOMASI
     UNIVERSITY OF MEMPHIS: HENRY KURTZ, PRAKASHAN KORAMBATH
     UNIVERSITY OF ALBERTA: TOBY ZENG, MARIUSZ KLOBUKOWSKI
     UNIVERSITY OF NEW ENGLAND: MARK SPACKMAN
     MIE UNIVERSITY: HIROAKI UMEDA
     NAT. INST. OF ADVANCED INDUSTRIAL SCIENCE AND TECHNOLOGY: KAZUO KITAURA
     MICHIGAN STATE UNIVERSITY:
          KAROL KOWALSKI, MARTA WLOCH, JEFFREY GOUR, JESSE LUTZ,
          WEI LI, JUN SHEN, J. EMILIANO DEUSTUA, PIOTR PIECUCH
     UNIVERSITY OF MINNESOTA:
          ANDREW SAND, PRACHI SHARMA, YINAN SHU
     UNIVERSITY OF SILESIA: MONIKA MUSIAL, STANISLAW KUCHARSKI
     FACULTES UNIVERSITAIRES NOTRE-DAME DE LA PAIX:
          OLIVIER QUINET, BENOIT CHAMPAGNE
     UNIVERSITY OF CALIFORNIA - SANTA BARBARA: BERNARD KIRTMAN
     INSTITUTE FOR MOLECULAR SCIENCE:
          KAZUYA ISHIMURA, MICHIO KATOUDA, AND SHIGERU NAGASE
     UNIVERSITY OF NOTRE DAME: ANNA POMOGAEVA, DAN CHIPMAN
     KYUSHU UNIVERSITY:
          HARUYUKI NAKANO,
          FENG LONG GU, JACEK KORCHOWIEC, MARCIN MAKOWSKI, AND YURIKO AOKI,
          HIROTOSHI MORI AND EISAKU MIYOSHI
     PENNSYLVANIA STATE UNIVERSITY:
          TZVETELIN IORDANOV, CHET SWALINA, JONATHAN SKONE,
          SHARON HAMMES-SCHIFFER
     WASEDA UNIVERSITY:
          MASATO KOBAYASHI, TOMOKO AKAMA, TSUGUKI TOUMA,
          TAKESHI YOSHIKAWA, YASUHIRO IKABATA, JUNJI SEINO,
          YUYA NAKAJIMA, HIROMI NAKAI
     NANJING UNIVERSITY: SHUHUA LI
     UNIVERSITY OF NEBRASKA:
          PEIFENG SU, DEJUN SI, NANDUN THELLAMUREGE, YALI WANG, HUI LI
     UNIVERSITY OF ZURICH: ROBERTO PEVERATI, KIM BALDRIDGE
     N. COPERNICUS UNIVERSITY AND JACKSON STATE UNIVERSITY:
          MARIA BARYSZ
     UNIVERSITY OF COPENHAGEN: Jimmy Kromann, CASPER STEINMANN
     TOKYO INSTITUTE OF TECHNOLOGY: HIROYA NAKATA
     NAGOYA UNIVERSITY: YOSHIO NISHIMOTO, STEPHAN IRLE
     MOSCOW STATE UNIVERSITY: VLADIMIR MIRONOV
     A.N.NESMEYANOV INSTITUTE OF ORGANOELEMENT COMPOUNDS OF RUSSIAN ACADEMY OF SCIENCES:
          IGOR S. GERASIMOV
     JOHANNES KEPLER UNIVERSITY LINZ:
          CHRISTIAN FRIEDL


 PARALLEL VERSION RUNNING ON        6 PROCESSORS IN        1 NODES.

 EXECUTION OF GAMESS BEGUN Mon May 25 19:05:30 2020

            ECHO OF THE FIRST FEW INPUT CARDS -
 INPUT CARD> $BASIS GBASIS=N21 NGAUSS=3 $END                                                
 INPUT CARD> $CONTRL SCFTYP=RHF MAXIT=60 MULT=1 ICHARG=0 $END                               
 INPUT CARD> $SYSTEM MEMDDI=1000 MWORDS=30 $END                                             
 INPUT CARD> $SCF DIRSCF=.TRUE. $END                                                        
 INPUT CARD> $DATA                                                                          
 INPUT CARD>                                                                                
 INPUT CARD>C1                                                                              
 INPUT CARD>C 6.0000000 -1.13361 0.32570 -0.02502                                           
 INPUT CARD>C 6.0000000 -1.74998 -0.94292 -0.04536                                          
 INPUT CARD>O 8.0000000 -3.09732 -1.05307 -0.24638                                          
 INPUT CARD>C 6.0000000 -0.97559 -2.08100 0.14013                                           
 INPUT CARD>C 6.0000000 0.40544 -1.96304 0.34556                                            
 INPUT CARD>C 6.0000000 1.02765 -0.71292 0.36921                                            
 INPUT CARD>C 6.0000000 2.52567 -0.57889 0.60372                                            
 INPUT CARD>C 6.0000000 3.25071 0.12404 -0.51775                                            
 INPUT CARD>C 6.0000000 3.99711 1.22466 -0.37992                                            
 INPUT CARD>C 6.0000000 0.23912 0.43767 0.17693                                             
 INPUT CARD>O 8.0000000 -2.00736 1.37149 -0.22063                                           
 INPUT CARD>C 6.0000000 -1.49346 2.69913 -0.20430                                           
 INPUT CARD>H 1.0000000 -3.45815 -0.15898 -0.35099                                          
 INPUT CARD>H 1.0000000 -1.46083 -3.05190 0.12244                                           
 INPUT CARD>H 1.0000000 0.99800 -2.86242 0.49176                                            
 INPUT CARD>H 1.0000000 2.71610 -0.04401 1.54410                                            
 INPUT CARD>H 1.0000000 2.94544 -1.58622 0.72694                                            
 INPUT CARD>H 1.0000000 3.13518 -0.32129 -1.50695                                           
 INPUT CARD>H 1.0000000 4.13474 1.70220 0.58855                                             
 INPUT CARD>H 1.0000000 4.50102 1.68135 -1.22740                                            
 INPUT CARD>H 1.0000000 0.71545 1.41238 0.18019                                             
 INPUT CARD>H 1.0000000 -0.75324 2.84588 -1.00018                                           
 INPUT CARD>H 1.0000000 -2.34906 3.35397 -0.37550                                           
 INPUT CARD>H 1.0000000 -1.03999 2.93395 0.76655                                            
 INPUT CARD> $END                                                                           
   30000000 WORDS OF MEMORY AVAILABLE

     BASIS OPTIONS
     -------------
     GBASIS=N21          IGAUSS=       3      POLAR=NONE    
     NDFUNC=       0     NFFUNC=       0     DIFFSP=       F
     NPFUNC=       0      DIFFS=       F     BASNAM=        


     RUN TITLE
     ---------
                                                                                 

 THE POINT GROUP OF THE MOLECULE IS C1      
 THE ORDER OF THE PRINCIPAL AXIS IS     0

 ATOM      ATOMIC                      COORDINATES (BOHR)
           CHARGE         X                   Y                   Z
 C           6.0    -2.1422122769        0.6154837542       -0.0472809442
 C           6.0    -3.3069826840       -1.7818604283       -0.0857179708
 O           8.0    -5.8530860963       -1.9900137459       -0.4655906889
 C           6.0    -1.8435977764       -3.9325197804        0.2648073027
 C           6.0     0.7661705045       -3.7096077029        0.6530137123
 C           6.0     1.9419769113       -1.3472234512        0.6977057319
 C           6.0     4.7728242354       -1.0939434770        1.1408653733
 C           6.0     6.1429511655        0.2344016115       -0.9784056301
 C           6.0     7.5534426428        2.3142718281       -0.7179446973
 C           6.0     0.4518712782        0.8270763730        0.3343492190
 O           8.0    -3.7933603587        2.5917402949       -0.4169302447
 C           6.0    -2.8222301736        5.1006161052       -0.3860710193
 H           1.0    -6.5349559244       -0.3004286375       -0.6632749244
 H           1.0    -2.7605684146       -5.7672547419        0.2313780499
 H           1.0     1.8859465357       -5.4091894618        0.9292916517
 H           1.0     5.1326847553       -0.0831668407        2.9179258976
 H           1.0     5.5660745133       -2.9975211562        1.3737174095
 H           1.0     5.9246311222       -0.6071500626       -2.8477225772
 H           1.0     7.8135256305        3.2166915763        1.1121982301
 H           1.0     8.5056944653        3.1772907895       -2.3194496773
 H           1.0     1.3520044579        2.6690111905        0.3405097257
 H           1.0    -1.4234172030        5.3779333939       -1.8900661384
 H           1.0    -4.4390797287        6.3380842710       -0.7095921084
 H           1.0    -1.9652961300        5.5443615617        1.4485694559

          INTERNUCLEAR DISTANCES (ANGS.)
          ------------------------------

                1 C          2 C          3 O          4 C          5 C     

   1 C       0.0000000    1.4105752 *  2.4095983 *  2.4175297 *  2.7828646 *
   2 C       1.4105752 *  0.0000000    1.3666994 *  1.3889969 *  2.4164641 *
   3 O       2.4095983 *  1.3666994 *  0.0000000    2.3890936 *  3.6671196  
   4 C       2.4175297 *  1.3889969 *  2.3890936 *  0.0000000    1.4011995 *
   5 C       2.7828646 *  2.4164641 *  3.6671196    1.4011995 *  0.0000000  
   6 C       2.4300604 *  2.8178000 *  4.1844988    2.4366147 *  1.3966047 *
   7 C       3.8215085    4.3399315    5.7066219    3.8379776    2.5451705 *
   8 C       4.4165271    5.1350225    6.4619436    4.8121325    3.6327357  
   9 C       5.2209550    6.1513720    7.4523033    5.9937956    4.8567320  
  10 C       1.3920161 *  2.4314523 *  3.6787673    2.7965288 *  2.4123654 *
  11 O       1.3767277 *  2.3352639 *  2.6584144 *  3.6213788    4.1546679  
  12 C       2.4072398 *  3.6545304    4.0808262    4.8204216    5.0639902  
  13 H       2.3968015 *  1.9041577 *  0.9698136 *  3.1778080    4.3205488  
  14 H       3.3966158    2.1353129 *  2.6094921 *  1.0855494 *  2.1721792 *
  15 H       3.8697457    3.3947566    4.5376474    2.1515851 *  1.0869159 *
  16 H       4.1736184    4.8249656    6.1660257    4.4439886    3.2339332  
  17 H       4.5672235    4.8017967    6.1438220    3.9954511    2.5959669 *
  18 H       4.5647870    5.1368723    6.4006714    4.7652788    3.6849175  
  19 H       5.4796653    6.4829338    7.7840422    6.3741004    5.2345685  
  20 H       5.9188310    6.8817885    8.1347541    6.7837064    5.7034689  
  21 H       2.1545318 *  3.4171122    4.5604408    3.8813561    3.3936579  
  22 H       2.7289056 *  4.0323910    4.6113704    5.0620048    5.1263308  
  23 H       3.2818553    4.3509945    4.4719757    5.6294931    6.0314006  
  24 H       2.7273276 *  4.0241030    4.5994524    5.0543321    5.1231837  

                6 C          7 C          8 C          9 C         10 C     

   1 C       2.4300604 *  3.8215085    4.4165271    5.2209550    1.3920161 *
   2 C       2.8178000 *  4.3399315    5.1350225    6.1513720    2.4314523 *
   3 O       4.1844988    5.7066219    6.4619436    7.4523033    3.6787673  
   4 C       2.4366147 *  3.8379776    4.8121325    5.9937956    2.7965288 *
   5 C       1.3966047 *  2.5451705 *  3.6327357    4.8567320    2.4123654 *
   6 C       0.0000000    1.5221770 *  2.5355859 *  3.6239626    1.4080513 *
   7 C       1.5221770 *  0.0000000    1.5091350 *  2.5269499 *  2.5384749 *
   8 C       2.5355859 *  1.5091350 *  0.0000000    1.3369646 *  3.1065444  
   9 C       3.6239626    2.5269499 *  1.3369646 *  0.0000000    3.8796809  
  10 C       1.4080513 *  2.5384749 *  3.1065444    3.8796809    0.0000000  
  11 O       3.7288017    5.0031886    5.4121818    6.0083768    2.4651057 *
  12 C       4.2810039    5.2489730    5.4070776    5.6878171    2.8742601 *
  13 H       4.5768919    6.0740347    6.7168975    7.5826248    3.7821285  
  14 H       3.4240700    4.7158871    5.7179583    6.9520098    3.8819966  
  15 H       2.1531948 *  2.7496945 *  3.8746298    5.1438030    3.4008250  
  16 H       2.1630235 *  1.0984875 *  2.1366502 *  2.6367334 *  2.8699476 *
  17 H       2.1374148 *  1.0982275 *  2.1371552 *  3.1987803    3.4238589  
  18 H       2.8486897 *  2.2119647 *  1.0909549 *  2.0983521 *  3.4349142  
  19 H       3.9414367    2.7915422 *  2.1203768 *  1.0885406 *  4.1163482  
  20 H       4.5106531    3.5162043    2.1194557 *  1.0866064 *  4.6564659  
  21 H       2.1564085 *  2.7242302 *  2.9282219 *  3.3344046    1.0848781 *
  22 H       4.2085455    5.0052768    4.8654668    5.0575589    2.8582935 *
  23 H       5.3381980    6.3394994    6.4660735    6.6938669    3.9381036  
  24 H       4.2110183    5.0080425    5.2872608    5.4413640    2.8662149 *

               11 O         12 C         13 H         14 H         15 H     

   1 C       1.3767277 *  2.4072398 *  2.3968015 *  3.3966158    3.8697457  
   2 C       2.3352639 *  3.6545304    1.9041577 *  2.1353129 *  3.3947566  
   3 O       2.6584144 *  4.0808262    0.9698136 *  2.6094921 *  4.5376474  
   4 C       3.6213788    4.8204216    3.1778080    1.0855494 *  2.1515851 *
   5 C       4.1546679    5.0639902    4.3205488    2.1721792 *  1.0869159 *
   6 C       3.7288017    4.2810039    4.5768919    3.4240700    2.1531948 *
   7 C       5.0031886    5.2489730    6.0740347    4.7158871    2.7496945 *
   8 C       5.4121818    5.4070776    6.7168975    5.7179583    3.8746298  
   9 C       6.0083768    5.6878171    7.5826248    6.9520098    5.1438030  
  10 C       2.4651057 *  2.8742601 *  3.7821285    3.8819966    3.4008250  
  11 O       0.0000000    1.4237232 *  2.1128473 *  4.4702093    5.2407711  
  12 C       1.4237232 *  0.0000000    3.4713567    5.7603967    6.1337355  
  13 H       2.1128473 *  3.4713567    0.0000000    3.5471692    5.2797811  
  14 H       4.4702093    5.7603967    3.5471692    0.0000000    2.4936208 *
  15 H       5.2407711    6.1337355    5.2797811    2.4936208 *  0.0000000  
  16 H       5.2372690    5.3199732    6.4595625    5.3399685    3.4644945  
  17 H       5.8460384    6.2398130    6.6486775    4.6828254    2.3401963 *
  18 H       5.5646959    5.6783926    6.6958635    5.5887790    3.8755286  
  19 H       6.2039934    5.7705386    7.8739256    7.3572501    5.5393377  
  20 H       6.5930728    6.1657441    8.2160390    7.7310658    5.9893661  
  21 H       2.7524576 *  2.5851192 *  4.4911314    4.9668225    4.2954424  
  22 H       2.0867058 *  1.0967617 *  4.0947734    6.0452269    6.1544630  
  23 H       2.0176646 *  1.0909520 *  3.6839516    6.4862984    7.1132591  
  24 H       2.0860514 *  1.0969618 *  4.0819860    6.0350960    6.1503510  

               16 H         17 H         18 H         19 H         20 H     

   1 C       4.1736184    4.5672235    4.5647870    5.4796653    5.9188310  
   2 C       4.8249656    4.8017967    5.1368723    6.4829338    6.8817885  
   3 O       6.1660257    6.1438220    6.4006714    7.7840422    8.1347541  
   4 C       4.4439886    3.9954511    4.7652788    6.3741004    6.7837064  
   5 C       3.2339332    2.5959669 *  3.6849175    5.2345685    5.7034689  
   6 C       2.1630235 *  2.1374148 *  2.8486897 *  3.9414367    4.5106531  
   7 C       1.0984875 *  1.0982275 *  2.2119647 *  2.7915422 *  3.5162043  
   8 C       2.1366502 *  2.1371552 *  1.0909549 *  2.1203768 *  2.1194557 *
   9 C       2.6367334 *  3.1987803    2.0983521 *  1.0885406 *  1.0866064 *
  10 C       2.8699476 *  3.4238589    3.4349142    4.1163482    4.6564659  
  11 O       5.2372690    5.8460384    5.5646959    6.2039934    6.5930728  
  12 C       5.3199732    6.2398130    5.6783926    5.7705386    6.1657441  
  13 H       6.4595625    6.6486775    6.6958635    7.8739256    8.2160390  
  14 H       5.3399685    4.6828254    5.5887790    7.3572501    7.7310658  
  15 H       3.4644945    2.3401963 *  3.8755286    5.5393377    5.9893661  
  16 H       0.0000000    1.7603292 *  3.0921543    2.4443536 *  3.7207551  
  17 H       1.7603292 *  0.0000000    2.5741627 *  3.4996132    4.1129415  
  18 H       3.0921543    2.5741627 *  0.0000000    3.0797325    2.4401299 *
  19 H       2.4443536 *  3.4996132    3.0797325    0.0000000    1.8526387 *
  20 H       3.7207551    4.1129415    2.4401299 *  1.8526387 *  0.0000000  
  21 H       2.8255836 *  3.7766907    3.4215707    3.4557630    4.0477395  
  22 H       5.1827739    6.0255031    5.0405944    5.2653979    5.3865580  
  23 H       6.3942926    7.3247922    6.6981045    6.7599851    7.1026043  
  24 H       4.8560315    6.0263719    5.7617215    5.3222855    6.0206009  

               21 H         22 H         23 H         24 H     

   1 C       2.1545318 *  2.7289056 *  3.2818553    2.7273276 *
   2 C       3.4171122    4.0323910    4.3509945    4.0241030  
   3 O       4.5604408    4.6113704    4.4719757    4.5994524  
   4 C       3.8813561    5.0620048    5.6294931    5.0543321  
   5 C       3.3936579    5.1263308    6.0314006    5.1231837  
   6 C       2.1564085 *  4.2085455    5.3381980    4.2110183  
   7 C       2.7242302 *  5.0052768    6.3394994    5.0080425  
   8 C       2.9282219 *  4.8654668    6.4660735    5.2872608  
   9 C       3.3344046    5.0575589    6.6938669    5.4413640  
  10 C       1.0848781 *  2.8582935 *  3.9381036    2.8662149 *
  11 O       2.7524576 *  2.0867058 *  2.0176646 *  2.0860514 *
  12 C       2.5851192 *  1.0967617 *  1.0909520 *  1.0969618 *
  13 H       4.4911314    4.0947734    3.6839516    4.0819860  
  14 H       4.9668225    6.0452269    6.4862984    6.0350960  
  15 H       4.2954424    6.1544630    7.1132591    6.1503510  
  16 H       2.8255836 *  5.1827739    6.3942926    4.8560315  
  17 H       3.7766907    6.0255031    7.3247922    6.0263719  
  18 H       3.4215707    5.0405944    6.6981045    5.7617215  
  19 H       3.4557630    5.2653979    6.7599851    5.3222855  
  20 H       4.0477395    5.3865580    7.1026043    6.0206009  
  21 H       0.0000000    2.3675401 *  3.6701205    2.3959472 *
  22 H       2.3675401 *  0.0000000    1.7874625 *  1.7920147 *
  23 H       3.6701205    1.7874625 *  0.0000000    1.7872771 *
  24 H       2.3959472 *  1.7920147 *  1.7872771 *  0.0000000  

  * ... LESS THAN  3.000


     ATOMIC BASIS SET
     ----------------
 THE CONTRACTED PRIMITIVE FUNCTIONS HAVE BEEN UNNORMALIZED
 THE CONTRACTED BASIS FUNCTIONS ARE NOW NORMALIZED TO UNITY

  SHELL TYPE  PRIMITIVE        EXPONENT          CONTRACTION COEFFICIENT(S)

 C         

      1   S       1           172.2560000    0.061766907377
      1   S       2            25.9109000    0.358794042852
      1   S       3             5.5333500    0.700713083689

      2   L       4             3.6649800   -0.395895162119    0.236459946619
      2   L       5             0.7705450    1.215834355681    0.860618805716

      3   L       6             0.1958570    1.000000000000    1.000000000000

 C         

      4   S       7           172.2560000    0.061766907377
      4   S       8            25.9109000    0.358794042852
      4   S       9             5.5333500    0.700713083689

      5   L      10             3.6649800   -0.395895162119    0.236459946619
      5   L      11             0.7705450    1.215834355681    0.860618805716

      6   L      12             0.1958570    1.000000000000    1.000000000000

 O         

      7   S      13           322.0370000    0.059239393389
      7   S      14            48.4308000    0.351499960776
      7   S      15            10.4206000    0.707657921031

      8   L      16             7.4029400   -0.404453583190    0.244586106967
      8   L      17             1.5762000    1.221561761397    0.853955373466

      9   L      18             0.3736840    1.000000000000    1.000000000000

 C         

     10   S      19           172.2560000    0.061766907377
     10   S      20            25.9109000    0.358794042852
     10   S      21             5.5333500    0.700713083689

     11   L      22             3.6649800   -0.395895162119    0.236459946619
     11   L      23             0.7705450    1.215834355681    0.860618805716

     12   L      24             0.1958570    1.000000000000    1.000000000000

 C         

     13   S      25           172.2560000    0.061766907377
     13   S      26            25.9109000    0.358794042852
     13   S      27             5.5333500    0.700713083689

     14   L      28             3.6649800   -0.395895162119    0.236459946619
     14   L      29             0.7705450    1.215834355681    0.860618805716

     15   L      30             0.1958570    1.000000000000    1.000000000000

 C         

     16   S      31           172.2560000    0.061766907377
     16   S      32            25.9109000    0.358794042852
     16   S      33             5.5333500    0.700713083689

     17   L      34             3.6649800   -0.395895162119    0.236459946619
     17   L      35             0.7705450    1.215834355681    0.860618805716

     18   L      36             0.1958570    1.000000000000    1.000000000000

 C         

     19   S      37           172.2560000    0.061766907377
     19   S      38            25.9109000    0.358794042852
     19   S      39             5.5333500    0.700713083689

     20   L      40             3.6649800   -0.395895162119    0.236459946619
     20   L      41             0.7705450    1.215834355681    0.860618805716

     21   L      42             0.1958570    1.000000000000    1.000000000000

 C         

     22   S      43           172.2560000    0.061766907377
     22   S      44            25.9109000    0.358794042852
     22   S      45             5.5333500    0.700713083689

     23   L      46             3.6649800   -0.395895162119    0.236459946619
     23   L      47             0.7705450    1.215834355681    0.860618805716

     24   L      48             0.1958570    1.000000000000    1.000000000000

 C         

     25   S      49           172.2560000    0.061766907377
     25   S      50            25.9109000    0.358794042852
     25   S      51             5.5333500    0.700713083689

     26   L      52             3.6649800   -0.395895162119    0.236459946619
     26   L      53             0.7705450    1.215834355681    0.860618805716

     27   L      54             0.1958570    1.000000000000    1.000000000000

 C         

     28   S      55           172.2560000    0.061766907377
     28   S      56            25.9109000    0.358794042852
     28   S      57             5.5333500    0.700713083689

     29   L      58             3.6649800   -0.395895162119    0.236459946619
     29   L      59             0.7705450    1.215834355681    0.860618805716

     30   L      60             0.1958570    1.000000000000    1.000000000000

 O         

     31   S      61           322.0370000    0.059239393389
     31   S      62            48.4308000    0.351499960776
     31   S      63            10.4206000    0.707657921031

     32   L      64             7.4029400   -0.404453583190    0.244586106967
     32   L      65             1.5762000    1.221561761397    0.853955373466

     33   L      66             0.3736840    1.000000000000    1.000000000000

 C         

     34   S      67           172.2560000    0.061766907377
     34   S      68            25.9109000    0.358794042852
     34   S      69             5.5333500    0.700713083689

     35   L      70             3.6649800   -0.395895162119    0.236459946619
     35   L      71             0.7705450    1.215834355681    0.860618805716

     36   L      72             0.1958570    1.000000000000    1.000000000000

 H         

     37   S      73             5.4471780    0.156284978695
     37   S      74             0.8245472    0.904690876670

     38   S      75             0.1831916    1.000000000000

 H         

     39   S      76             5.4471780    0.156284978695
     39   S      77             0.8245472    0.904690876670

     40   S      78             0.1831916    1.000000000000

 H         

     41   S      79             5.4471780    0.156284978695
     41   S      80             0.8245472    0.904690876670

     42   S      81             0.1831916    1.000000000000

 H         

     43   S      82             5.4471780    0.156284978695
     43   S      83             0.8245472    0.904690876670

     44   S      84             0.1831916    1.000000000000

 H         

     45   S      85             5.4471780    0.156284978695
     45   S      86             0.8245472    0.904690876670

     46   S      87             0.1831916    1.000000000000

 H         

     47   S      88             5.4471780    0.156284978695
     47   S      89             0.8245472    0.904690876670

     48   S      90             0.1831916    1.000000000000

 H         

     49   S      91             5.4471780    0.156284978695
     49   S      92             0.8245472    0.904690876670

     50   S      93             0.1831916    1.000000000000

 H         

     51   S      94             5.4471780    0.156284978695
     51   S      95             0.8245472    0.904690876670

     52   S      96             0.1831916    1.000000000000

 H         

     53   S      97             5.4471780    0.156284978695
     53   S      98             0.8245472    0.904690876670

     54   S      99             0.1831916    1.000000000000

 H         

     55   S     100             5.4471780    0.156284978695
     55   S     101             0.8245472    0.904690876670

     56   S     102             0.1831916    1.000000000000

 H         

     57   S     103             5.4471780    0.156284978695
     57   S     104             0.8245472    0.904690876670

     58   S     105             0.1831916    1.000000000000

 H         

     59   S     106             5.4471780    0.156284978695
     59   S     107             0.8245472    0.904690876670

     60   S     108             0.1831916    1.000000000000

 TOTAL NUMBER OF BASIS SET SHELLS             =   60
 NUMBER OF CARTESIAN GAUSSIAN BASIS FUNCTIONS =  132
 NUMBER OF ELECTRONS                          =   88
 CHARGE OF MOLECULE                           =    0
 SPIN MULTIPLICITY                            =    1
 NUMBER OF OCCUPIED ORBITALS (ALPHA)          =   44
 NUMBER OF OCCUPIED ORBITALS (BETA )          =   44
 TOTAL NUMBER OF ATOMS                        =   24
 THE NUCLEAR REPULSION ENERGY IS      668.4306035993

     $CONTRL OPTIONS
     ---------------
 SCFTYP=RHF          RUNTYP=ENERGY       EXETYP=RUN     
 MPLEVL=       0     CITYP =NONE         CCTYP =NONE         VBTYP =NONE    
 DFTTYP=NONE         TDDFT =NONE    
 MULT  =       1     ICHARG=       0     NZVAR =       0     COORD =UNIQUE  
 PP    =NONE         RELWFN=NONE         LOCAL =NONE         NUMGRD=       F
 ISPHER=      -1     NOSYM =       0     MAXIT =      60     UNITS =ANGS    
 PLTORB=       F     MOLPLT=       F     AIMPAC=       F     FRIEND=        
 NPRINT=       7     IREST =       0     GEOM  =INPUT   
 NORMF =       0     NORMP =       0     ITOL  =      20     ICUT  =       9
 INTTYP=BEST         GRDTYP=BEST         QMTTOL= 1.0E-06

     $SYSTEM OPTIONS
     ---------------
  REPLICATED MEMORY=    30000000 WORDS (ON EVERY NODE).
 DISTRIBUTED MEMDDI=        1000 MILLION WORDS IN AGGREGATE,
 MEMDDI DISTRIBUTED OVER   6 PROCESSORS IS   166666666 WORDS/PROCESSOR.
 TOTAL MEMORY REQUESTED ON EACH PROCESSOR=   196666666 WORDS.
 TIMLIM=      525600.00 MINUTES, OR     365.0 DAYS.
 PARALL= T  BALTYP=  DLB     KDIAG=    0  COREFL= F
 MXSEQ2=     300 MXSEQ3=     150  mem10=         0

          ----------------
          PROPERTIES INPUT
          ----------------

     MOMENTS            FIELD           POTENTIAL          DENSITY
 IEMOM =       1   IEFLD =       0   IEPOT =       0   IEDEN =       0
 WHERE =COMASS     WHERE =NUCLEI     WHERE =NUCLEI     WHERE =NUCLEI  
 OUTPUT=BOTH       OUTPUT=BOTH       OUTPUT=BOTH       OUTPUT=BOTH    
 IEMINT=       0   IEFINT=       0                     IEDINT=       0
                                                       MORB  =       0
          EXTRAPOLATION IN EFFECT
          SOSCF IN EFFECT
 ORBITAL PRINTING OPTION: NPREO=     1   132     2     1

     -------------------------------
     INTEGRAL TRANSFORMATION OPTIONS
     -------------------------------
     NWORD  =            0
     CUTOFF = 1.0E-09     MPTRAN =       0
     DIRTRF =       T     AOINTS =DUP     

          ----------------------
          INTEGRAL INPUT OPTIONS
          ----------------------
 NOPK  =       1 NORDER=       0 SCHWRZ=       T

     ------------------------------------------
     THE POINT GROUP IS C1 , NAXIS= 0, ORDER= 1
     ------------------------------------------

     DIMENSIONS OF THE SYMMETRY SUBSPACES ARE
 A   =  132

 ..... DONE SETTING UP THE RUN .....
 CPU     0: STEP CPU TIME=     0.03 TOTAL CPU TIME=          0.0 (      0.0 MIN)
 TOTAL WALL CLOCK TIME=          0.0 SECONDS, CPU UTILIZATION IS    75.00%

          ********************
          1 ELECTRON INTEGRALS
          ********************
 ...... END OF ONE-ELECTRON INTEGRALS ......
 CPU     0: STEP CPU TIME=     0.01 TOTAL CPU TIME=          0.0 (      0.0 MIN)
 TOTAL WALL CLOCK TIME=          0.1 SECONDS, CPU UTILIZATION IS    66.67%

          -------------
          GUESS OPTIONS
          -------------
          GUESS =HUCKEL            NORB  =       0          NORDER=       0
          MIX   =       F          PRTMO =       F          PUNMO =       F
          TOLZ  = 1.0E-08          TOLE  = 1.0E-05
          SYMDEN=       F          PURIFY=       F

 INITIAL GUESS ORBITALS GENERATED BY HUCKEL   ROUTINE.
 HUCKEL GUESS REQUIRES    164928 WORDS.

 SYMMETRIES FOR INITIAL GUESS ORBITALS FOLLOW.   BOTH SET(S).
    44 ORBITALS ARE OCCUPIED (   12 CORE ORBITALS).
    13=A       14=A       15=A       16=A       17=A       18=A       19=A   
    20=A       21=A       22=A       23=A       24=A       25=A       26=A   
    27=A       28=A       29=A       30=A       31=A       32=A       33=A   
    34=A       35=A       36=A       37=A       38=A       39=A       40=A   
    41=A       42=A       43=A       44=A       45=A       46=A       47=A   
    48=A       49=A       50=A       51=A       52=A       53=A       54=A   
 ...... END OF INITIAL ORBITAL SELECTION ......
 CPU     0: STEP CPU TIME=     0.03 TOTAL CPU TIME=          0.1 (      0.0 MIN)
 TOTAL WALL CLOCK TIME=          0.1 SECONDS, CPU UTILIZATION IS    58.33%

                    ----------------------
                    AO INTEGRAL TECHNOLOGY
                    ----------------------
     S,P,L SHELL ROTATED AXIS INTEGRALS, REPROGRAMMED BY
        KAZUYA ISHIMURA (IMS) AND JOSE SIERRA (SYNSTAR).
     S,P,D,L SHELL ROTATED AXIS INTEGRALS PROGRAMMED BY
        KAZUYA ISHIMURA (INSTITUTE FOR MOLECULAR SCIENCE).
     S,P,D,F,G SHELL TO TOTAL QUARTET ANGULAR MOMENTUM SUM 5,
        ERIC PROGRAM BY GRAHAM FLETCHER (ELORET AND NASA ADVANCED
        SUPERCOMPUTING DIVISION, AMES RESEARCH CENTER).
     S,P,D,F,G,L SHELL GENERAL RYS QUADRATURE PROGRAMMED BY
        MICHEL DUPUIS (PACIFIC NORTHWEST NATIONAL LABORATORY).

          --------------------
          2 ELECTRON INTEGRALS
          --------------------

 DIRECT SCF METHOD SKIPS INTEGRAL STORAGE ON DISK.
 DIRECT TRANSFORMATION SKIPS AO INTEGRAL STORAGE ON DISK.
  ...... END OF TWO-ELECTRON INTEGRALS .....
 CPU     0: STEP CPU TIME=     0.02 TOTAL CPU TIME=          0.1 (      0.0 MIN)
 TOTAL WALL CLOCK TIME=          0.1 SECONDS, CPU UTILIZATION IS    64.29%

          --------------------------
                 RHF SCF CALCULATION
          --------------------------

     NUCLEAR ENERGY =       668.4306035993
     MAXIT =   60     NPUNCH=    2
     EXTRAP=T  DAMP=F  SHIFT=F  RSTRCT=F  DIIS=F  DEM=F  SOSCF=T
     DENSITY MATRIX CONV=  2.00E-05
     SOSCF WILL OPTIMIZE    3872 ORBITAL ROTATIONS, SOGTOL=   0.250
     MEMORY REQUIRED FOR RHF ITERS=    187320 WORDS.

 DIRECT SCF CALCULATION, SCHWRZ=T   FDIFF=T,  DIRTHR=  0.00E+00 NITDIR=10
 SCHWARZ INEQUALITY OVERHEAD:      8014 INTEGRALS, T=        0.01

                                                                                   NONZERO     BLOCKS
 ITER EX DEM     TOTAL ENERGY        E CHANGE  DENSITY CHANGE     ORB. GRAD      INTEGRALS    SKIPPED
   1  0  0     -531.2021636239  -531.2021636239   0.659131439   0.000000000       19875864     989393
          ---------------START SECOND ORDER SCF---------------
   2  1  0     -532.3263975934    -1.1242339694   0.138457756   0.047404766       19827763    1009599
   3  2  0     -532.3755894830    -0.0491918896   0.070406889   0.013592318       19598707    1053728
   4  3  0     -532.3821886728    -0.0065991898   0.009047805   0.004136961       19313023    1085034
   5  4  0     -532.3826323195    -0.0004436467   0.002556593   0.000965933       18401649    1143552
   6  5  0     -532.3826723382    -0.0000400187   0.001075500   0.000396500       17581637    1181451
   7  6  0     -532.3826777879    -0.0000054497   0.000491122   0.000124629       16867784    1214827
   8  7  0     -532.3826784306    -0.0000006427   0.000169623   0.000063383       15922058    1249434
   9  8  0     -532.3826785585    -0.0000001279   0.000111391   0.000031250       15048258    1282204
  10  9  0     -532.3826785931    -0.0000000346   0.000030057   0.000009558       14679001    1296912
  11 10  0     -532.3826785970    -0.0000000040   0.000017774   0.000003714       13421890    1335415
  12 11  0     -532.3826785980    -0.0000000010   0.000002994   0.000001355       12663290    1356213

          -----------------
          DENSITY CONVERGED
          -----------------
     TIME TO FORM FOCK OPERATORS=       3.0 SECONDS (       0.3 SEC/ITER)
     FOCK TIME ON FIRST ITERATION=       0.3, LAST ITERATION=       0.2
     TIME TO SOLVE SCF EQUATIONS=       0.1 SECONDS (       0.0 SEC/ITER)

 FINAL RHF ENERGY IS     -532.3826785980 AFTER  12 ITERATIONS

          ------------
          EIGENVECTORS
          ------------

                      1          2          3          4          5
                  -20.4955   -20.4659   -11.2502   -11.2437   -11.2416
                     A          A          A          A          A   
    1  C  1  S   -0.000067  -0.000239   0.986103   0.047903   0.010960
    2  C  1  S    0.001691  -0.001712   0.099720  -0.000285   0.000356
    3  C  1  X    0.000033  -0.001008   0.000445   0.000343  -0.000444
    4  C  1  Y    0.000497   0.000076  -0.000592   0.001603  -0.001723
    5  C  1  Z   -0.000019  -0.000158   0.000103  -0.000039   0.000025
    6  C  1  S   -0.003399   0.022553  -0.095342   0.043424  -0.003315
    7  C  1  X   -0.025877   0.025683  -0.023272   0.005118   0.006885
    8  C  1  Y    0.028973  -0.014999   0.031344  -0.030090   0.017183
    9  C  1  Z   -0.005694   0.004815  -0.005394   0.002546   0.000079
   10  C  2  S   -0.000181  -0.000036  -0.049420   0.985102   0.044729
   11  C  2  S   -0.001447   0.001985  -0.009780   0.099355   0.003054
   12  C  2  X   -0.000288  -0.000307  -0.000835   0.001020  -0.000114
   13  C  2  Y    0.000616  -0.000301  -0.001078   0.000195   0.000278
   14  C  2  Z   -0.000084  -0.000029  -0.000067   0.000142  -0.000031
   15  C  2  S    0.016683  -0.004598   0.044785  -0.094687   0.012141
   16  C  2  X    0.022279  -0.044547   0.026029  -0.039596   0.006101
   17  C  2  Y   -0.006552   0.003819   0.013764  -0.004315   0.007730
   18  C  2  Z    0.003823  -0.007071   0.003194  -0.005823   0.000470
   19  O  3  S   -0.009670   0.983836  -0.000118   0.000283  -0.000036
   20  O  3  S   -0.002459   0.101477  -0.001235   0.003050  -0.000351
   21  O  3  X   -0.000282   0.003154  -0.000342   0.000853  -0.000038
   22  O  3  Y    0.000132   0.002765   0.000248   0.000025   0.000123
   23  O  3  Z   -0.000050   0.000333  -0.000066   0.000131  -0.000014
   24  O  3  S    0.008430  -0.060982   0.005889  -0.008476   0.001765
   25  O  3  X    0.003273  -0.013566   0.002033  -0.004890   0.000343
   26  O  3  Y    0.000203  -0.006407  -0.001878  -0.000223  -0.000816
   27  O  3  Z    0.000488  -0.001733   0.000421  -0.000745   0.000105
   28  C  4  S    0.000187  -0.000316  -0.000889  -0.004250   0.000012
   29  C  4  S    0.000662  -0.001700   0.000182  -0.005494   0.000019
   30  C  4  X    0.000375  -0.001076   0.000545  -0.000014   0.000361
   31  C  4  Y   -0.000793  -0.000118  -0.001130  -0.001687  -0.000226
   32  C  4  Z    0.000102  -0.000158   0.000147   0.000098   0.000069
   33  C  4  S   -0.020693   0.028007  -0.018979   0.045942  -0.001707
   34  C  4  X   -0.002506   0.014872  -0.007756   0.005973  -0.003507
   35  C  4  Y   -0.009567   0.020677  -0.009304   0.030406  -0.001606
   36  C  4  Z    0.000177   0.001072  -0.000638  -0.000870  -0.000448
   37  C  5  S   -0.000159   0.000255  -0.001499  -0.000619  -0.000312
   38  C  5  S   -0.000814   0.001028  -0.001369   0.000546  -0.000256
   39  C  5  X    0.000187   0.000780   0.000287   0.001267  -0.000078
   40  C  5  Y   -0.000210  -0.000072  -0.000328  -0.000090  -0.000158
   41  C  5  Z    0.000044   0.000122   0.000066   0.000197  -0.000006
   42  C  5  S    0.009901  -0.023079   0.015128  -0.022290   0.002323
   43  C  5  X   -0.006791   0.009301  -0.008360   0.007886  -0.001302
   44  C  5  Y    0.006435  -0.008199   0.007289  -0.010753  -0.000047
   45  C  5  Z   -0.001431   0.001922  -0.001724   0.001860  -0.000179
   46  C  6  S    0.000261  -0.000190  -0.000377  -0.001567  -0.000979
   47  C  6  S    0.001122  -0.000900   0.000796  -0.001224  -0.000436
   48  C  6  X    0.000388   0.000521   0.000687   0.000677   0.000462
   49  C  6  Y   -0.000243   0.000096  -0.000536   0.000038  -0.000118
   50  C  6  Z    0.000060   0.000082   0.000122   0.000111   0.000094
   51  C  6  S   -0.021289   0.012610  -0.021714   0.015375  -0.001409
   52  C  6  X    0.011990  -0.012895   0.013170  -0.013744  -0.002281
   53  C  6  Y   -0.006654  -0.001380  -0.004229  -0.001376  -0.000270
   54  C  6  Z    0.002251  -0.001948   0.002309  -0.002086  -0.000374
   55  C  7  S   -0.000020  -0.000044  -0.001332  -0.000513  -0.000304
   56  C  7  S   -0.000161  -0.000148  -0.000935  -0.000505  -0.000274
   57  C  7  X    0.000085  -0.000350   0.000339  -0.000218  -0.000042
   58  C  7  Y   -0.000078   0.000050  -0.000334  -0.000044   0.000088
   59  C  7  Z   -0.000027  -0.000064   0.000070  -0.000021   0.000005
   60  C  7  S   -0.001952   0.005112  -0.001127   0.005801   0.001968
   61  C  7  X    0.000893  -0.001763  -0.000079  -0.002339  -0.001014
   62  C  7  Y    0.002116  -0.000514   0.003108  -0.000041  -0.000655
   63  C  7  Z    0.000407  -0.000285   0.000046  -0.000473  -0.000264
   64  C  8  S    0.000011   0.000004  -0.000582  -0.000229  -0.000017
   65  C  8  S    0.000039   0.000015  -0.000268  -0.000110  -0.000008
   66  C  8  X    0.000091  -0.000013   0.000238   0.000043  -0.000018
   67  C  8  Y    0.000126   0.000072   0.000055   0.000044   0.000001
   68  C  8  Z    0.000060   0.000001  -0.000031  -0.000038  -0.000028
   69  C  8  S   -0.000578  -0.000375  -0.000176  -0.000213   0.000127
   70  C  8  X   -0.000389   0.000068  -0.000200   0.000182   0.000262
   71  C  8  Y   -0.000900  -0.000198  -0.000423   0.000007   0.000290
   72  C  8  Z   -0.000793  -0.000264  -0.000730  -0.000258   0.000201
   73  C  9  S    0.000005  -0.000007   0.000166  -0.000039   0.000039
   74  C  9  S    0.000074  -0.000044   0.000125  -0.000027   0.000028
   75  C  9  X   -0.000113  -0.000008  -0.000089  -0.000001  -0.000013
   76  C  9  Y   -0.000043   0.000001  -0.000042   0.000001   0.000029
   77  C  9  Z    0.000049  -0.000016   0.000062  -0.000011  -0.000011
   78  C  9  S    0.000752   0.000285   0.000229   0.000053  -0.000342
   79  C  9  X    0.000008  -0.000135   0.000207  -0.000047   0.000107
   80  C  9  Y   -0.000230  -0.000135   0.000031  -0.000013   0.000079
   81  C  9  Z   -0.000087   0.000175  -0.000139   0.000161   0.000044
   82  C 10  S   -0.000284   0.000278  -0.004494  -0.001248  -0.000220
   83  C 10  S   -0.001504   0.001112  -0.005723  -0.000026   0.000211
   84  C 10  X   -0.000587   0.000829   0.001239   0.001100   0.000418
   85  C 10  Y    0.001185   0.000174   0.001108   0.000380  -0.000245
   86  C 10  Z   -0.000168   0.000127   0.000114   0.000159   0.000073
   87  C 10  S    0.026458  -0.026604   0.050372  -0.016624  -0.006503
   88  C 10  X   -0.003162   0.010861  -0.019438   0.004692   0.002835
   89  C 10  Y   -0.024972   0.010184  -0.024117   0.012386  -0.003336
   90  C 10  Z    0.001110   0.000989  -0.001438  -0.000084   0.000649
   91  O 11  S    0.983845   0.009269   0.000258  -0.000069  -0.000024
   92  O 11  S    0.101728  -0.000535   0.002897  -0.000848   0.000806
   93  O 11  X    0.003638  -0.000300   0.000627  -0.000151   0.000883
   94  O 11  Y   -0.000138   0.000047  -0.001023   0.000279   0.000845
   95  O 11  Z    0.000599  -0.000045   0.000158  -0.000036   0.000094
   96  O 11  S   -0.060914   0.008713  -0.007852   0.004088   0.002909
   97  O 11  X   -0.011434   0.002402  -0.003274   0.001422  -0.003041
   98  O 11  Y    0.004316  -0.003017   0.004749  -0.001514   0.000715
   99  O 11  Z   -0.002074   0.000531  -0.000788   0.000287  -0.000497
  100  C 12  S   -0.000506  -0.000068  -0.008839  -0.045627   0.986116
  101  C 12  S   -0.001338  -0.000585  -0.001431  -0.005710   0.098993
  102  C 12  X   -0.000717   0.000041  -0.000182  -0.000201   0.000283
  103  C 12  Y   -0.002215   0.000357   0.000610   0.000418  -0.001189
  104  C 12  Z    0.000001  -0.000014  -0.000060  -0.000053   0.000110
  105  C 12  S    0.011623   0.001325   0.000123   0.006221  -0.066721
  106  C 12  X   -0.001125  -0.000329   0.002320   0.001621  -0.003129
  107  C 12  Y   -0.004332  -0.001542  -0.001101  -0.002991  -0.000579
  108  C 12  Z    0.000012   0.000048   0.000420   0.000419  -0.000500
  109  H 13  S   -0.000804   0.003682  -0.000024   0.000157   0.000317
  110  H 13  S    0.002243   0.003639   0.001327  -0.000103  -0.000184
  111  H 14  S   -0.000230   0.001785  -0.000634   0.000665  -0.000368
  112  H 14  S   -0.001380   0.007523  -0.001457   0.008049  -0.000626
  113  H 15  S    0.000574  -0.000329   0.000434  -0.000598  -0.000066
  114  H 15  S    0.002447  -0.002048   0.002756  -0.001960   0.000131
  115  H 16  S   -0.000177  -0.000105  -0.000384  -0.000197  -0.000013
  116  H 16  S   -0.000464  -0.000054  -0.000480  -0.000071   0.000094
  117  H 17  S    0.000218  -0.000109   0.000213  -0.000105  -0.000177
  118  H 17  S    0.000508  -0.000595   0.001287  -0.000253  -0.000179
  119  H 18  S   -0.000109  -0.000020  -0.000102  -0.000016   0.000036
  120  H 18  S   -0.000480  -0.000095  -0.000446  -0.000090   0.000142
  121  H 19  S    0.000043  -0.000043   0.000067  -0.000033   0.000006
  122  H 19  S   -0.000074  -0.000032  -0.000078  -0.000038   0.000003
  123  H 20  S   -0.000022   0.000015  -0.000015   0.000019   0.000012
  124  H 20  S   -0.000101   0.000078  -0.000177   0.000046   0.000023
  125  H 21  S    0.001865  -0.000299   0.000662  -0.000640   0.000443
  126  H 21  S    0.006951  -0.002873   0.007159  -0.003217   0.001485
  127  H 22  S   -0.001004  -0.000221  -0.000324  -0.000473  -0.000221
  128  H 22  S   -0.001686   0.000479  -0.000601  -0.000773   0.014339
  129  H 23  S   -0.000953  -0.000081   0.000502   0.000112  -0.000849
  130  H 23  S   -0.001035   0.000155   0.000966   0.000488   0.012701
  131  H 24  S   -0.001001  -0.000222  -0.000347  -0.000467  -0.000217
  132  H 24  S   -0.001661   0.000447  -0.000521  -0.000800   0.014356

                      6          7          8          9         10
                  -11.1902   -11.1847   -11.1844   -11.1815   -11.1788
                     A          A          A          A          A   
    1  C  1  S    0.000646   0.000101   0.003486   0.001199   0.001096
    2  C  1  S    0.000368   0.000368  -0.004401  -0.000880  -0.001089
    3  C  1  X   -0.000561  -0.000050  -0.001730  -0.000576  -0.000283
    4  C  1  Y    0.000230  -0.000058   0.000016   0.000041   0.000138
    5  C  1  Z   -0.000084  -0.000141  -0.000280  -0.000056  -0.000051
    6  C  1  S   -0.009393  -0.005639   0.039887   0.004489   0.015547
    7  C  1  X   -0.004605  -0.000903   0.024892   0.006519   0.008779
    8  C  1  Y    0.005290   0.003374  -0.007907   0.000369  -0.006266
    9  C  1  Z   -0.001130   0.000402   0.004350   0.000679   0.001700
   10  C  2  S    0.001167   0.000010   0.001359   0.000335   0.000663
   11  C  2  S   -0.000643  -0.000208   0.000165  -0.000131   0.000874
   12  C  2  X   -0.000151   0.000059  -0.000468  -0.000099  -0.000483
   13  C  2  Y    0.000049   0.000014  -0.000753  -0.000154   0.000403
   14  C  2  Z   -0.000031   0.000022  -0.000022  -0.000025  -0.000098
   15  C  2  S    0.009838   0.004120  -0.010716   0.000010  -0.019699
   16  C  2  X    0.006109   0.001766  -0.008489  -0.001725  -0.012436
   17  C  2  Y   -0.001410   0.001429   0.002089   0.002377   0.003486
   18  C  2  Z    0.001038   0.000019  -0.001455  -0.000298  -0.002112
   19  O  3  S   -0.000028  -0.000000   0.000024   0.000014   0.000029
   20  O  3  S   -0.000249  -0.000003   0.000120   0.000092   0.000194
   21  O  3  X   -0.000030   0.000011  -0.000170  -0.000039  -0.000119
   22  O  3  Y    0.000000   0.000027  -0.000110   0.000008   0.000193
   23  O  3  Z   -0.000003  -0.000007  -0.000022  -0.000001  -0.000029
   24  O  3  S    0.001381   0.000155  -0.001819  -0.000703  -0.002068
   25  O  3  X    0.000329  -0.000051   0.000200  -0.000086   0.000121
   26  O  3  Y    0.000127  -0.000187   0.000222  -0.000207  -0.001103
   27  O  3  Z    0.000037   0.000040   0.000025  -0.000028   0.000081
   28  C  4  S   -0.003577   0.000203  -0.008458  -0.011068  -0.109948
   29  C  4  S   -0.000136   0.000174  -0.001707  -0.001596  -0.015679
   30  C  4  X   -0.000730  -0.000161  -0.000117  -0.000391  -0.001406
   31  C  4  Y   -0.000128   0.000028  -0.000239  -0.000166  -0.000862
   32  C  4  Z   -0.000125   0.000009   0.000005  -0.000078  -0.000166
   33  C  4  S   -0.009823  -0.003920   0.013462   0.001223   0.050886
   34  C  4  X   -0.000899  -0.001873   0.003373  -0.000202   0.018303
   35  C  4  Y   -0.007822  -0.001951   0.006603   0.001772   0.019783
   36  C  4  Z    0.000417  -0.000407   0.000090  -0.000070   0.001660
   37  C  5  S   -0.017714  -0.005686  -0.012954  -0.043813   0.980213
   38  C  5  S   -0.005738  -0.001145  -0.001395  -0.005204   0.099564
   39  C  5  X   -0.000452   0.000157  -0.000289  -0.000575  -0.001054
   40  C  5  Y   -0.001492  -0.000023  -0.001018  -0.000290   0.001095
   41  C  5  Z    0.000083  -0.000197  -0.000014   0.000024  -0.000215
   42  C  5  S    0.032951   0.007236  -0.009984   0.005425  -0.100769
   43  C  5  X    0.001809  -0.003418   0.007696  -0.002171   0.015566
   44  C  5  Y    0.020000   0.004602  -0.005643   0.003085  -0.024959
   45  C  5  Z   -0.001082  -0.000081   0.001615  -0.000565   0.003842
   46  C  6  S    0.986177   0.025661   0.040402   0.003440   0.017201
   47  C  6  S    0.100776   0.001947   0.000135  -0.000923  -0.002502
   48  C  6  X   -0.000306  -0.001426   0.001520  -0.000616   0.001438
   49  C  6  Y    0.000240  -0.000398  -0.001196   0.000174   0.001405
   50  C  6  Z   -0.000214   0.000119   0.000366  -0.000169   0.000145
   51  C  6  S   -0.096050  -0.006795   0.029708   0.016583   0.037608
   52  C  6  X    0.014447   0.013225  -0.026160   0.022338  -0.025225
   53  C  6  Y   -0.000041  -0.001140   0.012183  -0.000427  -0.017352
   54  C  6  Z    0.002150   0.002022  -0.004810   0.002511  -0.002991
   55  C  7  S   -0.002770  -0.014955  -0.034215   0.986359   0.041615
   56  C  7  S   -0.000719  -0.002407  -0.004685   0.105443   0.003353
   57  C  7  X    0.000042  -0.000102   0.000046  -0.000153  -0.000095
   58  C  7  Y    0.000079  -0.000241  -0.000062  -0.000030   0.000127
   59  C  7  Z   -0.000057  -0.000070   0.000100  -0.000355  -0.000014
   60  C  7  S    0.005179   0.011706   0.014041  -0.101314   0.005683
   61  C  7  X   -0.008143   0.011008  -0.003984   0.005321  -0.004217
   62  C  7  Y   -0.002355   0.008958  -0.002371  -0.001434   0.001722
   63  C  7  Z    0.002586  -0.004855  -0.001827   0.007971  -0.000456
   64  C  8  S   -0.031052   0.978409   0.125785   0.018412   0.007294
   65  C  8  S   -0.004388   0.097698   0.012353   0.000249   0.000303
   66  C  8  X    0.001163  -0.000170   0.000211  -0.000098   0.000128
   67  C  8  Y    0.000781   0.000420   0.000038   0.000074   0.000082
   68  C  8  Z   -0.000214   0.000910   0.000023  -0.000199  -0.000157
   69  C  8  S    0.003752  -0.077768  -0.009546   0.017526   0.000404
   70  C  8  X   -0.005669  -0.002639   0.000135  -0.010169  -0.000375
   71  C  8  Y   -0.005662  -0.007118   0.000314  -0.009701  -0.000497
   72  C  8  Z    0.002583  -0.010604  -0.000561   0.012533   0.000220
   73  C  9  S   -0.001469  -0.000536   0.001075  -0.011286   0.000156
   74  C  9  S   -0.000397  -0.004080  -0.000279  -0.002085   0.000018
   75  C  9  X   -0.000267   0.001188   0.000028   0.000484  -0.000029
   76  C  9  Y    0.000001   0.001644   0.000338   0.000500   0.000016
   77  C  9  Z    0.000149  -0.000069  -0.000030  -0.000183   0.000039
   78  C  9  S    0.004646   0.028496   0.002379   0.005522   0.000254
   79  C  9  X   -0.000271  -0.009576  -0.000547  -0.001286   0.000160
   80  C  9  Y   -0.002381  -0.012422  -0.001469  -0.002725  -0.000041
   81  C  9  Z   -0.002039   0.003387   0.000487  -0.003429  -0.000274
   82  C 10  S   -0.037906  -0.127618   0.977796   0.031065   0.012063
   83  C 10  S   -0.007788  -0.013197   0.099117   0.002541   0.001368
   84  C 10  X   -0.000589  -0.000440  -0.000868  -0.000858  -0.000479
   85  C 10  Y    0.001364   0.000409  -0.001063   0.000170   0.000873
   86  C 10  Z   -0.000257   0.000365  -0.000006  -0.000293  -0.000121
   87  C 10  S    0.037244   0.013779  -0.098811  -0.001981  -0.015960
   88  C 10  X    0.004216   0.000134   0.013516   0.004866   0.009153
   89  C 10  Y   -0.019447  -0.008360   0.023062  -0.004589   0.008508
   90  C 10  Z    0.002097  -0.000678   0.000481   0.001692   0.000878
   91  O 11  S    0.000034   0.000007  -0.000037  -0.000014  -0.000038
   92  O 11  S    0.000241   0.000076  -0.000477  -0.000131  -0.000321
   93  O 11  X   -0.000051   0.000009   0.000027   0.000054  -0.000009
   94  O 11  Y    0.000019   0.000028   0.000364   0.000163   0.000060
   95  O 11  Z   -0.000014   0.000046  -0.000012  -0.000016  -0.000005
   96  O 11  S   -0.001918  -0.000493   0.003144   0.000803   0.002142
   97  O 11  X   -0.000164  -0.000086  -0.000958  -0.000377   0.000173
   98  O 11  Y    0.000102  -0.000121  -0.002336  -0.001107  -0.000776
   99  O 11  Z   -0.000008  -0.000211  -0.000032   0.000076   0.000071
  100  C 12  S    0.000812  -0.000014   0.000194   0.000196   0.000243
  101  C 12  S   -0.000360  -0.000029  -0.000138  -0.000181  -0.000156
  102  C 12  X   -0.000350   0.000007  -0.000065  -0.000163  -0.000016
  103  C 12  Y    0.000264  -0.000061  -0.000048   0.000010   0.000050
  104  C 12  Z   -0.000069   0.000010  -0.000003  -0.000028  -0.000006
  105  C 12  S    0.000537   0.000310   0.001354   0.000789   0.000584
  106  C 12  X    0.001501  -0.000075  -0.000537   0.000365   0.000079
  107  C 12  Y   -0.001210   0.000180  -0.000863  -0.000678  -0.000551
  108  C 12  Z    0.000308  -0.000026  -0.000090   0.000099   0.000048
  109  H 13  S   -0.000046   0.000057  -0.000165   0.000042   0.000270
  110  H 13  S    0.000234  -0.000037   0.000718   0.000096  -0.000147
  111  H 14  S   -0.000483  -0.000124   0.000146   0.000077   0.000380
  112  H 14  S   -0.001130  -0.000495   0.001745   0.000797   0.004887
  113  H 15  S   -0.000348   0.000316  -0.000605   0.000466  -0.002390
  114  H 15  S    0.003123   0.001505  -0.001801  -0.000121   0.004573
  115  H 16  S   -0.001118  -0.001000  -0.000351   0.001193  -0.000417
  116  H 16  S    0.001523  -0.001814   0.000136   0.013834   0.000375
  117  H 17  S   -0.000227  -0.000825  -0.000775   0.001513  -0.000060
  118  H 17  S   -0.000940   0.002404  -0.000631   0.014866   0.000772
  119  H 18  S   -0.000779  -0.001529  -0.000138  -0.000924  -0.000132
  120  H 18  S   -0.000086   0.009149   0.001843   0.002006   0.000008
  121  H 19  S    0.000165  -0.001662  -0.000163   0.000351   0.000046
  122  H 19  S    0.000788  -0.001093  -0.000053   0.000678   0.000027
  123  H 20  S   -0.000334  -0.000552  -0.000042  -0.000610  -0.000039
  124  H 20  S   -0.000532   0.002586   0.000357   0.000056  -0.000154
  125  H 21  S   -0.000196  -0.000108  -0.002345  -0.000080  -0.000672
  126  H 21  S    0.001808   0.002760   0.005938   0.001662  -0.002217
  127  H 22  S   -0.000284   0.000094  -0.000106  -0.000151  -0.000085
  128  H 22  S   -0.000090  -0.000308  -0.000177  -0.000044   0.000066
  129  H 23  S    0.000113  -0.000041  -0.000128  -0.000013  -0.000007
  130  H 23  S    0.001036  -0.000115  -0.000166   0.000282   0.000106
  131  H 24  S   -0.000262   0.000038  -0.000133  -0.000115  -0.000082
  132  H 24  S   -0.000151  -0.000173  -0.000031  -0.000133   0.000047

                     11         12         13         14         15
                  -11.1765   -11.1702    -1.4220    -1.3805    -1.1538
                     A          A          A          A          A   
    1  C  1  S    0.001509  -0.000113  -0.076653   0.017115  -0.075765
    2  C  1  S   -0.000153   0.000152   0.083866  -0.013030   0.090610
    3  C  1  X    0.000201  -0.000046  -0.049932   0.009525   0.048733
    4  C  1  Y    0.000904  -0.000086   0.051601  -0.048901  -0.052962
    5  C  1  Z   -0.000021   0.000003  -0.010648   0.004300   0.010467
    6  C  1  S   -0.008848  -0.002017   0.098319  -0.100305   0.121094
    7  C  1  X   -0.004080  -0.000421   0.019648  -0.093403   0.020664
    8  C  1  Y    0.003788   0.001828  -0.072002   0.078264  -0.006582
    9  C  1  Z   -0.000857  -0.000234   0.007262  -0.018881   0.003678
   10  C  2  S    0.003303   0.000032  -0.045729  -0.074139  -0.066285
   11  C  2  S   -0.004326  -0.000073   0.054263   0.075275   0.078561
   12  C  2  X   -0.001109   0.000005  -0.027601  -0.086062   0.075895
   13  C  2  Y    0.001379   0.000025   0.017591  -0.007213   0.000867
   14  C  2  Z   -0.000253  -0.000007  -0.005269  -0.012819   0.011601
   15  C  2  S    0.037026   0.001216   0.006610   0.166833   0.131728
   16  C  2  X    0.018957   0.000755  -0.013319   0.140741   0.028349
   17  C  2  Y   -0.012678   0.000895   0.016981  -0.014457   0.012025
   18  C  2  Z    0.003664   0.000104  -0.003053   0.022469   0.003580
   19  O  3  S   -0.000034  -0.000003  -0.084506  -0.204587   0.035300
   20  O  3  S   -0.000536  -0.000028   0.078587   0.180442  -0.033883
   21  O  3  X   -0.000289   0.000001   0.023969   0.048402   0.015247
   22  O  3  Y   -0.000014   0.000020   0.027034   0.054812  -0.015056
   23  O  3  Z   -0.000043   0.000001   0.002189   0.004435   0.003164
   24  O  3  S    0.002383   0.000196   0.257469   0.692830  -0.119843
   25  O  3  X    0.000762   0.000043   0.035106   0.088615   0.006465
   26  O  3  Y    0.001007  -0.000121   0.029720   0.069795  -0.015215
   27  O  3  Z    0.000055   0.000004   0.003760   0.009804   0.001847
   28  C  4  S    0.981102   0.000146  -0.008556  -0.014403  -0.083250
   29  C  4  S    0.098720   0.000046   0.009903   0.021998   0.094609
   30  C  4  X    0.000410   0.000009  -0.005003  -0.010251   0.029551
   31  C  4  Y    0.001330  -0.000038   0.010955   0.012257   0.047638
   32  C  4  Z   -0.000014   0.000004  -0.001408  -0.002295   0.001767
   33  C  4  S   -0.089923  -0.001146   0.035047  -0.085292   0.150975
   34  C  4  X   -0.006868  -0.000963  -0.018862  -0.048794  -0.000136
   35  C  4  Y   -0.022021   0.000008   0.001409  -0.067834   0.005402
   36  C  4  Z    0.000216  -0.000183  -0.002986  -0.003515  -0.000320
   37  C  5  S    0.108222  -0.000620  -0.002424  -0.003370  -0.096880
   38  C  5  S    0.006483   0.000014   0.003857   0.000420   0.108589
   39  C  5  X    0.001366   0.000028  -0.003591  -0.004831  -0.020630
   40  C  5  Y   -0.000350   0.000016   0.003191   0.000952   0.052578
   41  C  5  Z    0.000226   0.000007  -0.000739  -0.000790  -0.006274
   42  C  5  S    0.027540  -0.000164   0.013535   0.072999   0.185890
   43  C  5  X   -0.017047  -0.001845   0.006062  -0.036098  -0.010555
   44  C  5  Y    0.009856  -0.000351  -0.008054   0.023565   0.012275
   45  C  5  Z   -0.003168  -0.000167   0.001406  -0.006983  -0.002565
   46  C  6  S    0.006192   0.001386  -0.003588   0.000056  -0.114364
   47  C  6  S    0.000493  -0.000134   0.002336   0.003332   0.125947
   48  C  6  X    0.000730  -0.000215  -0.005880  -0.001541  -0.042323
   49  C  6  Y    0.000726   0.000243   0.001633  -0.001284  -0.002764
   50  C  6  Z    0.000101   0.000036  -0.001002  -0.000192  -0.007102
   51  C  6  S   -0.010549   0.000269   0.052782  -0.049486   0.215486
   52  C  6  X    0.004681   0.002730  -0.008974   0.044937  -0.006729
   53  C  6  Y    0.001383  -0.002392   0.026047  -0.008902   0.002885
   54  C  6  Z    0.000599   0.000271  -0.002865   0.007595  -0.000100
   55  C  7  S    0.015313   0.011222  -0.000098   0.000089  -0.055267
   56  C  7  S    0.000852   0.000595   0.001639   0.000484   0.053239
   57  C  7  X    0.000347  -0.000334  -0.000142   0.000715  -0.025366
   58  C  7  Y    0.000292  -0.000570   0.000279  -0.000263   0.001176
   59  C  7  Z    0.000117   0.000314   0.000042   0.000085  -0.010170
   60  C  7  S   -0.000550  -0.001403  -0.007690  -0.015843   0.136505
   61  C  7  X   -0.001632   0.000936   0.003841   0.006244   0.002747
   62  C  7  Y   -0.002033   0.000812  -0.005665   0.004757   0.002475
   63  C  7  Z   -0.000596  -0.001350   0.000063   0.001301  -0.009584
   64  C  8  S    0.001795   0.000081  -0.000123   0.000019  -0.028954
   65  C  8  S    0.000038  -0.003796   0.000028   0.000066   0.034081
   66  C  8  X   -0.000027  -0.001392  -0.000364   0.000089  -0.008875
   67  C  8  Y   -0.000131  -0.002066  -0.000467  -0.000025  -0.002740
   68  C  8  Z   -0.000126  -0.000388  -0.000043   0.000092   0.013194
   69  C  8  S    0.001187   0.024764   0.002842  -0.000180   0.048113
   70  C  8  X    0.000634   0.008561   0.000656  -0.000793   0.010553
   71  C  8  Y    0.001273   0.012523   0.003097  -0.000817   0.011443
   72  C  8  Z    0.001401   0.001516   0.002744  -0.000733  -0.006448
   73  C  9  S   -0.000232   0.986746  -0.000019   0.000027  -0.013966
   74  C  9  S    0.000006   0.096319   0.000008   0.000110   0.016378
   75  C  9  X    0.000055  -0.000127   0.000246  -0.000093  -0.007992
   76  C  9  Y    0.000106  -0.000176   0.000059  -0.000063  -0.010745
   77  C  9  Z   -0.000039  -0.000027  -0.000051   0.000082   0.000519
   78  C  9  S   -0.001414  -0.069678  -0.002838   0.000594   0.016554
   79  C  9  X    0.000363   0.004701   0.000385   0.000251   0.000241
   80  C  9  Y    0.000410   0.006990   0.001093  -0.000058   0.004952
   81  C  9  Z   -0.000075   0.000947  -0.000208  -0.000451   0.004536
   82  C 10  S    0.009707  -0.000831  -0.014953   0.003505  -0.098319
   83  C 10  S    0.000200  -0.000090   0.018977  -0.007665   0.110399
   84  C 10  X    0.000130   0.000149  -0.017744   0.002935  -0.013564
   85  C 10  Y    0.000415   0.000230  -0.001670  -0.003212  -0.056709
   86  C 10  Z   -0.000007  -0.000010  -0.002597   0.000611   0.001281
   87  C 10  S    0.006801   0.001909  -0.011871   0.089636   0.181970
   88  C 10  X   -0.002809  -0.000633  -0.015565  -0.027010  -0.010307
   89  C 10  Y   -0.004559  -0.003124   0.064989  -0.056422  -0.011682
   90  C 10  Z   -0.000118   0.000246  -0.006418  -0.000529  -0.001305
   91  O 11  S   -0.000004   0.000011  -0.198094   0.095291   0.029155
   92  O 11  S   -0.000106   0.000090   0.176016  -0.081437  -0.027705
   93  O 11  X    0.000032   0.000000   0.058549  -0.030252   0.006113
   94  O 11  Y    0.000316  -0.000013  -0.003851  -0.010932  -0.029411
   95  O 11  Z   -0.000014  -0.000002   0.009850  -0.004338   0.002439
   96  O 11  S   -0.000522  -0.000484   0.647608  -0.340511  -0.100535
   97  O 11  X   -0.000253  -0.000105   0.092608  -0.054699   0.001902
   98  O 11  Y   -0.001202   0.000131  -0.013841   0.003373  -0.024605
   99  O 11  Z    0.000032  -0.000009   0.015899  -0.009004   0.001504
  100  C 12  S   -0.000147  -0.000029  -0.055598   0.031589   0.021694
  101  C 12  S   -0.000058   0.000020   0.059547  -0.031910  -0.020448
  102  C 12  X   -0.000097   0.000029  -0.016752   0.009348   0.009781
  103  C 12  Y   -0.000143  -0.000032  -0.056841   0.029623   0.012274
  104  C 12  Z   -0.000007   0.000006   0.000167   0.000027   0.000936
  105  C 12  S    0.000711   0.000048   0.090873  -0.057467  -0.053966
  106  C 12  X   -0.000117  -0.000128  -0.004860   0.001595  -0.002968
  107  C 12  Y   -0.000152   0.000208   0.000753   0.006275   0.006452
  108  C 12  Z   -0.000023  -0.000031  -0.000788  -0.000151  -0.000771
  109  H 13  S   -0.000049   0.000029   0.039880   0.087263  -0.025212
  110  H 13  S    0.001457  -0.000018   0.011530   0.011579  -0.013755
  111  H 14  S   -0.002260   0.000011   0.000738   0.001023   0.026780
  112  H 14  S    0.006424  -0.000047  -0.008033  -0.022500  -0.008806
  113  H 15  S   -0.000210   0.000127  -0.000740   0.001665   0.034188
  114  H 15  S    0.005320   0.000233  -0.006323   0.007078  -0.001161
  115  H 16  S    0.000090  -0.000141   0.000857   0.000096   0.023077
  116  H 16  S    0.000820   0.000604   0.001480  -0.000673  -0.004964
  117  H 17  S   -0.000497   0.000075  -0.000215   0.000486   0.022902
  118  H 17  S    0.000289   0.000699  -0.000793   0.002852  -0.004512
  119  H 18  S    0.000132  -0.000979   0.000282  -0.000065   0.013007
  120  H 18  S    0.000788   0.001418   0.001601  -0.000601  -0.000965
  121  H 19  S    0.000034  -0.001293   0.000014   0.000091   0.005577
  122  H 19  S    0.000092   0.012026   0.000281  -0.000037  -0.001607
  123  H 20  S    0.000017  -0.001321   0.000028  -0.000051   0.005280
  124  H 20  S    0.000028   0.012185   0.000050  -0.000335  -0.000468
  125  H 21  S    0.000124  -0.000101   0.001061   0.000055   0.035433
  126  H 21  S    0.001751   0.002092  -0.019270   0.015119  -0.002654
  127  H 22  S   -0.000026   0.000057   0.016799  -0.009151  -0.006614
  128  H 22  S   -0.000166  -0.000133  -0.001775  -0.000092   0.003318
  129  H 23  S   -0.000068  -0.000025   0.014462  -0.008777  -0.010474
  130  H 23  S   -0.000095  -0.000118  -0.004238   0.000308  -0.003579
  131  H 24  S   -0.000027   0.000063   0.016824  -0.009155  -0.006631
  132  H 24  S   -0.000147  -0.000142  -0.001810   0.000011   0.003178

                     16         17         18         19         20
                   -1.0806    -1.0217    -1.0146    -0.9586    -0.9206
                     A          A          A          A          A   
    1  C  1  S    0.050589  -0.120443   0.015154  -0.008756  -0.016419
    2  C  1  S   -0.056889   0.132654  -0.015953   0.014196   0.023547
    3  C  1  X    0.000853   0.003315  -0.078554   0.129710  -0.028967
    4  C  1  Y    0.038773  -0.024710  -0.043826  -0.037638  -0.076812
    5  C  1  Z   -0.002197   0.001699  -0.009500   0.022126   0.000206
    6  C  1  S   -0.103664   0.285661  -0.036963   0.011997   0.009136
    7  C  1  X   -0.033735   0.065809  -0.013140   0.024195  -0.020374
    8  C  1  Y    0.000412  -0.013772   0.007011  -0.027393  -0.012233
    9  C  1  Z   -0.005193   0.010785  -0.002565   0.005132  -0.002220
   10  C  2  S    0.058371  -0.038212  -0.080926  -0.013218  -0.090743
   11  C  2  S   -0.066792   0.042896   0.092158   0.016194   0.101645
   12  C  2  X   -0.052288   0.023128   0.055761   0.015284   0.031591
   13  C  2  Y   -0.000892   0.097983  -0.061074  -0.022434  -0.012976
   14  C  2  Z   -0.007949  -0.002207   0.012142   0.003639   0.005649
   15  C  2  S   -0.130738   0.097942   0.184988   0.021809   0.244630
   16  C  2  X   -0.022610   0.000369   0.041203   0.012101   0.059404
   17  C  2  Y   -0.020516   0.049043   0.003317  -0.031734   0.001558
   18  C  2  Z   -0.002479  -0.002883   0.006066   0.003804   0.008964
   19  O  3  S   -0.027298   0.023091   0.032782  -0.006600   0.029656
   20  O  3  S    0.026231  -0.022108  -0.031977   0.005877  -0.030447
   21  O  3  X   -0.020575   0.016312   0.042421   0.004307   0.070929
   22  O  3  Y    0.012946   0.009031  -0.030797  -0.013770  -0.035398
   23  O  3  Z   -0.003883   0.001928   0.008237   0.001466   0.012864
   24  O  3  S    0.096631  -0.086256  -0.115999   0.026877  -0.101935
   25  O  3  X   -0.013672   0.009666   0.035336   0.003537   0.064808
   26  O  3  Y    0.013936   0.003397  -0.028257  -0.010950  -0.033305
   27  O  3  Z   -0.002839   0.001252   0.007018   0.001176   0.011837
   28  C  4  S    0.056066   0.064336  -0.116677   0.000331  -0.016545
   29  C  4  S   -0.061129  -0.068955   0.125293  -0.000249   0.019458
   30  C  4  X    0.003253  -0.054258  -0.011123  -0.029040  -0.100815
   31  C  4  Y   -0.032790   0.012822   0.040558   0.017132   0.049213
   32  C  4  Z    0.002326  -0.009172  -0.004178  -0.005517  -0.018353
   33  C  4  S   -0.120675  -0.128041   0.279590  -0.005714   0.035870
   34  C  4  X    0.001203  -0.014154   0.003305   0.004454  -0.030651
   35  C  4  Y   -0.007386  -0.000395   0.012238   0.004915  -0.004713
   36  C  4  Z    0.001108  -0.001945   0.000146   0.000408  -0.004310
   37  C  5  S    0.013872   0.108043  -0.027095   0.043347   0.090958
   38  C  5  S   -0.014494  -0.115038   0.030044  -0.045707  -0.095099
   39  C  5  X    0.044063   0.011335  -0.079590  -0.021808  -0.005443
   40  C  5  Y    0.008886  -0.019169  -0.042712  -0.001175  -0.020771
   41  C  5  Z    0.005929   0.002612  -0.009954  -0.003483   0.000378
   42  C  5  S   -0.039208  -0.255722   0.052866  -0.111875  -0.240000
   43  C  5  X    0.013555   0.008548  -0.004211  -0.003715   0.010064
   44  C  5  Y   -0.011328  -0.018191  -0.009224   0.002562  -0.012069
   45  C  5  Z    0.000906   0.001694  -0.001247  -0.000795   0.001714
   46  C  6  S   -0.044638   0.056739   0.087739   0.022532   0.030598
   47  C  6  S    0.049856  -0.060076  -0.091238  -0.023290  -0.030824
   48  C  6  X    0.060615   0.002937   0.012568  -0.057142   0.107421
   49  C  6  Y    0.010916   0.072962  -0.052390   0.064819   0.046480
   50  C  6  Z    0.004850  -0.005582   0.002378  -0.013698   0.014309
   51  C  6  S    0.083847  -0.121270  -0.210889  -0.055122  -0.092433
   52  C  6  X   -0.031004  -0.017323  -0.006704  -0.002549   0.015044
   53  C  6  Y    0.003150   0.007647  -0.015424   0.017209   0.012479
   54  C  6  Z   -0.002459  -0.003485  -0.000363  -0.002915   0.004168
   55  C  7  S   -0.121824   0.015357   0.024067   0.067443  -0.121914
   56  C  7  S    0.111431  -0.013615  -0.021226  -0.060495   0.108804
   57  C  7  X    0.009624   0.031026   0.052333   0.014033   0.016465
   58  C  7  Y    0.022629   0.023251   0.014882   0.020993  -0.003389
   59  C  7  Z   -0.031101  -0.008737  -0.012594  -0.004735   0.004093
   60  C  7  S    0.350088  -0.043959  -0.076446  -0.222545   0.412437
   61  C  7  X   -0.018752   0.000338   0.004857   0.005849   0.002144
   62  C  7  Y    0.000932  -0.000831  -0.001617   0.006375   0.002348
   63  C  7  Z   -0.019851   0.002091   0.004852   0.007174  -0.009636
   64  C  8  S   -0.134262  -0.047674  -0.075584  -0.020680   0.008921
   65  C  8  S    0.146942   0.050067   0.079829   0.020913  -0.008807
   66  C  8  X    0.009501   0.025637   0.047200   0.040209  -0.074682
   67  C  8  Y    0.027095   0.034615   0.056929   0.052946  -0.095824
   68  C  8  Z    0.037257  -0.000668  -0.003459  -0.020704   0.048453
   69  C  8  S    0.278085   0.116838   0.180944   0.061474  -0.036019
   70  C  8  X    0.015107  -0.000798  -0.001180  -0.000226  -0.008486
   71  C  8  Y    0.019757   0.002987   0.000432   0.004965  -0.016004
   72  C  8  Z    0.004989   0.009465   0.010580   0.003985   0.002348
   73  C  9  S   -0.095529  -0.054040  -0.089539  -0.056359   0.093635
   74  C  9  S    0.106855   0.058547   0.097113   0.059838  -0.098829
   75  C  9  X   -0.043358  -0.018347  -0.028798  -0.011193   0.007951
   76  C  9  Y   -0.061413  -0.027220  -0.044502  -0.017321   0.015290
   77  C  9  Z   -0.000996  -0.003668  -0.006484  -0.007682   0.016446
   78  C  9  S    0.183043   0.124119   0.211822   0.145920  -0.253072
   79  C  9  X   -0.000886  -0.002736  -0.003905  -0.003348   0.002372
   80  C  9  Y    0.000787  -0.005574  -0.011429  -0.005967   0.005810
   81  C  9  Z    0.000790  -0.005329  -0.008845  -0.007342   0.011411
   82  C 10  S    0.006424  -0.055917   0.105121  -0.083653   0.030069
   83  C 10  S   -0.008127   0.063189  -0.112196   0.087302  -0.031270
   84  C 10  X    0.046665  -0.072307  -0.016653  -0.035035  -0.005302
   85  C 10  Y   -0.000971   0.015422   0.028040   0.003342   0.019563
   86  C 10  Z    0.006225  -0.012556  -0.005027  -0.005957  -0.001719
   87  C 10  S   -0.001226   0.081142  -0.246644   0.237661  -0.066344
   88  C 10  X   -0.007044   0.019801   0.013125  -0.020040  -0.004388
   89  C 10  Y    0.017315   0.015922   0.007845  -0.007248   0.008772
   90  C 10  Z   -0.003293   0.001912   0.001167  -0.002250  -0.001540
   91  O 11  S   -0.012219   0.015987  -0.011089   0.057480   0.024951
   92  O 11  S    0.011980  -0.017809   0.011570  -0.051661  -0.020724
   93  O 11  X   -0.005250   0.022760  -0.012271   0.018287   0.000209
   94  O 11  Y    0.032553  -0.123589  -0.002986   0.127134   0.028352
   95  O 11  Z   -0.002538   0.009955  -0.001675  -0.003769  -0.001221
   96  O 11  S    0.040628  -0.043037   0.037643  -0.233769  -0.109111
   97  O 11  X   -0.002417   0.017731  -0.009843   0.010768  -0.002626
   98  O 11  Y    0.031284  -0.119752   0.002263   0.114147   0.029699
   99  O 11  Z   -0.002043   0.009071  -0.001567  -0.004340  -0.001829
  100  C 12  S   -0.022303   0.094295   0.002308  -0.145133  -0.056605
  101  C 12  S    0.022175  -0.094742  -0.001746   0.146231   0.057907
  102  C 12  X   -0.006042   0.019509  -0.006902   0.012946   0.006248
  103  C 12  Y   -0.007586   0.011588  -0.001506   0.033979   0.026646
  104  C 12  Z   -0.000615   0.002517  -0.001002   0.000329  -0.000250
  105  C 12  S    0.056893  -0.255576  -0.009417   0.425495   0.170575
  106  C 12  X    0.002534  -0.008635  -0.005453   0.031670   0.008743
  107  C 12  Y   -0.001899  -0.003595   0.001625   0.026501   0.021154
  108  C 12  Z    0.000591  -0.001214  -0.000860   0.003896   0.000346
  109  H 13  S    0.022629  -0.008242  -0.040003  -0.009516  -0.052605
  110  H 13  S    0.011376  -0.011844  -0.014683  -0.007671  -0.028316
  111  H 14  S   -0.021469  -0.033921   0.057771  -0.001107   0.010701
  112  H 14  S    0.001049  -0.009570   0.007599   0.001859  -0.005580
  113  H 15  S   -0.002178  -0.056514   0.012609  -0.032295  -0.053809
  114  H 15  S    0.000016  -0.015167  -0.001382  -0.011630  -0.016884
  115  H 16  S    0.056569  -0.003954  -0.010471  -0.033319   0.071658
  116  H 16  S    0.000405   0.003857   0.002396  -0.002094   0.012234
  117  H 17  S    0.053272  -0.012919  -0.010003  -0.044133   0.074059
  118  H 17  S   -0.006936  -0.007063  -0.001613  -0.009294   0.012387
  119  H 18  S    0.059858   0.021467   0.034495   0.009303  -0.003633
  120  H 18  S    0.002444   0.003569   0.004005   0.002853  -0.003390
  121  H 19  S    0.042494   0.025777   0.043068   0.029389  -0.052263
  122  H 19  S    0.002440   0.004505   0.007332   0.006559  -0.012858
  123  H 20  S    0.038933   0.025393   0.042975   0.032465  -0.062058
  124  H 20  S   -0.003191   0.001206   0.002508   0.006381  -0.017617
  125  H 21  S    0.004876   0.025733  -0.056834   0.052628  -0.011674
  126  H 21  S   -0.002632  -0.005534  -0.014555   0.019010  -0.003274
  127  H 22  S    0.009501  -0.046270  -0.003882   0.094235   0.039509
  128  H 22  S   -0.001017   0.002456  -0.001285   0.012105   0.006635
  129  H 23  S    0.012058  -0.057302   0.000412   0.094186   0.041760
  130  H 23  S    0.002584  -0.012158  -0.000040   0.021746   0.009359
  131  H 24  S    0.009485  -0.046272  -0.003818   0.094177   0.039527
  132  H 24  S   -0.001146   0.002089  -0.001413   0.011950   0.006970

                     21         22         23         24         25
                   -0.8307    -0.8064    -0.7604    -0.7322    -0.7014
                     A          A          A          A          A   
    1  C  1  S    0.062400   0.066553   0.019271  -0.009236  -0.015106
    2  C  1  S   -0.070248  -0.069094  -0.020455   0.011383   0.017048
    3  C  1  X    0.104751  -0.083088  -0.011367  -0.005997   0.218464
    4  C  1  Y    0.129129  -0.080989  -0.060669   0.131111  -0.023463
    5  C  1  Z    0.008115  -0.007354  -0.001867  -0.010463   0.035459
    6  C  1  S   -0.186508  -0.252446  -0.059978   0.007636   0.082155
    7  C  1  X    0.011547  -0.111298  -0.042049   0.069204   0.123717
    8  C  1  Y    0.083412   0.013005  -0.028485   0.091527  -0.010628
    9  C  1  Z   -0.003526  -0.017483  -0.007209   0.004061   0.020014
   10  C  2  S    0.033555  -0.072952  -0.008200  -0.024075  -0.003725
   11  C  2  S   -0.038892   0.078943   0.010001   0.023029   0.003895
   12  C  2  X   -0.021462  -0.031022   0.022292  -0.175478   0.042901
   13  C  2  Y   -0.209620  -0.049690   0.021115  -0.073151  -0.077559
   14  C  2  Z    0.008827  -0.001766   0.000806  -0.023596   0.011414
   15  C  2  S   -0.085438   0.243545   0.015785   0.114313   0.022928
   16  C  2  X   -0.009456   0.073959   0.022357  -0.061608   0.024199
   17  C  2  Y   -0.105627  -0.017352   0.002498  -0.007865  -0.083322
   18  C  2  Z    0.004649   0.012579   0.002299  -0.009699   0.008724
   19  O  3  S   -0.021126   0.020860   0.003416  -0.003540  -0.026338
   20  O  3  S    0.022298  -0.023605  -0.004099   0.002043   0.025939
   21  O  3  X   -0.008390   0.116052  -0.010577   0.208185  -0.023573
   22  O  3  Y   -0.071357  -0.062137   0.021203  -0.169448  -0.083599
   23  O  3  Z    0.002827   0.021378  -0.003625   0.040931   0.001369
   24  O  3  S    0.077754  -0.063902  -0.010497   0.020176   0.104019
   25  O  3  X   -0.008512   0.121302  -0.005538   0.199747  -0.025352
   26  O  3  Y   -0.062928  -0.059231   0.019554  -0.162711  -0.083636
   27  O  3  Z    0.002306   0.021992  -0.002715   0.039287   0.001111
   28  C  4  S   -0.093649   0.033608   0.013845   0.038544   0.035372
   29  C  4  S    0.097104  -0.032026  -0.014044  -0.039177  -0.033508
   30  C  4  X   -0.066249  -0.115802   0.014439  -0.063851  -0.024506
   31  C  4  Y   -0.034423   0.082905   0.036679  -0.028049   0.107969
   32  C  4  Z   -0.008268  -0.022308  -0.002402  -0.009207  -0.009723
   33  C  4  S    0.281323  -0.146981  -0.051330  -0.129453  -0.149585
   34  C  4  X   -0.010542  -0.063909   0.012463  -0.067858   0.006745
   35  C  4  Y   -0.011896   0.003931   0.023648  -0.035916   0.063563
   36  C  4  Z   -0.000907  -0.010291  -0.000268  -0.008822  -0.002328
   37  C  5  S    0.055943   0.055215   0.001519  -0.034753  -0.010880
   38  C  5  S   -0.058628  -0.057703  -0.000238   0.034247   0.012825
   39  C  5  X   -0.094975   0.072266  -0.009918   0.132332   0.060096
   40  C  5  Y   -0.046926   0.116224   0.048171  -0.012487   0.075260
   41  C  5  Z   -0.012283   0.005455  -0.012430   0.018287   0.006023
   42  C  5  S   -0.175709  -0.148679  -0.019429   0.133682   0.024728
   43  C  5  X   -0.022857   0.008303  -0.007756   0.055461   0.031369
   44  C  5  Y   -0.016619   0.056826   0.018772  -0.025877   0.042601
   45  C  5  Z   -0.002943   0.000009  -0.010192   0.007404   0.002881
   46  C  6  S    0.021600  -0.098143  -0.015823  -0.011453   0.026961
   47  C  6  S   -0.022693   0.100889   0.018173   0.009976  -0.024957
   48  C  6  X    0.005049  -0.026918  -0.069262   0.030887  -0.047760
   49  C  6  Y    0.136699   0.047830   0.017066  -0.097477  -0.137012
   50  C  6  Z   -0.008509  -0.001709  -0.038995   0.001595   0.003437
   51  C  6  S   -0.074199   0.292982   0.054415   0.051777  -0.103896
   52  C  6  X    0.008077   0.009727  -0.045643   0.016188  -0.039975
   53  C  6  Y    0.060457   0.025587   0.002138  -0.061273  -0.085185
   54  C  6  Z   -0.002818   0.000932  -0.021995   0.000752   0.001762
   55  C  7  S   -0.007024   0.034054   0.053279   0.024759  -0.017791
   56  C  7  S    0.006162  -0.030808  -0.048320  -0.020627   0.013904
   57  C  7  X    0.010549  -0.092609   0.023508  -0.029847   0.080514
   58  C  7  Y    0.035618   0.001528   0.032992  -0.039866  -0.059919
   59  C  7  Z   -0.005845   0.014626  -0.122958  -0.039108   0.023417
   60  C  7  S    0.024139  -0.128976  -0.206424  -0.099456   0.082426
   61  C  7  X    0.003388  -0.036226  -0.000645  -0.017542   0.045812
   62  C  7  Y    0.021809   0.008557   0.012896  -0.027634  -0.043248
   63  C  7  Z   -0.001878   0.004732  -0.067596  -0.025211   0.015127
   64  C  8  S   -0.008233   0.039888  -0.116359  -0.023273   0.001961
   65  C  8  S    0.008138  -0.039658   0.117447   0.023101  -0.002731
   66  C  8  X   -0.017770   0.026644  -0.030625   0.005127   0.017526
   67  C  8  Y   -0.013835   0.055550  -0.064717  -0.008464  -0.016011
   68  C  8  Z    0.009557  -0.016055  -0.099881  -0.060870   0.018746
   69  C  8  S    0.026443  -0.122932   0.400601   0.086130  -0.011821
   70  C  8  X   -0.008459   0.015052  -0.023387  -0.000586   0.010225
   71  C  8  Y   -0.005010   0.028096  -0.041740  -0.009127  -0.010711
   72  C  8  Z    0.004085  -0.008567  -0.051629  -0.034977   0.011060
   73  C  9  S    0.018408  -0.049968   0.088417   0.010782  -0.001860
   74  C  9  S   -0.019472   0.051413  -0.088182  -0.010634   0.002374
   75  C  9  X   -0.007065   0.020316  -0.074423  -0.010349   0.010307
   76  C  9  Y   -0.005328   0.033799  -0.119043  -0.024246  -0.001224
   77  C  9  Z    0.003564  -0.004624  -0.056888  -0.035460   0.011258
[...]
   10             0.049664   0.090409   0.027248   0.149592   0.198304
   11             0.092198   0.366069   0.224591   0.566365   0.168528
   12             0.034495   0.196434   0.080022   0.130219   0.053594
   13             0.022926   0.003402   0.008864   0.014167   0.007340
   14             0.000955   0.000535   0.012310   0.019344   0.101580
   15             0.024979   0.003848   0.023507   0.073621   0.010932
   16             0.184472   0.002260   0.037922   0.003279   0.022833
   17             0.110238   0.012061   0.000648   0.037694   0.006842
   18             0.086464   0.027244   0.167558   0.021000   0.002257
   19             0.018769   0.038776   0.132584   0.016182   0.011365
   20             0.017881   0.040477   0.098948   0.011060   0.038877
   21             0.003679   0.002603   0.014580   0.015487   0.078026
   22             0.019364   0.091884   0.044976   0.070718   0.010311
   23             0.008874   0.001753   0.003750   0.083423   0.010800
   24             0.001705   0.149732   0.062043   0.009360   0.016398

                     41         42         43         44

                  2.000000   2.000000   2.000000   2.000000

    1             0.021563   0.000068   0.210269   0.295424
    2             0.026890   0.008262   0.026654   0.429539
    3             0.189480   0.010562   0.024800   0.234231
    4             0.236733   0.038453   0.544166   0.103935
    5             0.354529   0.014984   0.283836   0.257393
    6             0.260922   0.056490   0.044310   0.461807
    7             0.104925   0.037012   0.003385   0.008178
    8             0.096049   0.803985   0.021039   0.020698
    9             0.021507   0.945443   0.039356   0.014018
   10             0.204106   0.022156   0.665695   0.003326
   11             0.269975   0.001804   0.118043   0.129096
   12             0.023933   0.000117  -0.001194  -0.000153
   13             0.000006   0.000015   0.000000   0.000000
   14             0.000000   0.000540   0.000015   0.000001
   15             0.000108   0.000552  -0.000003  -0.000003
   16             0.067388   0.000001   0.002229   0.022839
   17             0.000644   0.057056   0.001776   0.000402
   18             0.032221   0.000008   0.000144   0.001970
   19             0.011141   0.000000   0.000044   0.000226
   20             0.012982   0.000070   0.000055   0.000571
   21             0.000029   0.002350   0.000108   0.000010
   22             0.031667   0.000019   0.007669   0.008114
   23             0.000007   0.000014   0.000002   0.000000
   24             0.033193   0.000036   0.007601   0.008379

               ----- POPULATIONS IN EACH AO -----
                             MULLIKEN      LOWDIN
              1  C  1  S      1.98795     1.97557
              2  C  1  S      0.40153     0.41795
              3  C  1  X      0.60029     0.57182
              4  C  1  Y      0.52895     0.51882
              5  C  1  Z      0.44909     0.43360
              6  C  1  S      0.74006     0.50144
              7  C  1  X      0.22889     0.46634
              8  C  1  Y      0.11711     0.41445
              9  C  1  Z      0.58761     0.60551
             10  C  2  S      1.98806     1.97573
             11  C  2  S      0.40514     0.41813
             12  C  2  X      0.51104     0.49163
             13  C  2  Y      0.64249     0.61698
             14  C  2  Z      0.43075     0.41319
             15  C  2  S      0.76395     0.49883
             16  C  2  X      0.02841     0.39153
             17  C  2  Y      0.31420     0.48739
             18  C  2  Z      0.55663     0.58333
             19  O  3  S      1.98668     1.98000
             20  O  3  S      0.40977     0.56581
             21  O  3  X      0.58978     0.57868
             22  O  3  Y      0.68627     0.67292
             23  O  3  Z      0.83583     0.84793
             24  O  3  S      1.55713     0.99350
             25  O  3  X      0.78700     0.79711
             26  O  3  Y      0.85756     0.87109
             27  O  3  Z      1.04139     1.02995
             28  C  4  S      1.98820     1.97659
             29  C  4  S      0.39543     0.41317
             30  C  4  X      0.60468     0.58046
             31  C  4  Y      0.58457     0.55903
             32  C  4  Z      0.42732     0.41741
             33  C  4  S      0.86593     0.53452
             34  C  4  X      0.33964     0.49407
             35  C  4  Y      0.41763     0.52851
             36  C  4  Z      0.61392     0.62946
             37  C  5  S      1.98830     1.97669
             38  C  5  S      0.39470     0.41316
             39  C  5  X      0.59586     0.57193
             40  C  5  Y      0.58754     0.56138
             41  C  5  Z      0.41603     0.40512
             42  C  5  S      0.89039     0.53288
             43  C  5  X      0.33428     0.50144
             44  C  5  Y      0.42062     0.52146
             45  C  5  Z      0.60697     0.62397
             46  C  6  S      1.98848     1.97630
             47  C  6  S      0.39004     0.40881
             48  C  6  X      0.56413     0.55289
             49  C  6  Y      0.60684     0.58674
             50  C  6  Z      0.42039     0.40862
             51  C  6  S      0.83422     0.51484
             52  C  6  X      0.35372     0.50190
             53  C  6  Y      0.31209     0.49548
             54  C  6  Z      0.58526     0.59822
             55  C  7  S      1.98956     1.97597
             56  C  7  S      0.34525     0.40847
             57  C  7  X      0.52671     0.51056
             58  C  7  Y      0.55247     0.52595
             59  C  7  Z      0.53885     0.51252
             60  C  7  S      1.17337     0.55175
             61  C  7  X      0.31926     0.51618
             62  C  7  Y      0.55275     0.57561
             63  C  7  Z      0.48000     0.56656
             64  C  8  S      1.98795     1.97728
             65  C  8  S      0.39309     0.42170
             66  C  8  X      0.46929     0.45369
             67  C  8  Y      0.54937     0.52586
             68  C  8  Z      0.55289     0.52684
             69  C  8  S      0.91733     0.55427
             70  C  8  X      0.45496     0.54539
             71  C  8  Y      0.38884     0.53223
             72  C  8  Z      0.47975     0.55057
             73  C  9  S      1.98712     1.97741
             74  C  9  S      0.39264     0.42120
             75  C  9  X      0.47877     0.46309
             76  C  9  Y      0.54831     0.52420
             77  C  9  Z      0.55167     0.51568
             78  C  9  S      0.96086     0.57942
             79  C  9  X      0.52767     0.59954
             80  C  9  Y      0.41742     0.55557
             81  C  9  Z      0.56171     0.58119
             82  C 10  S      1.98834     1.97645
             83  C 10  S      0.39208     0.41258
             84  C 10  X      0.59173     0.56948
             85  C 10  Y      0.58889     0.56493
             86  C 10  Z      0.43326     0.42482
             87  C 10  S      0.86784     0.53181
             88  C 10  X      0.24363     0.48872
             89  C 10  Y      0.50698     0.53927
             90  C 10  Z      0.62829     0.64569
             91  O 11  S      1.98656     1.97970
             92  O 11  S      0.40322     0.55836
             93  O 11  X      0.71319     0.71635
             94  O 11  Y      0.55378     0.54361
             95  O 11  Z      0.84292     0.85610
             96  O 11  S      1.54437     0.96400
             97  O 11  X      0.94384     0.93989
             98  O 11  Y      0.74487     0.73853
             99  O 11  Z      1.02027     1.00817
            100  C 12  S      1.98735     1.97595
            101  C 12  S      0.36782     0.42110
            102  C 12  X      0.56431     0.52834
            103  C 12  Y      0.41978     0.41284
            104  C 12  Z      0.57347     0.53188
            105  C 12  S      1.03578     0.58904
            106  C 12  X      0.51660     0.57395
            107  C 12  Y      0.26041     0.40207
            108  C 12  Z      0.53479     0.59684
            109  H 13  S      0.41082     0.42576
            110  H 13  S      0.17463     0.29946
            111  H 14  S      0.46568     0.46312
            112  H 14  S      0.27255     0.41900
            113  H 15  S      0.47098     0.47093
            114  H 15  S      0.29413     0.42818
            115  H 16  S      0.46278     0.47390
            116  H 16  S      0.30590     0.42830
            117  H 17  S      0.46347     0.47485
            118  H 17  S      0.30280     0.42645
            119  H 18  S      0.46966     0.47120
            120  H 18  S      0.29785     0.42996
            121  H 19  S      0.46985     0.46496
            122  H 19  S      0.32718     0.44410
            123  H 20  S      0.47042     0.46485
            124  H 20  S      0.31705     0.43818
            125  H 21  S      0.46736     0.46674
            126  H 21  S      0.27867     0.42346
            127  H 22  S      0.47777     0.47865
            128  H 22  S      0.31838     0.44127
            129  H 23  S      0.47788     0.47610
            130  H 23  S      0.29312     0.42614
            131  H 24  S      0.47780     0.47876
            132  H 24  S      0.32033     0.44222

          ----- MULLIKEN ATOMIC OVERLAP POPULATIONS -----
          (OFF-DIAGONAL ELEMENTS NEED TO BE MULTIPLIED BY 2)

             1           2           3           4           5

    1    5.1783310
    2    0.3094992   4.9195742
    3   -0.0682321   0.2700115   8.3274223
    4   -0.0995353   0.4361738  -0.0542715   5.2645246
    5   -0.0114588  -0.0924213   0.0026476   0.4326414   5.1774222
    6   -0.0554503  -0.0133618  -0.0003072  -0.1013863   0.4841186
    7    0.0007362   0.0000722  -0.0000001   0.0023408  -0.0473922
    8    0.0003118  -0.0000034  -0.0000000  -0.0000376   0.0010703
    9    0.0000169  -0.0000000   0.0000000   0.0000003   0.0000058
   10    0.2681140  -0.0485259   0.0034189  -0.0099852  -0.0820884
   11    0.2404401  -0.0562464  -0.0047881   0.0024501  -0.0002160
   12   -0.0752994   0.0023416  -0.0000001  -0.0001259   0.0000109
   13   -0.0053049  -0.0534817   0.2768004   0.0046852  -0.0002010
   14    0.0040170  -0.0364527  -0.0012856   0.3887942  -0.0297233
   15   -0.0001017   0.0024018  -0.0000038  -0.0290788   0.3978402
   16    0.0000700   0.0000081  -0.0000000  -0.0000511   0.0002263
   17   -0.0000293  -0.0000048   0.0000000   0.0002289  -0.0001100
   18   -0.0000094  -0.0000018   0.0000000  -0.0000058   0.0001680
   19    0.0000003   0.0000000  -0.0000000  -0.0000000  -0.0000010
   20   -0.0000000   0.0000000  -0.0000000  -0.0000000   0.0000003
   21   -0.0412492   0.0014078   0.0000008  -0.0000550   0.0021570
   22   -0.0031620  -0.0001734  -0.0000034  -0.0000004  -0.0000013
   23    0.0026631   0.0000126   0.0000005   0.0000011  -0.0000000
   24   -0.0028815  -0.0001506  -0.0000035  -0.0000003  -0.0000019

             6           7           8           9          10

    6    5.3863777
    7    0.2499197   5.3872798
    8   -0.1024793   0.2775420   5.2871890
    9    0.0011220  -0.0767750   0.5366943   5.2084869
   10    0.3723877  -0.0631329  -0.0002140   0.0001448   5.4520212
   11    0.0028605  -0.0000038   0.0000000   0.0000000  -0.0604345
   12    0.0000887  -0.0000044  -0.0000026  -0.0000006  -0.0054952
   13   -0.0000381   0.0000000   0.0000000  -0.0000000   0.0010763
   14    0.0024475  -0.0000326   0.0000005  -0.0000000  -0.0004484
   15   -0.0352226  -0.0012679  -0.0000202   0.0000001   0.0025681
   16   -0.0464100   0.3940136  -0.0538461   0.0023676  -0.0003782
   17   -0.0570201   0.3944025  -0.0456813   0.0003727   0.0031005
   18    0.0007048  -0.0386175   0.3937091  -0.0378851   0.0007711
   19   -0.0000037  -0.0009207  -0.0546555   0.3968629   0.0000246
   20   -0.0000735   0.0024160  -0.0486273   0.3930458   0.0000017
   21   -0.0328343  -0.0023599   0.0025160   0.0017179   0.4029574
   22   -0.0001347  -0.0000000   0.0000014  -0.0000009   0.0025434
   23    0.0000036  -0.0000000  -0.0000000  -0.0000000   0.0000289
   24   -0.0001431   0.0000015  -0.0000009   0.0000000   0.0025849

            11          12          13          14          15

   11    8.4906732
   12    0.2168879   5.0340270
   13    0.0180169  -0.0004977   0.3444514
   14   -0.0000056   0.0000006  -0.0000426   0.4124719
   15   -0.0000001   0.0000000   0.0000009  -0.0015156   0.4276686
   16    0.0000000  -0.0000002  -0.0000000   0.0000005   0.0000387
   17    0.0000000   0.0000000  -0.0000000  -0.0000007   0.0018215
   18    0.0000000  -0.0000000  -0.0000000   0.0000000   0.0000181
   19    0.0000000  -0.0000000  -0.0000000  -0.0000000   0.0000001
   20    0.0000000  -0.0000000   0.0000000   0.0000000  -0.0000000
   21   -0.0045230  -0.0003949   0.0000050   0.0000007  -0.0000352
   22   -0.0334297   0.3549474   0.0000367   0.0000000   0.0000000
   23   -0.0249290   0.3793976  -0.0000953  -0.0000000  -0.0000000
   24   -0.0337292   0.3544264   0.0000363   0.0000000   0.0000000

            16          17          18          19          20

   16    0.4884578
   17   -0.0207892   0.4899308
   18    0.0021614  -0.0000598   0.4462080
   19    0.0024415   0.0000661   0.0020530   0.4718518
   20    0.0000583  -0.0000563  -0.0017703  -0.0207747   0.4632358
   21    0.0003059   0.0000921   0.0000622   0.0000868   0.0000056
   22   -0.0000006  -0.0000000  -0.0000004  -0.0000000  -0.0000000
   23    0.0000000   0.0000000   0.0000000  -0.0000000   0.0000000
   24    0.0000011  -0.0000000   0.0000000  -0.0000000  -0.0000000

            21          22          23          24

   21    0.4150015
   22    0.0005461   0.5432480
   23    0.0000227  -0.0273955   0.4687573
   24    0.0005943  -0.0408770  -0.0274666   0.5457453

          TOTAL MULLIKEN AND LOWDIN ATOMIC POPULATIONS
       ATOM         MULL.POP.    CHARGE          LOW.POP.     CHARGE
    1 C             5.641486    0.358514         5.905507    0.094493
    2 C             5.640679    0.359321         5.876727    0.123273
    3 O             8.751406   -0.751406         8.336980   -0.336980
    4 C             6.237307   -0.237307         6.133222   -0.133222
    5 C             6.234693   -0.234693         6.108017   -0.108017
    6 C             6.055166   -0.055166         6.043793   -0.043793
    7 C             6.478217   -0.478217         6.143580   -0.143580
    8 C             6.193466   -0.193466         6.087838   -0.087838
    9 C             6.426176   -0.426176         6.217306   -0.217306
   10 C             6.241041   -0.241041         6.153745   -0.153745
   11 O             8.753024   -0.753024         8.304722   -0.304722
   12 C             6.260307   -0.260307         6.032012   -0.032012
   13 H             0.585448    0.414552         0.725222    0.274778
   14 H             0.738226    0.261774         0.882125    0.117875
   15 H             0.765112    0.234888         0.899102    0.100898
   16 H             0.768675    0.231325         0.902199    0.097801
   17 H             0.766263    0.233737         0.901297    0.098703
   18 H             0.767506    0.232494         0.901166    0.098834
   19 H             0.797031    0.202969         0.909062    0.090938
   20 H             0.787461    0.212539         0.903036    0.096964
   21 H             0.746028    0.253972         0.890195    0.109805
   22 H             0.796144    0.203856         0.919921    0.080079
   23 H             0.771001    0.228999         0.902242    0.097758
   24 H             0.798135    0.201865         0.920982    0.079018

          -------------------------------
          BOND ORDER AND VALENCE ANALYSIS     BOND ORDER THRESHOLD=0.050
          -------------------------------

                   BOND                       BOND                       BOND
  ATOM PAIR DIST  ORDER      ATOM PAIR DIST  ORDER      ATOM PAIR DIST  ORDER
    1   2  1.411  1.265        1   5  2.783  0.091        1  10  1.392  1.369
    1  11  1.377  0.760        2   3  1.367  0.839        2   4  1.389  1.398
    2   6  2.818  0.094        3  13  0.970  0.772        4   5  1.401  1.368
    4  10  2.797  0.096        4  14  1.086  0.923        5   6  1.397  1.440
    5  15  1.087  0.940        6   7  1.522  0.923        6  10  1.408  1.337
    7   8  1.509  0.921        7  16  1.098  0.918        7  17  1.098  0.913
    8   9  1.337  1.889        8  18  1.091  0.931        9  19  1.089  0.945
    9  20  1.087  0.941       10  21  1.085  0.927       11  12  1.424  0.804
   12  22  1.097  0.899       12  23  1.091  0.922       12  24  1.097  0.899

                       TOTAL       BONDED        FREE
      ATOM            VALENCE     VALENCE     VALENCE
    1 C                 3.424       3.424       0.000
    2 C                 3.550       3.550       0.000
    3 O                 1.724       1.724       0.000
    4 C                 3.738       3.738       0.000
    5 C                 3.762       3.762      -0.000
    6 C                 3.664       3.664      -0.000
    7 C                 3.595       3.595       0.000
    8 C                 3.667       3.667      -0.000
    9 C                 3.769       3.769       0.000
   10 C                 3.689       3.689      -0.000
   11 O                 1.712       1.712       0.000
   12 C                 3.523       3.523      -0.000
   13 H                 0.820       0.820       0.000
   14 H                 0.907       0.907      -0.000
   15 H                 0.922       0.922       0.000
   16 H                 0.904       0.904       0.000
   17 H                 0.902       0.902       0.000
   18 H                 0.916       0.916      -0.000
   19 H                 0.930       0.930       0.000
   20 H                 0.925       0.925       0.000
   21 H                 0.915       0.915       0.000
   22 H                 0.911       0.911       0.000
   23 H                 0.912       0.912       0.000
   24 H                 0.911       0.911       0.000

          ---------------------
          ELECTROSTATIC MOMENTS
          ---------------------

 POINT   1           X           Y           Z (BOHR)    CHARGE
                 0.018789   -0.075627   -0.022483        0.00 (A.U.)
         DX          DY          DZ         /D/  (DEBYE)
     1.627514    2.789161    0.122371    3.231593
 ...... END OF PROPERTY EVALUATION ......
 CPU     0: STEP CPU TIME=     0.07 TOTAL CPU TIME=          3.4 (      0.1 MIN)
 TOTAL WALL CLOCK TIME=          8.6 SECONDS, CPU UTILIZATION IS    39.33%
               580000  WORDS OF DYNAMIC MEMORY USED
 EXECUTION OF GAMESS TERMINATED NORMALLY Mon May 25 19:05:39 2020
 DDI: 263640 bytes (0.3 MB / 0 MWords) used by master data server.
Note: The following floating-point exceptions are signalling: IEEE_DENORMAL
Note: The following floating-point exceptions are signalling: IEEE_DENORMAL
Note: The following floating-point exceptions are signalling: IEEE_DENORMAL
Note: The following floating-point exceptions are signalling: IEEE_DENORMAL
Note: The following floating-point exceptions are signalling: IEEE_DENORMAL
 ----------------------------------------
 CPU timing information for all processes
 ========================================
 0: 3.234 + 0.160 = 3.395
 1: 3.336 + 0.28 = 3.364
 2: 3.290 + 0.32 = 3.323
 3: 3.345 + 0.32 = 3.377
 4: 3.239 + 0.16 = 3.255
 5: 3.256 + 0.12 = 3.268
 ----------------------------------------
Note: The following floating-point exceptions are signalling:
 IEEE_DENORMAL
 ddikick.x: exited gracefully.
unset echo
----- accounting info -----
Files used on the master node pietdev were:
-rwxr-xr-x 1 piet piet     1060 mei 25 19:05 /home/piet/scr/eugenol_fukui_neu.F05*
-rw-r--r-- 1 piet piet 49152000 mei 25 19:05 /home/piet/scr/eugenol_fukui_neu.F10
ls: No match.
ls: No match.
ls: No match.
ma 25 mei 2020 19:05:42 CEST
0.140u 0.031s 0:11.94 1.4%	0+0k 0+8io 0pf+0w
