----- GAMESS execution script 'rungms' -----
This job is running on host pietdev
under operating system Linux at ma 25 mei 2020 19:05:30 CEST
Available scratch disk space (Kbyte units) at beginning of the job is
Filesystem     1K-blocks     Used Available Use% Mounted on
/dev/sda2      244568380 31071460 201003864  14% /
GAMESS temporary binary files will be written to /home/piet/scr
GAMESS supplementary output files will be written to /home/piet/gamess/scr
Copying input file eugenol_fukui_base.inp to your run's scratch directory...
cp eugenol_fukui_base.inp /home/piet/scr/eugenol_fukui_base.F05
unset echo
 
Assuming a single but multicore node.
 
/home/piet/gamess/ddikick.x /home/piet/gamess/gamess.03.x eugenol_fukui_base -ddi 1 6 pietdev:cpus=6 -scr /home/piet/scr

 Distributed Data Interface kickoff program.
 Initiating 6 compute processes on 1 nodes to run the following command:
 /home/piet/gamess/gamess.03.x eugenol_fukui_base 

          ******************************************************
          *         GAMESS VERSION = 30 SEP 2019 (R2)          *
          *             FROM IOWA STATE UNIVERSITY             *
          * M.W.SCHMIDT, K.K.BALDRIDGE, J.A.BOATZ, S.T.ELBERT, *
          *   M.S.GORDON, J.H.JENSEN, S.KOSEKI, N.MATSUNAGA,   *
          *          K.A.NGUYEN, S.J.SU, T.L.WINDUS,           *
          *       TOGETHER WITH M.DUPUIS, J.A.MONTGOMERY       *
          *         J.COMPUT.CHEM.  14, 1347-1363(1993)        *
          **************** 64 BIT LINUX VERSION ****************

  SINCE 1993, STUDENTS AND POSTDOCS WORKING AT IOWA STATE UNIVERSITY
  AND ALSO IN THEIR VARIOUS JOBS AFTER LEAVING ISU HAVE MADE IMPORTANT
  CONTRIBUTIONS TO THE CODE:
     IVANA ADAMOVIC, CHRISTINE AIKENS, YURI ALEXEEV, POOJA ARORA,
     ANDREY ASADCHEV, ROB BELL, PRADIPTA BANDYOPADHYAY, JONATHAN BENTZ,
     COLLEEN BERTONI, BRETT BODE, KURT BRORSEN, CALEB CARLIN, GALINA CHABAN,
     WEI CHEN, CHEOL HO CHOI, PAUL DAY, ALBERT DEFUSCO, NUWAN DESILVA,
     TIM DUDLEY, DMITRI FEDOROV, ALEX FINDLATER, GRAHAM FLETCHER, 
     MARK FREITAG, KURT GLAESEMANN, EMILIE B GUIDEZ, ANASTASIA GUNINA, 
     DAN KEMP, SAROM SOK LEANG, GRANT MERRILL,
     NORIYUKI MINEZAWA, JONATHAN MULLIN,
     TAKESHI NAGATA, SEAN NEDD, HEATHER NETZLOFF, BOSILJKA NJEGIC, RYAN OLSON,
     MIKE PAK, BUU PHAM, DAVID POOLE,
     SPENCER PRUITT, LUKE ROSKOP, TOSAPORN SATTASATHUCHANA,
     JIM SHOEMAKER, LYUDMILA SLIPCHENKO,
     TONY SMITH, JIE SONG, TETSUYA TAKETSUGU, SIMON WEBB,
     JORGE LUIS GALVEZ VALLEJO, PENG XU, SOOHAENG YOO,
     FEDERICO ZAHARIEV

  ADDITIONAL CODE HAS BEEN PROVIDED BY COLLABORATORS IN OTHER GROUPS:
     IOWA STATE UNIVERSITY:
          JOE IVANIC, AARON WEST, LAIMUTIS BYTAUTAS, KLAUS RUEDENBERG
     UNIVERSITY OF TOKYO: KIMIHIKO HIRAO, TAKAHITO NAKAJIMA,
          TAKAO TSUNEDA, MUNEAKI KAMIYA, SUSUMU YANAGISAWA,
          KIYOSHI YAGI, MAHITO CHIBA, SEIKEN TOKURA, NAOAKI KAWAKAMI
     UNIVERSITY OF AARHUS: FRANK JENSEN
     UNIVERSITY OF IOWA: VISVALDAS KAIRYS, HUI LI
     NATIONAL INST. OF STANDARDS AND TECHNOLOGY: WALT STEVENS, DAVID GARMER
     UNIVERSITY OF PISA: BENEDETTA MENNUCCI, JACOPO TOMASI
     UNIVERSITY OF MEMPHIS: HENRY KURTZ, PRAKASHAN KORAMBATH
     UNIVERSITY OF ALBERTA: TOBY ZENG, MARIUSZ KLOBUKOWSKI
     UNIVERSITY OF NEW ENGLAND: MARK SPACKMAN
     MIE UNIVERSITY: HIROAKI UMEDA
     NAT. INST. OF ADVANCED INDUSTRIAL SCIENCE AND TECHNOLOGY: KAZUO KITAURA
     MICHIGAN STATE UNIVERSITY:
          KAROL KOWALSKI, MARTA WLOCH, JEFFREY GOUR, JESSE LUTZ,
          WEI LI, JUN SHEN, J. EMILIANO DEUSTUA, PIOTR PIECUCH
     UNIVERSITY OF MINNESOTA:
          ANDREW SAND, PRACHI SHARMA, YINAN SHU
     UNIVERSITY OF SILESIA: MONIKA MUSIAL, STANISLAW KUCHARSKI
     FACULTES UNIVERSITAIRES NOTRE-DAME DE LA PAIX:
          OLIVIER QUINET, BENOIT CHAMPAGNE
     UNIVERSITY OF CALIFORNIA - SANTA BARBARA: BERNARD KIRTMAN
     INSTITUTE FOR MOLECULAR SCIENCE:
          KAZUYA ISHIMURA, MICHIO KATOUDA, AND SHIGERU NAGASE
     UNIVERSITY OF NOTRE DAME: ANNA POMOGAEVA, DAN CHIPMAN
     KYUSHU UNIVERSITY:
          HARUYUKI NAKANO,
          FENG LONG GU, JACEK KORCHOWIEC, MARCIN MAKOWSKI, AND YURIKO AOKI,
          HIROTOSHI MORI AND EISAKU MIYOSHI
     PENNSYLVANIA STATE UNIVERSITY:
          TZVETELIN IORDANOV, CHET SWALINA, JONATHAN SKONE,
          SHARON HAMMES-SCHIFFER
     WASEDA UNIVERSITY:
          MASATO KOBAYASHI, TOMOKO AKAMA, TSUGUKI TOUMA,
          TAKESHI YOSHIKAWA, YASUHIRO IKABATA, JUNJI SEINO,
          YUYA NAKAJIMA, HIROMI NAKAI
     NANJING UNIVERSITY: SHUHUA LI
     UNIVERSITY OF NEBRASKA:
          PEIFENG SU, DEJUN SI, NANDUN THELLAMUREGE, YALI WANG, HUI LI
     UNIVERSITY OF ZURICH: ROBERTO PEVERATI, KIM BALDRIDGE
     N. COPERNICUS UNIVERSITY AND JACKSON STATE UNIVERSITY:
          MARIA BARYSZ
     UNIVERSITY OF COPENHAGEN: Jimmy Kromann, CASPER STEINMANN
     TOKYO INSTITUTE OF TECHNOLOGY: HIROYA NAKATA
     NAGOYA UNIVERSITY: YOSHIO NISHIMOTO, STEPHAN IRLE
     MOSCOW STATE UNIVERSITY: VLADIMIR MIRONOV
     A.N.NESMEYANOV INSTITUTE OF ORGANOELEMENT COMPOUNDS OF RUSSIAN ACADEMY OF SCIENCES:
          IGOR S. GERASIMOV
     JOHANNES KEPLER UNIVERSITY LINZ:
          CHRISTIAN FRIEDL


 PARALLEL VERSION RUNNING ON        6 PROCESSORS IN        1 NODES.

 EXECUTION OF GAMESS BEGUN Mon May 25 19:05:30 2020

            ECHO OF THE FIRST FEW INPUT CARDS -
 INPUT CARD> $BASIS GBASIS=N21 NGAUSS=3 $END                                                
 INPUT CARD> $CONTRL SCFTYP=UHF MAXIT=60 MULT=2 ICHARG=1 $END                               
 INPUT CARD> $SYSTEM MEMDDI=1000 MWORDS=30 $END                                             
 INPUT CARD> $SCF DIRSCF=.TRUE. $END                                                        
 INPUT CARD> $STATPT OPTTOL=0.0001 NSTEP=999 $END                                           
 INPUT CARD> $DATA                                                                          
 INPUT CARD>                                                                                
 INPUT CARD>C1                                                                              
 INPUT CARD>C 6.0000000 -1.13361 0.32570 -0.02502                                           
 INPUT CARD>C 6.0000000 -1.74998 -0.94292 -0.04536                                          
 INPUT CARD>O 8.0000000 -3.09732 -1.05307 -0.24638                                          
 INPUT CARD>C 6.0000000 -0.97559 -2.08100 0.14013                                           
 INPUT CARD>C 6.0000000 0.40544 -1.96304 0.34556                                            
 INPUT CARD>C 6.0000000 1.02765 -0.71292 0.36921                                            
 INPUT CARD>C 6.0000000 2.52567 -0.57889 0.60372                                            
 INPUT CARD>C 6.0000000 3.25071 0.12404 -0.51775                                            
 INPUT CARD>C 6.0000000 3.99711 1.22466 -0.37992                                            
 INPUT CARD>C 6.0000000 0.23912 0.43767 0.17693                                             
 INPUT CARD>O 8.0000000 -2.00736 1.37149 -0.22063                                           
 INPUT CARD>C 6.0000000 -1.49346 2.69913 -0.20430                                           
 INPUT CARD>H 1.0000000 -3.45815 -0.15898 -0.35099                                          
 INPUT CARD>H 1.0000000 -1.46083 -3.05190 0.12244                                           
 INPUT CARD>H 1.0000000 0.99800 -2.86242 0.49176                                            
 INPUT CARD>H 1.0000000 2.71610 -0.04401 1.54410                                            
 INPUT CARD>H 1.0000000 2.94544 -1.58622 0.72694                                            
 INPUT CARD>H 1.0000000 3.13518 -0.32129 -1.50695                                           
 INPUT CARD>H 1.0000000 4.13474 1.70220 0.58855                                             
 INPUT CARD>H 1.0000000 4.50102 1.68135 -1.22740                                            
 INPUT CARD>H 1.0000000 0.71545 1.41238 0.18019                                             
 INPUT CARD>H 1.0000000 -0.75324 2.84588 -1.00018                                           
 INPUT CARD>H 1.0000000 -2.34906 3.35397 -0.37550                                           
 INPUT CARD>H 1.0000000 -1.03999 2.93395 0.76655                                            
 INPUT CARD> $END                                                                           
   30000000 WORDS OF MEMORY AVAILABLE

     BASIS OPTIONS
     -------------
     GBASIS=N21          IGAUSS=       3      POLAR=NONE    
     NDFUNC=       0     NFFUNC=       0     DIFFSP=       F
     NPFUNC=       0      DIFFS=       F     BASNAM=        


     RUN TITLE
     ---------
                                                                                 

 THE POINT GROUP OF THE MOLECULE IS C1      
 THE ORDER OF THE PRINCIPAL AXIS IS     0

 ATOM      ATOMIC                      COORDINATES (BOHR)
           CHARGE         X                   Y                   Z
 C           6.0    -2.1422122769        0.6154837542       -0.0472809442
 C           6.0    -3.3069826840       -1.7818604283       -0.0857179708
 O           8.0    -5.8530860963       -1.9900137459       -0.4655906889
 C           6.0    -1.8435977764       -3.9325197804        0.2648073027
 C           6.0     0.7661705045       -3.7096077029        0.6530137123
 C           6.0     1.9419769113       -1.3472234512        0.6977057319
 C           6.0     4.7728242354       -1.0939434770        1.1408653733
 C           6.0     6.1429511655        0.2344016115       -0.9784056301
 C           6.0     7.5534426428        2.3142718281       -0.7179446973
 C           6.0     0.4518712782        0.8270763730        0.3343492190
 O           8.0    -3.7933603587        2.5917402949       -0.4169302447
 C           6.0    -2.8222301736        5.1006161052       -0.3860710193
 H           1.0    -6.5349559244       -0.3004286375       -0.6632749244
 H           1.0    -2.7605684146       -5.7672547419        0.2313780499
 H           1.0     1.8859465357       -5.4091894618        0.9292916517
 H           1.0     5.1326847553       -0.0831668407        2.9179258976
 H           1.0     5.5660745133       -2.9975211562        1.3737174095
 H           1.0     5.9246311222       -0.6071500626       -2.8477225772
 H           1.0     7.8135256305        3.2166915763        1.1121982301
 H           1.0     8.5056944653        3.1772907895       -2.3194496773
 H           1.0     1.3520044579        2.6690111905        0.3405097257
 H           1.0    -1.4234172030        5.3779333939       -1.8900661384
 H           1.0    -4.4390797287        6.3380842710       -0.7095921084
 H           1.0    -1.9652961300        5.5443615617        1.4485694559

          INTERNUCLEAR DISTANCES (ANGS.)
          ------------------------------

                1 C          2 C          3 O          4 C          5 C     

   1 C       0.0000000    1.4105752 *  2.4095983 *  2.4175297 *  2.7828646 *
   2 C       1.4105752 *  0.0000000    1.3666994 *  1.3889969 *  2.4164641 *
   3 O       2.4095983 *  1.3666994 *  0.0000000    2.3890936 *  3.6671196  
   4 C       2.4175297 *  1.3889969 *  2.3890936 *  0.0000000    1.4011995 *
   5 C       2.7828646 *  2.4164641 *  3.6671196    1.4011995 *  0.0000000  
   6 C       2.4300604 *  2.8178000 *  4.1844988    2.4366147 *  1.3966047 *
   7 C       3.8215085    4.3399315    5.7066219    3.8379776    2.5451705 *
   8 C       4.4165271    5.1350225    6.4619436    4.8121325    3.6327357  
   9 C       5.2209550    6.1513720    7.4523033    5.9937956    4.8567320  
  10 C       1.3920161 *  2.4314523 *  3.6787673    2.7965288 *  2.4123654 *
  11 O       1.3767277 *  2.3352639 *  2.6584144 *  3.6213788    4.1546679  
  12 C       2.4072398 *  3.6545304    4.0808262    4.8204216    5.0639902  
  13 H       2.3968015 *  1.9041577 *  0.9698136 *  3.1778080    4.3205488  
  14 H       3.3966158    2.1353129 *  2.6094921 *  1.0855494 *  2.1721792 *
  15 H       3.8697457    3.3947566    4.5376474    2.1515851 *  1.0869159 *
  16 H       4.1736184    4.8249656    6.1660257    4.4439886    3.2339332  
  17 H       4.5672235    4.8017967    6.1438220    3.9954511    2.5959669 *
  18 H       4.5647870    5.1368723    6.4006714    4.7652788    3.6849175  
  19 H       5.4796653    6.4829338    7.7840422    6.3741004    5.2345685  
  20 H       5.9188310    6.8817885    8.1347541    6.7837064    5.7034689  
  21 H       2.1545318 *  3.4171122    4.5604408    3.8813561    3.3936579  
  22 H       2.7289056 *  4.0323910    4.6113704    5.0620048    5.1263308  
  23 H       3.2818553    4.3509945    4.4719757    5.6294931    6.0314006  
  24 H       2.7273276 *  4.0241030    4.5994524    5.0543321    5.1231837  

                6 C          7 C          8 C          9 C         10 C     

   1 C       2.4300604 *  3.8215085    4.4165271    5.2209550    1.3920161 *
   2 C       2.8178000 *  4.3399315    5.1350225    6.1513720    2.4314523 *
   3 O       4.1844988    5.7066219    6.4619436    7.4523033    3.6787673  
   4 C       2.4366147 *  3.8379776    4.8121325    5.9937956    2.7965288 *
   5 C       1.3966047 *  2.5451705 *  3.6327357    4.8567320    2.4123654 *
   6 C       0.0000000    1.5221770 *  2.5355859 *  3.6239626    1.4080513 *
   7 C       1.5221770 *  0.0000000    1.5091350 *  2.5269499 *  2.5384749 *
   8 C       2.5355859 *  1.5091350 *  0.0000000    1.3369646 *  3.1065444  
   9 C       3.6239626    2.5269499 *  1.3369646 *  0.0000000    3.8796809  
  10 C       1.4080513 *  2.5384749 *  3.1065444    3.8796809    0.0000000  
  11 O       3.7288017    5.0031886    5.4121818    6.0083768    2.4651057 *
  12 C       4.2810039    5.2489730    5.4070776    5.6878171    2.8742601 *
  13 H       4.5768919    6.0740347    6.7168975    7.5826248    3.7821285  
  14 H       3.4240700    4.7158871    5.7179583    6.9520098    3.8819966  
  15 H       2.1531948 *  2.7496945 *  3.8746298    5.1438030    3.4008250  
  16 H       2.1630235 *  1.0984875 *  2.1366502 *  2.6367334 *  2.8699476 *
  17 H       2.1374148 *  1.0982275 *  2.1371552 *  3.1987803    3.4238589  
  18 H       2.8486897 *  2.2119647 *  1.0909549 *  2.0983521 *  3.4349142  
  19 H       3.9414367    2.7915422 *  2.1203768 *  1.0885406 *  4.1163482  
  20 H       4.5106531    3.5162043    2.1194557 *  1.0866064 *  4.6564659  
  21 H       2.1564085 *  2.7242302 *  2.9282219 *  3.3344046    1.0848781 *
  22 H       4.2085455    5.0052768    4.8654668    5.0575589    2.8582935 *
  23 H       5.3381980    6.3394994    6.4660735    6.6938669    3.9381036  
  24 H       4.2110183    5.0080425    5.2872608    5.4413640    2.8662149 *

               11 O         12 C         13 H         14 H         15 H     

   1 C       1.3767277 *  2.4072398 *  2.3968015 *  3.3966158    3.8697457  
   2 C       2.3352639 *  3.6545304    1.9041577 *  2.1353129 *  3.3947566  
   3 O       2.6584144 *  4.0808262    0.9698136 *  2.6094921 *  4.5376474  
   4 C       3.6213788    4.8204216    3.1778080    1.0855494 *  2.1515851 *
   5 C       4.1546679    5.0639902    4.3205488    2.1721792 *  1.0869159 *
   6 C       3.7288017    4.2810039    4.5768919    3.4240700    2.1531948 *
   7 C       5.0031886    5.2489730    6.0740347    4.7158871    2.7496945 *
   8 C       5.4121818    5.4070776    6.7168975    5.7179583    3.8746298  
   9 C       6.0083768    5.6878171    7.5826248    6.9520098    5.1438030  
  10 C       2.4651057 *  2.8742601 *  3.7821285    3.8819966    3.4008250  
  11 O       0.0000000    1.4237232 *  2.1128473 *  4.4702093    5.2407711  
  12 C       1.4237232 *  0.0000000    3.4713567    5.7603967    6.1337355  
  13 H       2.1128473 *  3.4713567    0.0000000    3.5471692    5.2797811  
  14 H       4.4702093    5.7603967    3.5471692    0.0000000    2.4936208 *
  15 H       5.2407711    6.1337355    5.2797811    2.4936208 *  0.0000000  
  16 H       5.2372690    5.3199732    6.4595625    5.3399685    3.4644945  
  17 H       5.8460384    6.2398130    6.6486775    4.6828254    2.3401963 *
  18 H       5.5646959    5.6783926    6.6958635    5.5887790    3.8755286  
  19 H       6.2039934    5.7705386    7.8739256    7.3572501    5.5393377  
  20 H       6.5930728    6.1657441    8.2160390    7.7310658    5.9893661  
  21 H       2.7524576 *  2.5851192 *  4.4911314    4.9668225    4.2954424  
  22 H       2.0867058 *  1.0967617 *  4.0947734    6.0452269    6.1544630  
  23 H       2.0176646 *  1.0909520 *  3.6839516    6.4862984    7.1132591  
  24 H       2.0860514 *  1.0969618 *  4.0819860    6.0350960    6.1503510  

               16 H         17 H         18 H         19 H         20 H     

   1 C       4.1736184    4.5672235    4.5647870    5.4796653    5.9188310  
   2 C       4.8249656    4.8017967    5.1368723    6.4829338    6.8817885  
   3 O       6.1660257    6.1438220    6.4006714    7.7840422    8.1347541  
   4 C       4.4439886    3.9954511    4.7652788    6.3741004    6.7837064  
   5 C       3.2339332    2.5959669 *  3.6849175    5.2345685    5.7034689  
   6 C       2.1630235 *  2.1374148 *  2.8486897 *  3.9414367    4.5106531  
   7 C       1.0984875 *  1.0982275 *  2.2119647 *  2.7915422 *  3.5162043  
   8 C       2.1366502 *  2.1371552 *  1.0909549 *  2.1203768 *  2.1194557 *
   9 C       2.6367334 *  3.1987803    2.0983521 *  1.0885406 *  1.0866064 *
  10 C       2.8699476 *  3.4238589    3.4349142    4.1163482    4.6564659  
  11 O       5.2372690    5.8460384    5.5646959    6.2039934    6.5930728  
  12 C       5.3199732    6.2398130    5.6783926    5.7705386    6.1657441  
  13 H       6.4595625    6.6486775    6.6958635    7.8739256    8.2160390  
  14 H       5.3399685    4.6828254    5.5887790    7.3572501    7.7310658  
  15 H       3.4644945    2.3401963 *  3.8755286    5.5393377    5.9893661  
  16 H       0.0000000    1.7603292 *  3.0921543    2.4443536 *  3.7207551  
  17 H       1.7603292 *  0.0000000    2.5741627 *  3.4996132    4.1129415  
  18 H       3.0921543    2.5741627 *  0.0000000    3.0797325    2.4401299 *
  19 H       2.4443536 *  3.4996132    3.0797325    0.0000000    1.8526387 *
  20 H       3.7207551    4.1129415    2.4401299 *  1.8526387 *  0.0000000  
  21 H       2.8255836 *  3.7766907    3.4215707    3.4557630    4.0477395  
  22 H       5.1827739    6.0255031    5.0405944    5.2653979    5.3865580  
  23 H       6.3942926    7.3247922    6.6981045    6.7599851    7.1026043  
  24 H       4.8560315    6.0263719    5.7617215    5.3222855    6.0206009  

               21 H         22 H         23 H         24 H     

   1 C       2.1545318 *  2.7289056 *  3.2818553    2.7273276 *
   2 C       3.4171122    4.0323910    4.3509945    4.0241030  
   3 O       4.5604408    4.6113704    4.4719757    4.5994524  
   4 C       3.8813561    5.0620048    5.6294931    5.0543321  
   5 C       3.3936579    5.1263308    6.0314006    5.1231837  
   6 C       2.1564085 *  4.2085455    5.3381980    4.2110183  
   7 C       2.7242302 *  5.0052768    6.3394994    5.0080425  
   8 C       2.9282219 *  4.8654668    6.4660735    5.2872608  
   9 C       3.3344046    5.0575589    6.6938669    5.4413640  
  10 C       1.0848781 *  2.8582935 *  3.9381036    2.8662149 *
  11 O       2.7524576 *  2.0867058 *  2.0176646 *  2.0860514 *
  12 C       2.5851192 *  1.0967617 *  1.0909520 *  1.0969618 *
  13 H       4.4911314    4.0947734    3.6839516    4.0819860  
  14 H       4.9668225    6.0452269    6.4862984    6.0350960  
  15 H       4.2954424    6.1544630    7.1132591    6.1503510  
  16 H       2.8255836 *  5.1827739    6.3942926    4.8560315  
  17 H       3.7766907    6.0255031    7.3247922    6.0263719  
  18 H       3.4215707    5.0405944    6.6981045    5.7617215  
  19 H       3.4557630    5.2653979    6.7599851    5.3222855  
  20 H       4.0477395    5.3865580    7.1026043    6.0206009  
  21 H       0.0000000    2.3675401 *  3.6701205    2.3959472 *
  22 H       2.3675401 *  0.0000000    1.7874625 *  1.7920147 *
  23 H       3.6701205    1.7874625 *  0.0000000    1.7872771 *
  24 H       2.3959472 *  1.7920147 *  1.7872771 *  0.0000000  

  * ... LESS THAN  3.000


     ATOMIC BASIS SET
     ----------------
 THE CONTRACTED PRIMITIVE FUNCTIONS HAVE BEEN UNNORMALIZED
 THE CONTRACTED BASIS FUNCTIONS ARE NOW NORMALIZED TO UNITY

  SHELL TYPE  PRIMITIVE        EXPONENT          CONTRACTION COEFFICIENT(S)

 C         

      1   S       1           172.2560000    0.061766907377
      1   S       2            25.9109000    0.358794042852
      1   S       3             5.5333500    0.700713083689

      2   L       4             3.6649800   -0.395895162119    0.236459946619
      2   L       5             0.7705450    1.215834355681    0.860618805716

      3   L       6             0.1958570    1.000000000000    1.000000000000

 C         

      4   S       7           172.2560000    0.061766907377
      4   S       8            25.9109000    0.358794042852
      4   S       9             5.5333500    0.700713083689

      5   L      10             3.6649800   -0.395895162119    0.236459946619
      5   L      11             0.7705450    1.215834355681    0.860618805716

      6   L      12             0.1958570    1.000000000000    1.000000000000

 O         

      7   S      13           322.0370000    0.059239393389
      7   S      14            48.4308000    0.351499960776
      7   S      15            10.4206000    0.707657921031

      8   L      16             7.4029400   -0.404453583190    0.244586106967
      8   L      17             1.5762000    1.221561761397    0.853955373466

      9   L      18             0.3736840    1.000000000000    1.000000000000

 C         

     10   S      19           172.2560000    0.061766907377
     10   S      20            25.9109000    0.358794042852
     10   S      21             5.5333500    0.700713083689

     11   L      22             3.6649800   -0.395895162119    0.236459946619
     11   L      23             0.7705450    1.215834355681    0.860618805716

     12   L      24             0.1958570    1.000000000000    1.000000000000

 C         

     13   S      25           172.2560000    0.061766907377
     13   S      26            25.9109000    0.358794042852
     13   S      27             5.5333500    0.700713083689

     14   L      28             3.6649800   -0.395895162119    0.236459946619
     14   L      29             0.7705450    1.215834355681    0.860618805716

     15   L      30             0.1958570    1.000000000000    1.000000000000

 C         

     16   S      31           172.2560000    0.061766907377
     16   S      32            25.9109000    0.358794042852
     16   S      33             5.5333500    0.700713083689

     17   L      34             3.6649800   -0.395895162119    0.236459946619
     17   L      35             0.7705450    1.215834355681    0.860618805716

     18   L      36             0.1958570    1.000000000000    1.000000000000

 C         

     19   S      37           172.2560000    0.061766907377
     19   S      38            25.9109000    0.358794042852
     19   S      39             5.5333500    0.700713083689

     20   L      40             3.6649800   -0.395895162119    0.236459946619
     20   L      41             0.7705450    1.215834355681    0.860618805716

     21   L      42             0.1958570    1.000000000000    1.000000000000

 C         

     22   S      43           172.2560000    0.061766907377
     22   S      44            25.9109000    0.358794042852
     22   S      45             5.5333500    0.700713083689

     23   L      46             3.6649800   -0.395895162119    0.236459946619
     23   L      47             0.7705450    1.215834355681    0.860618805716

     24   L      48             0.1958570    1.000000000000    1.000000000000

 C         

     25   S      49           172.2560000    0.061766907377
     25   S      50            25.9109000    0.358794042852
     25   S      51             5.5333500    0.700713083689

     26   L      52             3.6649800   -0.395895162119    0.236459946619
     26   L      53             0.7705450    1.215834355681    0.860618805716

     27   L      54             0.1958570    1.000000000000    1.000000000000

 C         

     28   S      55           172.2560000    0.061766907377
     28   S      56            25.9109000    0.358794042852
     28   S      57             5.5333500    0.700713083689

     29   L      58             3.6649800   -0.395895162119    0.236459946619
     29   L      59             0.7705450    1.215834355681    0.860618805716

     30   L      60             0.1958570    1.000000000000    1.000000000000

 O         

     31   S      61           322.0370000    0.059239393389
     31   S      62            48.4308000    0.351499960776
     31   S      63            10.4206000    0.707657921031

     32   L      64             7.4029400   -0.404453583190    0.244586106967
     32   L      65             1.5762000    1.221561761397    0.853955373466

     33   L      66             0.3736840    1.000000000000    1.000000000000

 C         

     34   S      67           172.2560000    0.061766907377
     34   S      68            25.9109000    0.358794042852
     34   S      69             5.5333500    0.700713083689

     35   L      70             3.6649800   -0.395895162119    0.236459946619
     35   L      71             0.7705450    1.215834355681    0.860618805716

     36   L      72             0.1958570    1.000000000000    1.000000000000

 H         

     37   S      73             5.4471780    0.156284978695
     37   S      74             0.8245472    0.904690876670

     38   S      75             0.1831916    1.000000000000

 H         

     39   S      76             5.4471780    0.156284978695
     39   S      77             0.8245472    0.904690876670

     40   S      78             0.1831916    1.000000000000

 H         

     41   S      79             5.4471780    0.156284978695
     41   S      80             0.8245472    0.904690876670

     42   S      81             0.1831916    1.000000000000

 H         

     43   S      82             5.4471780    0.156284978695
     43   S      83             0.8245472    0.904690876670

     44   S      84             0.1831916    1.000000000000

 H         

     45   S      85             5.4471780    0.156284978695
     45   S      86             0.8245472    0.904690876670

     46   S      87             0.1831916    1.000000000000

 H         

     47   S      88             5.4471780    0.156284978695
     47   S      89             0.8245472    0.904690876670

     48   S      90             0.1831916    1.000000000000

 H         

     49   S      91             5.4471780    0.156284978695
     49   S      92             0.8245472    0.904690876670

     50   S      93             0.1831916    1.000000000000

 H         

     51   S      94             5.4471780    0.156284978695
     51   S      95             0.8245472    0.904690876670

     52   S      96             0.1831916    1.000000000000

 H         

     53   S      97             5.4471780    0.156284978695
     53   S      98             0.8245472    0.904690876670

     54   S      99             0.1831916    1.000000000000

 H         

     55   S     100             5.4471780    0.156284978695
     55   S     101             0.8245472    0.904690876670

     56   S     102             0.1831916    1.000000000000

 H         

     57   S     103             5.4471780    0.156284978695
     57   S     104             0.8245472    0.904690876670

     58   S     105             0.1831916    1.000000000000

 H         

     59   S     106             5.4471780    0.156284978695
     59   S     107             0.8245472    0.904690876670

     60   S     108             0.1831916    1.000000000000

 TOTAL NUMBER OF BASIS SET SHELLS             =   60
 NUMBER OF CARTESIAN GAUSSIAN BASIS FUNCTIONS =  132
 NUMBER OF ELECTRONS                          =   87
 CHARGE OF MOLECULE                           =    1
 SPIN MULTIPLICITY                            =    2
 NUMBER OF OCCUPIED ORBITALS (ALPHA)          =   44
 NUMBER OF OCCUPIED ORBITALS (BETA )          =   43
 TOTAL NUMBER OF ATOMS                        =   24
 THE NUCLEAR REPULSION ENERGY IS      668.4306035993

     $CONTRL OPTIONS
     ---------------
 SCFTYP=UHF          RUNTYP=ENERGY       EXETYP=RUN     
 MPLEVL=       0     CITYP =NONE         CCTYP =NONE         VBTYP =NONE    
 DFTTYP=NONE         TDDFT =NONE    
 MULT  =       2     ICHARG=       1     NZVAR =       0     COORD =UNIQUE  
 PP    =NONE         RELWFN=NONE         LOCAL =NONE         NUMGRD=       F
 ISPHER=      -1     NOSYM =       0     MAXIT =      60     UNITS =ANGS    
 PLTORB=       F     MOLPLT=       F     AIMPAC=       F     FRIEND=        
 NPRINT=       7     IREST =       0     GEOM  =INPUT   
 NORMF =       0     NORMP =       0     ITOL  =      20     ICUT  =       9
 INTTYP=BEST         GRDTYP=BEST         QMTTOL= 1.0E-06

     $SYSTEM OPTIONS
     ---------------
  REPLICATED MEMORY=    30000000 WORDS (ON EVERY NODE).
 DISTRIBUTED MEMDDI=        1000 MILLION WORDS IN AGGREGATE,
 MEMDDI DISTRIBUTED OVER   6 PROCESSORS IS   166666666 WORDS/PROCESSOR.
 TOTAL MEMORY REQUESTED ON EACH PROCESSOR=   196666666 WORDS.
 TIMLIM=      525600.00 MINUTES, OR     365.0 DAYS.
 PARALL= T  BALTYP=  DLB     KDIAG=    0  COREFL= F
 MXSEQ2=     300 MXSEQ3=     150  mem10=         0

          ----------------
          PROPERTIES INPUT
          ----------------

     MOMENTS            FIELD           POTENTIAL          DENSITY
 IEMOM =       1   IEFLD =       0   IEPOT =       0   IEDEN =       0
 WHERE =COMASS     WHERE =NUCLEI     WHERE =NUCLEI     WHERE =NUCLEI  
 OUTPUT=BOTH       OUTPUT=BOTH       OUTPUT=BOTH       OUTPUT=BOTH    
 IEMINT=       0   IEFINT=       0                     IEDINT=       0
                                                       MORB  =       0
          EXTRAPOLATION IN EFFECT
          SOSCF IN EFFECT
          DIIS or SOSCF will be reset if energy rises
 ORBITAL PRINTING OPTION: NPREO=     1   132     2     1

     -------------------------------
     INTEGRAL TRANSFORMATION OPTIONS
     -------------------------------
     NWORD  =            0
     CUTOFF = 1.0E-09     MPTRAN =       0
     DIRTRF =       T     AOINTS =DUP     

          ----------------------
          INTEGRAL INPUT OPTIONS
          ----------------------
 NOPK  =       1 NORDER=       0 SCHWRZ=       T

     ------------------------------------------
     THE POINT GROUP IS C1 , NAXIS= 0, ORDER= 1
     ------------------------------------------

     DIMENSIONS OF THE SYMMETRY SUBSPACES ARE
 A   =  132

 ..... DONE SETTING UP THE RUN .....
 CPU     0: STEP CPU TIME=     0.02 TOTAL CPU TIME=          0.0 (      0.0 MIN)
 TOTAL WALL CLOCK TIME=          0.0 SECONDS, CPU UTILIZATION IS    66.67%

          ********************
          1 ELECTRON INTEGRALS
          ********************
 ...... END OF ONE-ELECTRON INTEGRALS ......
 CPU     0: STEP CPU TIME=     0.02 TOTAL CPU TIME=          0.0 (      0.0 MIN)
 TOTAL WALL CLOCK TIME=          0.1 SECONDS, CPU UTILIZATION IS    80.00%

          -------------
          GUESS OPTIONS
          -------------
          GUESS =HUCKEL            NORB  =       0          NORDER=       0
          MIX   =       F          PRTMO =       F          PUNMO =       F
          TOLZ  = 1.0E-08          TOLE  = 1.0E-05
          SYMDEN=       F          PURIFY=       F

 INITIAL GUESS ORBITALS GENERATED BY HUCKEL   ROUTINE.
 HUCKEL GUESS REQUIRES    164928 WORDS.

 SYMMETRIES FOR INITIAL GUESS ORBITALS FOLLOW.  ALPHA SET(S).
    44 ORBITALS ARE OCCUPIED (   12 CORE ORBITALS).
    13=A       14=A       15=A       16=A       17=A       18=A       19=A   
    20=A       21=A       22=A       23=A       24=A       25=A       26=A   
    27=A       28=A       29=A       30=A       31=A       32=A       33=A   
    34=A       35=A       36=A       37=A       38=A       39=A       40=A   
    41=A       42=A       43=A       44=A       45=A       46=A       47=A   
    48=A       49=A       50=A       51=A       52=A       53=A       54=A   

 SYMMETRIES FOR INITIAL GUESS ORBITALS FOLLOW.   BETA SET(S).
    43 ORBITALS ARE OCCUPIED (   12 CORE ORBITALS).
    13=A       14=A       15=A       16=A       17=A       18=A       19=A   
    20=A       21=A       22=A       23=A       24=A       25=A       26=A   
    27=A       28=A       29=A       30=A       31=A       32=A       33=A   
    34=A       35=A       36=A       37=A       38=A       39=A       40=A   
    41=A       42=A       43=A       44=A       45=A       46=A       47=A   
    48=A       49=A       50=A       51=A       52=A       53=A   
 ...... END OF INITIAL ORBITAL SELECTION ......
 CPU     0: STEP CPU TIME=     0.05 TOTAL CPU TIME=          0.1 (      0.0 MIN)
 TOTAL WALL CLOCK TIME=          0.1 SECONDS, CPU UTILIZATION IS    81.82%

                    ----------------------
                    AO INTEGRAL TECHNOLOGY
                    ----------------------
     S,P,L SHELL ROTATED AXIS INTEGRALS, REPROGRAMMED BY
        KAZUYA ISHIMURA (IMS) AND JOSE SIERRA (SYNSTAR).
     S,P,D,L SHELL ROTATED AXIS INTEGRALS PROGRAMMED BY
        KAZUYA ISHIMURA (INSTITUTE FOR MOLECULAR SCIENCE).
     S,P,D,F,G SHELL TO TOTAL QUARTET ANGULAR MOMENTUM SUM 5,
        ERIC PROGRAM BY GRAHAM FLETCHER (ELORET AND NASA ADVANCED
        SUPERCOMPUTING DIVISION, AMES RESEARCH CENTER).
     S,P,D,F,G,L SHELL GENERAL RYS QUADRATURE PROGRAMMED BY
        MICHEL DUPUIS (PACIFIC NORTHWEST NATIONAL LABORATORY).

          --------------------
          2 ELECTRON INTEGRALS
          --------------------

 DIRECT SCF METHOD SKIPS INTEGRAL STORAGE ON DISK.
 DIRECT TRANSFORMATION SKIPS AO INTEGRAL STORAGE ON DISK.
  ...... END OF TWO-ELECTRON INTEGRALS .....
 CPU     0: STEP CPU TIME=     0.02 TOTAL CPU TIME=          0.1 (      0.0 MIN)
 TOTAL WALL CLOCK TIME=          0.1 SECONDS, CPU UTILIZATION IS    84.62%

          ---------------------------
                  UHF SCF CALCULATION
          ---------------------------

     NUCLEAR ENERGY =       668.4306035993
     MAXIT = 60     NPUNCH=  2     MULT=  2
     EXTRAP=T  DAMP=F  SHIFT=F  RSTRCT=F  DIIS=F  SOSCF=T
     DENSITY MATRIX CONV=  2.00E-05
     SOSCF WILL OPTIMIZE    3872 ALPHA AND    3827 BETA ROTATION ANGLES.
     SOGTOL= 2.500E-01
     MEMORY REQUIRED FOR UHF/ROHF ITERS=    278261 WORDS.

 DIRECT SCF CALCULATION, SCHWRZ=T   FDIFF=T
 SCHWARZ INEQUALITY OVERHEAD:      8014 INTEGRALS, T=        0.00

                                                                                NONZERO     BLOCKS
 ITER EX      TOTAL ENERGY        E CHANGE  DENSITY CHANGE    ORB. GRAD       INTEGRALS    SKIPPED
   1  0     -530.8203581939  -530.8203581939   0.698579355   0.000000000       19824202    1009920
          ---------------START SECOND ORDER SCF---------------
   2  1     -532.0475648180    -1.2272066241   0.154070418   0.036272162       19741598    1029511
   3  2     -532.1108879742    -0.0633231562   0.069537958   0.024935684       19470960    1070351
   4  3     -532.1250634588    -0.0141754846   0.030554881   0.007086718       19114881    1102419
   5  4     -532.1272359615    -0.0021725027   0.023432784   0.005566702       18624507    1133664
   6  5     -532.1285751217    -0.0013391602   0.017095457   0.002872803       18574114    1138736
   7  6     -532.1290857462    -0.0005106245   0.007340423   0.001853731       18387970    1149799
   8  7     -532.1292212912    -0.0001355450   0.006072344   0.001417859       17754380    1179688
   9  8     -532.1292912508    -0.0000699596   0.004322386   0.000756903       17627578    1185870
  10  9     -532.1293205591    -0.0000293084   0.004530348   0.000576282       17226843    1204739
  11 10     -532.1293423456    -0.0000217864   0.003773247   0.000487061       17242523    1203224
  12 11     -532.1293576341    -0.0000152885   0.004981795   0.000506216       17067374    1210126
  13 12     -532.1293754218    -0.0000177877   0.007812433   0.000697241       17238640    1204230
  14 13     -532.1293992573    -0.0000238355   0.012508910   0.000591757       17513856    1193084
  15 14     -532.1294319349    -0.0000326776   0.017033125   0.000680416       17792075    1181455
  16 15     -532.1294707221    -0.0000387872   0.019080252   0.000662850       17971558    1173818
  17 16     -532.1295089021    -0.0000381800   0.015514820   0.000695774       18040542    1170693
  18 17     -532.1295411881    -0.0000322860   0.008997683   0.000906053       17939802    1175643
  19 18     -532.1295658776    -0.0000246895   0.004424337   0.000626884       17674000    1187768
  20 19     -532.1295782647    -0.0000123871   0.003085897   0.000334370       17302671    1203650
  21 20     -532.1295834976    -0.0000052330   0.001216945   0.000293772       16954141    1215572
  22 21     -532.1295861302    -0.0000026326   0.001387048   0.000301110       16293431    1237849
  23 22     -532.1295885691    -0.0000024389   0.002916950   0.000325073       16061318    1244439
  24 23     -532.1295928063    -0.0000042372   0.006082343   0.000313915       16337846    1232755
  25 24     -532.1296005910    -0.0000077847   0.012092413   0.000308705       16623496    1221449
  26 25     -532.1296139151    -0.0000133241   0.010960876   0.000538377       16961853    1208529
  27 26     -532.1296281988    -0.0000142837   0.006556618   0.000590836       17319941    1200619
  28 27     -532.1296445200    -0.0000163213   0.001748760   0.000366286       17513876    1192700
  29 28     -532.1296503822    -0.0000058621   0.001150054   0.000153385       16697699    1222873
  30 29     -532.1296510629    -0.0000006808   0.000505849   0.000063765       16038978    1249113
  31 30     -532.1296512501    -0.0000001871   0.000200453   0.000019387       15257823    1274434
  32 31     -532.1296512775    -0.0000000274   0.000092632   0.000012712       14380897    1306356
  33 32     -532.1296512839    -0.0000000065   0.000021700   0.000004706       13531671    1336276
  34 33     -532.1296512858    -0.0000000019   0.000009669   0.000001709       12408162    1367821
  35 34     -532.1296512864    -0.0000000005   0.000006679   0.000000936       11449804    1396815

          -----------------
          DENSITY CONVERGED
          -----------------
     TIME TO FORM FOCK OPERATORS=      11.1 SECONDS (       0.3 SEC/ITER)
     FOCK TIME ON FIRST ITERATION=       0.3, LAST ITERATION=       0.2
     TIME TO SOLVE SCF EQUATIONS=       0.6 SECONDS (       0.0 SEC/ITER)

 FINAL UHF ENERGY IS     -532.1296512864 AFTER  35 ITERATIONS

          --------------------
          SPIN SZ   =    0.500
          S-SQUARED =    0.951
          --------------------

  ----- ALPHA SET ----- 

          ------------
          EIGENVECTORS
          ------------

                      1          2          3          4          5
                  -20.7233   -20.6953   -11.5038   -11.4789   -11.4135
                     A          A          A          A          A   
    1  C  1  S   -0.000237  -0.000070  -0.013104   0.987112   0.000770
    2  C  1  S   -0.001748   0.001670  -0.006467   0.099875   0.000189
    3  C  1  X   -0.001004   0.000016   0.000297   0.000335  -0.000640
    4  C  1  Y    0.000066   0.000502   0.001569  -0.000938   0.000245
    5  C  1  Z   -0.000157  -0.000022  -0.000045   0.000108  -0.000100
    6  C  1  S    0.022615  -0.002975   0.048907  -0.091910  -0.008059
    7  C  1  X    0.026152  -0.025499   0.006856  -0.022560  -0.003733
    8  C  1  Y   -0.015572   0.028674  -0.031032   0.029935   0.004858
    9  C  1  Z    0.004921  -0.005619   0.002868  -0.005204  -0.000950
   10  C  2  S   -0.000031  -0.000182   0.987216   0.012058   0.000692
   11  C  2  S    0.002021  -0.001409   0.099976  -0.003575  -0.000691
   12  C  2  X   -0.000303  -0.000293   0.001134  -0.000783  -0.000183
   13  C  2  Y   -0.000312   0.000605   0.000338  -0.001095   0.000027
   14  C  2  Z   -0.000028  -0.000084   0.000153  -0.000058  -0.000034
   15  C  2  S   -0.004914   0.016551  -0.096203   0.038926   0.009309
   16  C  2  X   -0.044983   0.021411  -0.040747   0.023408   0.005733
   17  C  2  Y    0.003922  -0.006501  -0.004868   0.013527  -0.001339
   18  C  2  Z   -0.007145   0.003687  -0.005968   0.002806   0.000972
   19  O  3  S    0.983791   0.009815   0.000291  -0.000099  -0.000027
   20  O  3  S    0.101662  -0.000448   0.003125  -0.001041  -0.000246
   21  O  3  X    0.003263  -0.000218   0.000883  -0.000291  -0.000039
   22  O  3  Y    0.002774   0.000187   0.000012   0.000242  -0.000002
   23  O  3  Z    0.000349  -0.000043   0.000136  -0.000058  -0.000005
   24  O  3  S   -0.061133   0.007230  -0.008817   0.005304   0.001306
   25  O  3  X   -0.013678   0.003009  -0.005030   0.001704   0.000343
   26  O  3  Y   -0.006401   0.000073  -0.000139  -0.001867   0.000127
   27  O  3  Z   -0.001750   0.000454  -0.000771   0.000369   0.000041
   28  C  4  S   -0.000319   0.000180  -0.002650  -0.001047  -0.002506
   29  C  4  S   -0.001713   0.000624  -0.005325  -0.000176  -0.000115
   30  C  4  X   -0.001081   0.000353  -0.000028   0.000539  -0.000766
   31  C  4  Y   -0.000102  -0.000798  -0.001622  -0.001248  -0.000155
   32  C  4  Z   -0.000159   0.000099   0.000092   0.000153  -0.000128
   33  C  4  S    0.028390  -0.020138   0.046591  -0.015931  -0.009243
   34  C  4  X    0.014916  -0.002206   0.006307  -0.007263  -0.000684
   35  C  4  Y    0.020844  -0.009149   0.030658  -0.007234  -0.007399
   36  C  4  Z    0.001069   0.000199  -0.000834  -0.000684   0.000418
   37  C  5  S    0.000257  -0.000154  -0.000224  -0.001329  -0.010341
   38  C  5  S    0.001042  -0.000795   0.000631  -0.001303  -0.005025
   39  C  5  X    0.000776   0.000204   0.001245   0.000369  -0.000477
   40  C  5  Y   -0.000068  -0.000211  -0.000082  -0.000338  -0.001555
   41  C  5  Z    0.000121   0.000047   0.000193   0.000079   0.000077
   42  C  5  S   -0.023251   0.009455  -0.022933   0.013465   0.032126
   43  C  5  X    0.009424  -0.006602   0.008274  -0.007794   0.001979
   44  C  5  Y   -0.008309   0.006278  -0.011065   0.006494   0.019765
   45  C  5  Z    0.001948  -0.001393   0.001939  -0.001589  -0.001020
   46  C  6  S   -0.000195   0.000258  -0.001033  -0.000451   0.987292
   47  C  6  S   -0.000922   0.001105  -0.001233   0.000697   0.101162
   48  C  6  X    0.000513   0.000398   0.000656   0.000747  -0.000682
   49  C  6  Y    0.000101  -0.000243   0.000067  -0.000536   0.000007
   50  C  6  Z    0.000081   0.000062   0.000108   0.000132  -0.000245
   51  C  6  S    0.013016  -0.021050   0.016455  -0.020647  -0.094212
   52  C  6  X   -0.013114   0.011745  -0.014536   0.012120   0.014275
   53  C  6  Y   -0.001243  -0.006668  -0.001107  -0.004409   0.000513
   54  C  6  Z   -0.001990   0.002214  -0.002227   0.002153   0.002083
   55  C  7  S   -0.000043  -0.000021  -0.000205  -0.000700  -0.000383
   56  C  7  S   -0.000145  -0.000166  -0.000433  -0.000898  -0.000505
   57  C  7  X   -0.000351   0.000079  -0.000239   0.000317   0.000063
   58  C  7  Y    0.000051  -0.000078  -0.000019  -0.000333   0.000076
   59  C  7  Z   -0.000063  -0.000028  -0.000025   0.000066  -0.000053
   60  C  7  S    0.005142  -0.001852   0.005901  -0.000726   0.005212
   61  C  7  X   -0.001778   0.000857  -0.002367  -0.000253  -0.007787
   62  C  7  Y   -0.000555   0.002108  -0.000266   0.003091  -0.002235
   63  C  7  Z   -0.000293   0.000400  -0.000482   0.000016   0.002429
   64  C  8  S    0.000003   0.000011  -0.000063  -0.000243  -0.001841
   65  C  8  S    0.000014   0.000038  -0.000082  -0.000239  -0.001475
   66  C  8  X   -0.000015   0.000091   0.000028   0.000240   0.001154
   67  C  8  Y    0.000069   0.000127   0.000041   0.000061   0.000779
   68  C  8  Z   -0.000001   0.000060  -0.000037  -0.000032  -0.000189
   69  C  8  S   -0.000362  -0.000583  -0.000198  -0.000216   0.001565
   70  C  8  X    0.000076  -0.000387   0.000200  -0.000196  -0.005706
   71  C  8  Y   -0.000179  -0.000901   0.000041  -0.000439  -0.005785
   72  C  8  Z   -0.000248  -0.000797  -0.000197  -0.000746   0.002358
   73  C  9  S   -0.000007   0.000005  -0.000019   0.000078  -0.000292
   74  C  9  S   -0.000045   0.000073  -0.000031   0.000114  -0.000397
   75  C  9  X   -0.000006  -0.000113   0.000004  -0.000089  -0.000231
   76  C  9  Y    0.000002  -0.000043   0.000005  -0.000040   0.000057
   77  C  9  Z   -0.000017   0.000049  -0.000015   0.000061   0.000144
   78  C  9  S    0.000269   0.000755   0.000028   0.000258   0.005316
   79  C  9  X   -0.000134   0.000006  -0.000056   0.000198  -0.000524
   80  C  9  Y   -0.000129  -0.000232  -0.000015   0.000019  -0.002715
   81  C  9  Z    0.000176  -0.000084   0.000169  -0.000128  -0.001940
   82  C 10  S    0.000283  -0.000280  -0.000325  -0.003018  -0.005402
   83  C 10  S    0.001138  -0.001491   0.000391  -0.005543  -0.004504
   84  C 10  X    0.000841  -0.000573   0.001038   0.001321  -0.000640
   85  C 10  Y    0.000151   0.001188   0.000305   0.001134   0.001368
   86  C 10  Z    0.000130  -0.000166   0.000154   0.000126  -0.000251
   87  C 10  S   -0.027088   0.026035  -0.019934   0.048693   0.033835
   88  C 10  X    0.010901  -0.003008   0.005990  -0.018800   0.004475
   89  C 10  Y    0.010664  -0.024777   0.013582  -0.023412  -0.018763
   90  C 10  Z    0.000964   0.001121   0.000039  -0.001386   0.002060
   91  O 11  S   -0.010216   0.983810  -0.000085   0.000259   0.000031
   92  O 11  S   -0.002550   0.101787  -0.000987   0.002873   0.000209
   93  O 11  X   -0.000371   0.003644  -0.000148   0.000637  -0.000055
   94  O 11  Y    0.000052  -0.000301   0.000383  -0.001001   0.000032
   95  O 11  Z   -0.000057   0.000608  -0.000042   0.000158  -0.000014
   96  O 11  S    0.009908  -0.060736   0.004675  -0.007691  -0.001754
   97  O 11  X    0.002623  -0.011386   0.001471  -0.003286  -0.000163
   98  O 11  Y   -0.003099   0.004386  -0.001777   0.004694  -0.000008
   99  O 11  Z    0.000571  -0.002070   0.000311  -0.000787  -0.000007
  100  C 12  S   -0.000058  -0.000505  -0.000936  -0.000912  -0.001863
  101  C 12  S   -0.000559  -0.001348  -0.001182  -0.000669  -0.000641
  102  C 12  X    0.000055  -0.000713  -0.000176  -0.000189  -0.000349
  103  C 12  Y    0.000401  -0.002193   0.000321   0.000601   0.000267
  104  C 12  Z   -0.000014   0.000001  -0.000044  -0.000061  -0.000069
  105  C 12  S    0.001097   0.011573   0.003211  -0.000282   0.000796
  106  C 12  X   -0.000304  -0.001098   0.001324   0.002343   0.001475
  107  C 12  Y   -0.001456  -0.004334  -0.002924  -0.001211  -0.001243
  108  C 12  Z    0.000048   0.000017   0.000367   0.000430   0.000303
  109  H 13  S    0.003699  -0.000732   0.000179  -0.000018  -0.000051
  110  H 13  S    0.003566   0.002322  -0.000203   0.001305   0.000263
  111  H 14  S    0.001789  -0.000194   0.000684  -0.000576  -0.000469
  112  H 14  S    0.007538  -0.001227   0.008068  -0.000885  -0.000971
  113  H 15  S   -0.000339   0.000567  -0.000621   0.000392  -0.000375
  114  H 15  S   -0.002090   0.002406  -0.002085   0.002605   0.003178
  115  H 16  S   -0.000102  -0.000180  -0.000173  -0.000397  -0.001131
  116  H 16  S   -0.000045  -0.000464  -0.000032  -0.000478   0.001538
  117  H 17  S   -0.000113   0.000216  -0.000126   0.000203  -0.000263
  118  H 17  S   -0.000604   0.000497  -0.000337   0.001268  -0.000846
  119  H 18  S   -0.000018  -0.000110  -0.000009  -0.000104  -0.000818
  120  H 18  S   -0.000085  -0.000481  -0.000053  -0.000449   0.000234
  121  H 19  S   -0.000044   0.000042  -0.000036   0.000064   0.000118
  122  H 19  S   -0.000030  -0.000074  -0.000032  -0.000082   0.000772
  123  H 20  S    0.000016  -0.000022   0.000020  -0.000014  -0.000351
  124  H 20  S    0.000080  -0.000100   0.000058  -0.000172  -0.000436
  125  H 21  S   -0.000336   0.001858  -0.000653   0.000641  -0.000270
  126  H 21  S   -0.003004   0.006894  -0.003539   0.007002   0.002150
  127  H 22  S   -0.000201  -0.001005  -0.000460  -0.000344  -0.000284
  128  H 22  S    0.000510  -0.001675  -0.000095  -0.000489  -0.000145
  129  H 23  S   -0.000062  -0.000944   0.000041   0.000497   0.000107
  130  H 23  S    0.000176  -0.001018   0.000986   0.001100   0.000986
  131  H 24  S   -0.000202  -0.001003  -0.000452  -0.000367  -0.000264
  132  H 24  S    0.000478  -0.001651  -0.000125  -0.000410  -0.000197

                      6          7          8          9         10
                  -11.3937   -11.3910   -11.3879   -11.3699   -11.3339
                     A          A          A          A          A   
    1  C  1  S    0.000817   0.001327   0.000808   0.001950   0.000485
    2  C  1  S   -0.001016  -0.000089  -0.000446  -0.004648  -0.000874
    3  C  1  X   -0.000226   0.000228  -0.000472  -0.001682  -0.000524
    4  C  1  Y    0.000157   0.000904  -0.001807   0.000035   0.000059
    5  C  1  Z   -0.000044  -0.000017   0.000025  -0.000255  -0.000045
    6  C  1  S    0.014786  -0.009733  -0.004492   0.041506   0.004138
    7  C  1  X    0.008109  -0.004439   0.006990   0.025546   0.006214
    8  C  1  Y   -0.006252   0.004003   0.018449  -0.008797   0.000303
    9  C  1  Z    0.001605  -0.000920   0.000021   0.004403   0.000618
   10  C  2  S    0.000494   0.001719   0.000536   0.000694   0.000126
   11  C  2  S    0.000799  -0.004500  -0.001362   0.000103  -0.000181
   12  C  2  X   -0.000498  -0.001105  -0.000153  -0.000502  -0.000123
   13  C  2  Y    0.000447   0.001403   0.000283  -0.000742  -0.000088
   14  C  2  Z   -0.000102  -0.000253  -0.000038  -0.000030  -0.000033
   15  C  2  S   -0.019271   0.037730   0.016101  -0.011540  -0.000068
   16  C  2  X   -0.012064   0.019316   0.007669  -0.008987  -0.001832
   17  C  2  Y    0.003179  -0.012648   0.007923   0.001853   0.002240
   18  C  2  Z   -0.002039   0.003716   0.000699  -0.001493  -0.000302
   19  O  3  S    0.000028  -0.000035  -0.000049   0.000025   0.000015
   20  O  3  S    0.000181  -0.000544  -0.000482   0.000127   0.000094
   21  O  3  X   -0.000119  -0.000289  -0.000073  -0.000178  -0.000044
   22  O  3  Y    0.000194  -0.000009   0.000121  -0.000111   0.000020
   23  O  3  Z   -0.000030  -0.000043  -0.000019  -0.000022  -0.000002
   24  O  3  S   -0.001982   0.002438   0.002108  -0.001915  -0.000736
   25  O  3  X    0.000139   0.000763   0.000546   0.000208  -0.000082
   26  O  3  Y   -0.001084   0.000990  -0.000798   0.000239  -0.000245
   27  O  3  Z    0.000084   0.000056   0.000135   0.000020  -0.000026
   28  C  4  S   -0.093349   0.982861  -0.003028   0.003113   0.001044
   29  C  4  S   -0.014005   0.099174  -0.000070  -0.000659  -0.000571
   30  C  4  X   -0.001346   0.000372   0.000354  -0.000101  -0.000433
   31  C  4  Y   -0.000876   0.001792  -0.000150  -0.000236  -0.000170
   32  C  4  Z   -0.000155  -0.000047   0.000064   0.000002  -0.000085
   33  C  4  S    0.049501  -0.090723  -0.003280   0.013966   0.001851
   34  C  4  X    0.018205  -0.007259  -0.003664   0.003864   0.000516
   35  C  4  Y    0.019608  -0.022868  -0.002832   0.007226   0.002203
   36  C  4  Z    0.001652   0.000205  -0.000399   0.000158   0.000022
   37  C  5  S    0.983054   0.092378   0.002388   0.003053   0.001996
   38  C  5  S    0.099773   0.004879   0.000002   0.000356  -0.000592
   39  C  5  X   -0.001063   0.001386  -0.000149  -0.000312  -0.000610
   40  C  5  Y    0.001457  -0.000328  -0.000151  -0.000971  -0.000212
   41  C  5  Z   -0.000244   0.000226  -0.000016   0.000009   0.000020
   42  C  5  S   -0.100886   0.029292   0.002922  -0.013174   0.001272
   43  C  5  X    0.015472  -0.017294  -0.001500   0.008061  -0.001771
   44  C  5  Y   -0.025514   0.010433   0.000328  -0.007149   0.002050
   45  C  5  Z    0.003860  -0.003239  -0.000233   0.001672  -0.000465
   46  C  6  S    0.009252   0.003675   0.001795   0.004647   0.000146
   47  C  6  S   -0.003197   0.000380  -0.000125  -0.003518  -0.001293
   48  C  6  X    0.001460   0.000707   0.000430   0.001713  -0.000552
   49  C  6  Y    0.001409   0.000717  -0.000113  -0.001075   0.000303
   50  C  6  Z    0.000150   0.000099   0.000088   0.000351  -0.000177
   51  C  6  S    0.037257  -0.011781  -0.002054   0.034891   0.017529
   52  C  6  X   -0.026159   0.004997  -0.001836  -0.028309   0.021549
   53  C  6  Y   -0.017509   0.001633  -0.000241   0.012018  -0.001648
   54  C  6  Z   -0.003083   0.000651  -0.000306  -0.005149   0.002473
   55  C  7  S   -0.002065  -0.001415  -0.000293  -0.002665   0.988125
   56  C  7  S   -0.001309  -0.000906  -0.000248  -0.001219   0.105545
   57  C  7  X   -0.000086   0.000347  -0.000037   0.000046  -0.000516
   58  C  7  Y    0.000133   0.000292   0.000094  -0.000022  -0.000058
   59  C  7  Z    0.000003   0.000122   0.000004   0.000100  -0.000351
   60  C  7  S    0.010007   0.000905   0.001770   0.009601  -0.101367
   61  C  7  X   -0.004466  -0.001600  -0.000941  -0.005132   0.005168
   62  C  7  Y    0.001762  -0.002036  -0.000680  -0.003543  -0.001451
   63  C  7  Z   -0.000799  -0.000707  -0.000238  -0.001079   0.008079
   64  C  8  S   -0.000535  -0.000171  -0.000006  -0.000670  -0.003220
   65  C  8  S   -0.000396  -0.000119  -0.000005  -0.000281  -0.001958
   66  C  8  X    0.000122  -0.000033  -0.000019   0.000188  -0.000105
   67  C  8  Y    0.000069  -0.000135   0.000002  -0.000041   0.000049
   68  C  8  Z   -0.000155  -0.000120  -0.000027  -0.000100  -0.000222
   69  C  8  S    0.000160   0.001002   0.000138   0.001019   0.019418
   70  C  8  X    0.000148   0.000823   0.000240   0.000394  -0.010086
   71  C  8  Y    0.000033   0.001455   0.000273   0.001169  -0.009478
   72  C  8  Z   -0.000277   0.001195   0.000221   0.001130   0.012742
   73  C  9  S    0.000081   0.000015   0.000030   0.000180  -0.003140
   74  C  9  S    0.000085   0.000051   0.000026   0.000136  -0.001196
   75  C  9  X   -0.000055   0.000048  -0.000014  -0.000099   0.000457
   76  C  9  Y   -0.000018   0.000094   0.000029   0.000139   0.000453
   77  C  9  Z    0.000046  -0.000037  -0.000011  -0.000033  -0.000174
   78  C  9  S   -0.000208  -0.001556  -0.000327  -0.001321   0.004362
   79  C  9  X    0.000285   0.000388   0.000105   0.000669  -0.001029
   80  C  9  Y    0.000193   0.000479   0.000071   0.000163  -0.002390
   81  C  9  Z   -0.000130  -0.000013   0.000032   0.000017  -0.003541
   82  C 10  S   -0.002526  -0.003694  -0.000551   0.987536   0.002492
   83  C 10  S   -0.000072  -0.001135   0.000215   0.099984  -0.000335
   84  C 10  X   -0.000421   0.000172   0.000360  -0.000991  -0.000853
   85  C 10  Y    0.000891   0.000413  -0.000268  -0.001461   0.000237
   86  C 10  Z   -0.000110   0.000002   0.000065  -0.000058  -0.000307
   87  C 10  S   -0.014762   0.008125  -0.006220  -0.101981   0.000068
   88  C 10  X    0.008651  -0.003182   0.002877   0.013875   0.004998
   89  C 10  Y    0.008540  -0.004857  -0.003749   0.025261  -0.004705
   90  C 10  Z    0.000777  -0.000167   0.000683   0.000566   0.001747
   91  O 11  S   -0.000038  -0.000005  -0.000018  -0.000043  -0.000015
   92  O 11  S   -0.000317  -0.000105   0.000866  -0.000524  -0.000136
   93  O 11  X   -0.000015   0.000033   0.000897   0.000031   0.000055
   94  O 11  Y    0.000050   0.000313   0.000856   0.000373   0.000160
   95  O 11  Z   -0.000005  -0.000013   0.000096  -0.000018  -0.000017
   96  O 11  S    0.002073  -0.000520   0.002695   0.003418   0.000816
   97  O 11  X    0.000215  -0.000233  -0.003145  -0.000932  -0.000350
   98  O 11  Y   -0.000717  -0.001176   0.000634  -0.002415  -0.001095
   99  O 11  Z    0.000072   0.000032  -0.000509   0.000004   0.000084
  100  C 12  S   -0.002756   0.002806   0.987194   0.000590   0.000218
  101  C 12  S   -0.000443   0.000246   0.099154  -0.000087  -0.000180
  102  C 12  X   -0.000007  -0.000092   0.000275  -0.000060  -0.000164
  103  C 12  Y    0.000051  -0.000148  -0.001527  -0.000054   0.000010
  104  C 12  Z   -0.000005  -0.000006   0.000125  -0.000003  -0.000029
  105  C 12  S    0.000738   0.000478  -0.066770   0.001310   0.000776
  106  C 12  X    0.000066  -0.000138  -0.003267  -0.000573   0.000382
  107  C 12  Y   -0.000502  -0.000127  -0.000314  -0.000876  -0.000679
  108  C 12  Z    0.000043  -0.000027  -0.000536  -0.000093   0.000104
  109  H 13  S    0.000268  -0.000039   0.000314  -0.000167   0.000060
  110  H 13  S   -0.000138   0.001445  -0.000205   0.000734   0.000087
  111  H 14  S    0.000362  -0.002267  -0.000389   0.000160   0.000057
  112  H 14  S    0.005031   0.006048  -0.000994   0.002047   0.001098
  113  H 15  S   -0.002363  -0.000145  -0.000050  -0.000662   0.000352
  114  H 15  S    0.004390   0.005275   0.000204  -0.001986   0.000135
  115  H 16  S   -0.000452   0.000084  -0.000006  -0.000151   0.001215
  116  H 16  S   -0.000241   0.000582   0.000103   0.000744   0.013816
  117  H 17  S   -0.000123  -0.000515  -0.000174  -0.000631   0.001562
  118  H 17  S    0.000127   0.000019  -0.000184  -0.000485   0.014788
  119  H 18  S   -0.000071   0.000154   0.000035   0.000065  -0.000905
  120  H 18  S   -0.000148   0.000734   0.000148   0.000721   0.001789
  121  H 19  S    0.000042   0.000028   0.000008   0.000057   0.000383
  122  H 19  S   -0.000009   0.000081   0.000007   0.000077   0.000812
  123  H 20  S   -0.000004   0.000029   0.000011   0.000026  -0.000614
  124  H 20  S   -0.000179   0.000029   0.000021   0.000033   0.000069
  125  H 21  S   -0.000630   0.000171   0.000466  -0.002250  -0.000047
  126  H 21  S   -0.002379   0.001677   0.001594   0.005164   0.001279
  127  H 22  S   -0.000075  -0.000022  -0.000188  -0.000116  -0.000154
  128  H 22  S    0.000027  -0.000118   0.014327  -0.000118  -0.000029
  129  H 23  S   -0.000004  -0.000070  -0.000842  -0.000128  -0.000010
  130  H 23  S    0.000048  -0.000065   0.012553  -0.000175   0.000291
  131  H 24  S   -0.000073  -0.000023  -0.000183  -0.000135  -0.000116
  132  H 24  S    0.000010  -0.000098   0.014345   0.000006  -0.000126

                     11         12         13         14         15
                  -11.3135   -11.2925    -1.6444    -1.6038    -1.3779
                     A          A          A          A          A   
    1  C  1  S    0.000213  -0.000036  -0.053889  -0.067428  -0.081976
    2  C  1  S   -0.000278   0.000165   0.063915   0.069978   0.098532
    3  C  1  X   -0.000273  -0.000043  -0.035406  -0.041805   0.042796
    4  C  1  Y   -0.000057  -0.000088   0.010113   0.070348  -0.073757
    5  C  1  Z   -0.000176   0.000004  -0.006008  -0.010485   0.010816
    6  C  1  S    0.000010  -0.002025   0.021834   0.167899   0.150606
    7  C  1  X    0.002657  -0.000449  -0.042988   0.091581   0.033063
    8  C  1  Y    0.002140   0.001827  -0.007576  -0.116554  -0.012713
    9  C  1  Z    0.001021  -0.000236  -0.006093   0.020900   0.005924
   10  C  2  S    0.000032   0.000000  -0.084944   0.028604  -0.086919
   11  C  2  S   -0.000186  -0.000074   0.095038  -0.024099   0.103925
   12  C  2  X   -0.000005   0.000006  -0.074207   0.055224   0.094164
   13  C  2  Y   -0.000082   0.000025   0.011948   0.020469   0.000857
   14  C  2  Z    0.000018  -0.000007  -0.012095   0.007302   0.014441
   15  C  2  S    0.002371   0.001193   0.116409  -0.132758   0.182848
   16  C  2  X    0.000395   0.000754   0.086111  -0.130743   0.040429
   17  C  2  Y    0.001782   0.000892   0.005925   0.021101   0.015054
   18  C  2  Z   -0.000212   0.000103   0.012881  -0.021345   0.005317
   19  O  3  S    0.000004  -0.000004  -0.191867   0.113283   0.043457
   20  O  3  S    0.000022  -0.000029   0.176626  -0.099926  -0.042916
   21  O  3  X   -0.000013   0.000001   0.051447  -0.024542   0.021631
   22  O  3  Y    0.000014   0.000020   0.055988  -0.027640  -0.019511
   23  O  3  Z   -0.000010   0.000001   0.004814  -0.002259   0.004400
   24  O  3  S   -0.000147   0.000200   0.627785  -0.403125  -0.148634
   25  O  3  X   -0.000034   0.000044   0.087518  -0.053061   0.009277
   26  O  3  Y   -0.000171  -0.000121   0.069214  -0.038950  -0.020298
   27  O  3  Z    0.000042   0.000005   0.009645  -0.006024   0.002557
   28  C  4  S    0.000123   0.000015  -0.015572   0.005074  -0.093737
   29  C  4  S    0.000004   0.000034   0.022133  -0.010444   0.107391
   30  C  4  X   -0.000175   0.000013  -0.010025   0.004942   0.023532
   31  C  4  Y   -0.000006  -0.000038   0.017199  -0.001958   0.061149
   32  C  4  Z    0.000009   0.000005  -0.002545   0.000878   0.000070
   33  C  4  S   -0.001670  -0.001107  -0.030486   0.097760   0.171394
   34  C  4  X   -0.001285  -0.000959  -0.045766   0.029577   0.002197
   35  C  4  Y   -0.000736   0.000024  -0.045567   0.059189   0.010901
   36  C  4  Z   -0.000395  -0.000184  -0.004362   0.001069  -0.000337
   37  C  5  S    0.000430  -0.000052  -0.003911   0.000524  -0.094216
   38  C  5  S   -0.000448   0.000085   0.003381   0.003087   0.108481
   39  C  5  X    0.000117   0.000032  -0.006030   0.001253  -0.026941
   40  C  5  Y   -0.000106   0.000020   0.003359   0.001668   0.054871
   41  C  5  Z   -0.000200   0.000007  -0.001118   0.000088  -0.007340
   42  C  5  S    0.004404  -0.000313   0.057109  -0.053439   0.158956
   43  C  5  X   -0.002443  -0.001834  -0.017539   0.034543  -0.008717
   44  C  5  Y    0.003211  -0.000429   0.009024  -0.025884   0.007863
   45  C  5  Z    0.000172  -0.000160  -0.003258   0.006875  -0.001799
   46  C  6  S    0.001616   0.000202  -0.002955  -0.003099  -0.106226
   47  C  6  S   -0.001094  -0.000250   0.004186  -0.000600   0.117471
   48  C  6  X   -0.001229  -0.000209  -0.005977  -0.003092  -0.051852
   49  C  6  Y   -0.000549   0.000245   0.000528   0.002113  -0.010392
   50  C  6  Z    0.000175   0.000038  -0.000970  -0.000574  -0.007691
   51  C  6  S    0.000583   0.000290   0.011903   0.078980   0.232286
   52  C  6  X    0.009778   0.002514   0.020668  -0.045772  -0.021362
   53  C  6  Y    0.000388  -0.002436   0.015921   0.023900  -0.001012
   54  C  6  Z    0.001345   0.000249   0.002388  -0.008553  -0.002574
   55  C  7  S    0.002867   0.003065   0.000033  -0.000201  -0.032218
   56  C  7  S   -0.000580  -0.000288   0.001628   0.000722   0.032097
   57  C  7  X   -0.000113  -0.000338   0.000356  -0.000818  -0.023290
   58  C  7  Y   -0.000255  -0.000578   0.000078   0.000412  -0.001679
   59  C  7  Z   -0.000044   0.000321   0.000094  -0.000063  -0.005535
   60  C  7  S    0.010876  -0.000548  -0.016338   0.009119   0.071750
   61  C  7  X    0.010754   0.000916   0.007102  -0.002965   0.005654
   62  C  7  Y    0.008578   0.000858  -0.001827  -0.007850   0.002377
   63  C  7  Z   -0.004934  -0.001440   0.000878  -0.001124  -0.005936
   64  C  8  S    0.987034   0.000139  -0.000066  -0.000094  -0.010933
   65  C  8  S    0.098844  -0.003768   0.000061  -0.000007   0.014181
   66  C  8  X   -0.000328  -0.001382  -0.000243  -0.000342  -0.007196
   67  C  8  Y    0.000330  -0.002054  -0.000392  -0.000286  -0.003345
   68  C  8  Z    0.001079  -0.000383   0.000013  -0.000101   0.006380
   69  C  8  S   -0.077666   0.024713   0.002153   0.001902   0.013496
   70  C  8  X   -0.002532   0.008696   0.000062   0.001191   0.008389
   71  C  8  Y   -0.006967   0.012680   0.002004   0.002714   0.008564
   72  C  8  Z   -0.010490   0.001416   0.001804   0.002359  -0.006659
   73  C  9  S   -0.000623   0.986901   0.000005  -0.000032  -0.003411
   74  C  9  S   -0.004120   0.096083   0.000061  -0.000102   0.004463
   75  C  9  X    0.001214  -0.000214   0.000154   0.000246  -0.002443
   76  C  9  Y    0.001702  -0.000256   0.000016   0.000095  -0.003263
   77  C  9  Z   -0.000088   0.000006   0.000005  -0.000109   0.000238
   78  C  9  S    0.028341  -0.069951  -0.001936  -0.002349  -0.001962
   79  C  9  X   -0.009548   0.004793   0.000445   0.000008   0.000346
   80  C  9  Y   -0.012401   0.007106   0.000837   0.000755   0.004309
   81  C  9  Z    0.003489   0.000953  -0.000440   0.000294   0.003915
   82  C 10  S    0.000653  -0.000170  -0.009692  -0.012652  -0.082932
   83  C 10  S   -0.000087  -0.000016   0.010810   0.019438   0.096730
   84  C 10  X   -0.000558   0.000157  -0.012997  -0.014340  -0.020022
   85  C 10  Y    0.000242   0.000227  -0.003755   0.000256  -0.057081
   86  C 10  Z    0.000361  -0.000008  -0.001766  -0.002170   0.000479
   87  C 10  S   -0.000301   0.001830   0.043157  -0.089893   0.108544
   88  C 10  X    0.001889  -0.000658  -0.028210   0.015867  -0.001487
   89  C 10  Y   -0.004826  -0.003066   0.017489   0.090341  -0.002782
   90  C 10  Z   -0.000626   0.000232  -0.005341  -0.003278  -0.000279
   91  O 11  S    0.000001   0.000011  -0.098351  -0.196280   0.037903
   92  O 11  S   -0.000001   0.000092   0.090608   0.173705  -0.035989
   93  O 11  X    0.000015  -0.000000   0.028435   0.059952   0.002135
   94  O 11  Y    0.000080  -0.000014  -0.011166   0.000438  -0.029451
   95  O 11  Z    0.000044  -0.000002   0.005306   0.009796   0.001827
   96  O 11  S    0.000013  -0.000490   0.302202   0.665684  -0.129662
   97  O 11  X   -0.000209  -0.000104   0.039982   0.101539  -0.004082
   98  O 11  Y   -0.000462   0.000140  -0.010290  -0.018454  -0.023372
   99  O 11  Z   -0.000211  -0.000010   0.007180   0.017504   0.000493
  100  C 12  S   -0.000008  -0.000022  -0.022520  -0.052323   0.021056
  101  C 12  S   -0.000041   0.000022   0.025713   0.054853  -0.019739
  102  C 12  X    0.000005   0.000031  -0.006859  -0.015789   0.009377
  103  C 12  Y   -0.000074  -0.000033  -0.025323  -0.053747   0.014995
  104  C 12  Z    0.000011   0.000006   0.000181   0.000157   0.000745
  105  C 12  S    0.000492   0.000041   0.029917   0.082018  -0.047902
  106  C 12  X   -0.000183  -0.000132  -0.002539  -0.003402  -0.004506
  107  C 12  Y    0.000086   0.000215   0.006008  -0.002440   0.007335
  108  C 12  Z   -0.000045  -0.000032  -0.000745  -0.000328  -0.001060
  109  H 13  S    0.000039   0.000029   0.078851  -0.042415  -0.030529
  110  H 13  S    0.000053  -0.000019   0.007147   0.001060  -0.012761
  111  H 14  S   -0.000091   0.000012   0.000512   0.000309   0.028146
  112  H 14  S   -0.000171  -0.000049  -0.022726   0.014421  -0.011054
  113  H 15  S    0.000241   0.000123   0.000393  -0.001720   0.030446
  114  H 15  S    0.001234   0.000229  -0.000718  -0.010265  -0.005825
  115  H 16  S   -0.000964  -0.000158   0.000763   0.000501   0.012527
  116  H 16  S   -0.001485   0.000499   0.000795   0.001499  -0.005246
  117  H 17  S   -0.000874   0.000064   0.000108  -0.000561   0.012559
  118  H 17  S    0.002675   0.000586   0.001014  -0.003011  -0.003701
  119  H 18  S   -0.001572  -0.000974   0.000188   0.000250   0.004979
  120  H 18  S    0.009278   0.001418   0.000941   0.001537  -0.001532
  121  H 19  S   -0.001668  -0.001241   0.000064  -0.000079   0.001102
  122  H 19  S   -0.001132   0.012023   0.000207   0.000203  -0.001578
  123  H 20  S   -0.000538  -0.001254  -0.000010   0.000065   0.001425
  124  H 20  S    0.002643   0.012148  -0.000151   0.000337   0.000240
  125  H 21  S   -0.000407  -0.000103   0.000760   0.000319   0.026134
  126  H 21  S    0.003495   0.002087  -0.006340  -0.025797  -0.006348
  127  H 22  S    0.000085   0.000058   0.007017   0.014873  -0.005746
  128  H 22  S   -0.000327  -0.000133  -0.001437  -0.000715   0.003443
  129  H 23  S   -0.000062  -0.000025   0.005229   0.012855  -0.008709
  130  H 23  S   -0.000162  -0.000121  -0.003346  -0.002967  -0.003239
  131  H 24  S    0.000026   0.000064   0.007036   0.014892  -0.005747
  132  H 24  S   -0.000175  -0.000141  -0.001406  -0.000840   0.003305

                     16         17         18         19         20
                   -1.2698    -1.2266    -1.1915    -1.1270    -1.0898
                     A          A          A          A          A   
    1  C  1  S    0.067178  -0.119012  -0.001099   0.012232   0.018758
    2  C  1  S   -0.077021   0.131912   0.003642  -0.008338  -0.015475
    3  C  1  X    0.037131   0.046877  -0.071501   0.153680  -0.068893
    4  C  1  Y    0.070732  -0.022451  -0.035919  -0.033443  -0.063555
    5  C  1  Z    0.001547   0.008304  -0.009075   0.025628  -0.006402
    6  C  1  S   -0.147776   0.319232  -0.017932  -0.047418  -0.111805
    7  C  1  X   -0.036392   0.066681  -0.024728   0.030340  -0.059775
    8  C  1  Y    0.000737  -0.042327   0.009365  -0.016833   0.010284
    9  C  1  Z   -0.005571   0.012662  -0.004533   0.005475  -0.009317
   10  C  2  S    0.101245   0.006689  -0.064266  -0.021238  -0.075997
   11  C  2  S   -0.116591  -0.007473   0.073448   0.025136   0.084958
   12  C  2  X   -0.073168  -0.007590   0.027112   0.016480  -0.007576
   13  C  2  Y   -0.011545   0.145046  -0.018369  -0.073800  -0.014661
   14  C  2  Z   -0.010597  -0.009679   0.005231   0.006836  -0.000141
   15  C  2  S   -0.258067  -0.017592   0.179238   0.056036   0.254402
   16  C  2  X   -0.051467  -0.025059   0.041861   0.028237   0.066575
   17  C  2  Y   -0.029798   0.041242   0.007242  -0.057956   0.002033
   18  C  2  Z   -0.006301  -0.006304   0.005819   0.007803   0.010169
   19  O  3  S   -0.044145   0.003544   0.026102  -0.007321   0.025742
   20  O  3  S    0.044047  -0.003374  -0.026581   0.006787  -0.027767
   21  O  3  X   -0.045525  -0.008447   0.044957   0.016003   0.090334
   22  O  3  Y    0.022437   0.030279  -0.022668  -0.037924  -0.042711
   23  O  3  Z   -0.008234  -0.003072   0.008146   0.004656   0.016306
   24  O  3  S    0.157486  -0.016324  -0.092899   0.031010  -0.087951
   25  O  3  X   -0.031825  -0.010844   0.037201   0.015825   0.083933
   26  O  3  Y    0.024618   0.022957  -0.021979  -0.031625  -0.040942
   27  O  3  Z   -0.006231  -0.003000   0.006958   0.004258   0.015228
   28  C  4  S    0.058154   0.124252  -0.037399  -0.013457   0.016191
   29  C  4  S   -0.063984  -0.133763   0.041120   0.014610  -0.014519
   30  C  4  X    0.044214  -0.035855  -0.048596  -0.059701  -0.104003
   31  C  4  Y   -0.049546  -0.015786   0.028342   0.027131   0.043251
   32  C  4  Z    0.009663  -0.004639  -0.009323  -0.010825  -0.018290
   33  C  4  S   -0.131422  -0.284413   0.093188   0.027352  -0.077553
   34  C  4  X    0.002717  -0.010852  -0.009021  -0.000084  -0.044331
   35  C  4  Y   -0.002313  -0.016375  -0.002961   0.004001  -0.020705
   36  C  4  Z    0.000682  -0.000669  -0.000683  -0.000227  -0.005627
   37  C  5  S   -0.046786   0.102986   0.040894   0.064115   0.070394
   38  C  5  S    0.051561  -0.112177  -0.042881  -0.068191  -0.075016
   39  C  5  X    0.063650   0.057503  -0.026221  -0.028791   0.048188
   40  C  5  Y    0.050209   0.004117  -0.039358  -0.007180   0.012964
   41  C  5  Z    0.006713   0.008450  -0.002382  -0.004281   0.007323
   42  C  5  S    0.089240  -0.236523  -0.104005  -0.174079  -0.181931
   43  C  5  X    0.001517   0.010633   0.011387   0.001863   0.012980
   44  C  5  Y   -0.001698  -0.017528  -0.018604  -0.003027  -0.001931
   45  C  5  Z   -0.000337   0.002421   0.000809   0.000229   0.002597
   46  C  6  S   -0.127387  -0.004905   0.056125   0.020559  -0.033107
   47  C  6  S    0.137764   0.004702  -0.056718  -0.021023   0.035013
   48  C  6  X    0.021400   0.004756   0.084852  -0.029373   0.117727
   49  C  6  Y   -0.006930   0.090360   0.005869   0.092055   0.031015
   50  C  6  Z    0.001811  -0.005398   0.006904  -0.011285   0.020862
   51  C  6  S    0.311330   0.028930  -0.168843  -0.061603   0.092087
   52  C  6  X   -0.026477  -0.021103  -0.004746  -0.006783   0.044913
   53  C  6  Y    0.001512   0.017201  -0.000852   0.033847   0.008572
   54  C  6  Z   -0.002630  -0.004292  -0.000631  -0.004044   0.010535
   55  C  7  S   -0.102252  -0.018244  -0.087272   0.022105  -0.114330
   56  C  7  S    0.094076   0.016590   0.080222  -0.020183   0.101649
   57  C  7  X   -0.032227   0.000925   0.048230   0.015126  -0.038047
   58  C  7  Y    0.003620   0.013874   0.030491   0.021146  -0.023721
   59  C  7  Z   -0.018081  -0.005534  -0.031122  -0.005567   0.018037
   60  C  7  S    0.275899   0.056909   0.252782  -0.070916   0.376409
   61  C  7  X   -0.014109  -0.006222  -0.014094   0.002280  -0.008969
   62  C  7  Y    0.002859  -0.003904  -0.001791   0.005393  -0.000026
   63  C  7  Z   -0.017627  -0.003906  -0.011078   0.001601  -0.007440
   64  C  8  S   -0.061065  -0.021530  -0.145498  -0.021681   0.063336
   65  C  8  S    0.068811   0.023214   0.155870   0.022317  -0.065058
   66  C  8  X   -0.013855  -0.001404   0.022850   0.014540  -0.081479
   67  C  8  Y   -0.003540   0.003624   0.039740   0.022082  -0.101893
   68  C  8  Z    0.025806   0.006567   0.032596  -0.003860   0.036704
   69  C  8  S    0.117063   0.050091   0.335343   0.060471  -0.185039
   70  C  8  X    0.015418   0.002759   0.004130  -0.001520  -0.002393
   71  C  8  Y    0.019622   0.006468   0.013333   0.002880  -0.012004
   72  C  8  Z   -0.004795   0.004634   0.016603   0.005522  -0.011035
   73  C  9  S   -0.028807  -0.013044  -0.104247  -0.026893   0.114376
   74  C  9  S    0.034180   0.014782   0.117167   0.029280  -0.123954
   75  C  9  X   -0.017171  -0.006830  -0.048716  -0.009588   0.030103
   76  C  9  Y   -0.022930  -0.009056  -0.069195  -0.013289   0.046554
   77  C  9  Z    0.001194  -0.000005  -0.002081  -0.002430   0.014728
   78  C  9  S    0.032511   0.018719   0.197809   0.060349  -0.274798
   79  C  9  X    0.002604   0.000206  -0.001371  -0.002006   0.006699
   80  C  9  Y    0.008729   0.002009  -0.002740  -0.002389   0.012065
   81  C  9  Z    0.005473   0.000088  -0.004374  -0.003174   0.013023
   82  C 10  S   -0.034951  -0.095785   0.063798  -0.079992   0.035919
   83  C 10  S    0.036850   0.107596  -0.068592   0.083472  -0.038627
   84  C 10  X    0.067636  -0.054839   0.000804  -0.022957   0.052974
   85  C 10  Y   -0.033464  -0.010284   0.030844   0.003187  -0.005786
   86  C 10  Z    0.012090  -0.007920  -0.003114  -0.004044   0.009686
   87  C 10  S    0.081841   0.148925  -0.134247   0.225724  -0.062354
   88  C 10  X   -0.025766   0.014503   0.011077  -0.024563  -0.004236
   89  C 10  Y    0.009919   0.013385   0.017255  -0.010699  -0.007753
   90  C 10  Z   -0.005175   0.001388  -0.000272  -0.002782  -0.000113
   91  O 11  S   -0.019483   0.035121  -0.004749   0.043710   0.001192
   92  O 11  S    0.018073  -0.035588   0.005804  -0.039335   0.002023
   93  O 11  X   -0.003034   0.021522  -0.007717   0.021268  -0.017330
   94  O 11  Y    0.050659  -0.092310  -0.023327   0.171591   0.024905
   95  O 11  Z   -0.003178   0.008128   0.000051  -0.005618  -0.003695
   96  O 11  S    0.070051  -0.117436   0.013423  -0.182938  -0.018796
   97  O 11  X    0.001886   0.012886  -0.006491   0.015600  -0.016433
   98  O 11  Y    0.044612  -0.090930  -0.015735   0.159142   0.031429
   99  O 11  Z   -0.002091   0.006746  -0.000139  -0.005921  -0.004021
  100  C 12  S   -0.029458   0.057125   0.014519  -0.151147  -0.028525
  101  C 12  S    0.029116  -0.057961  -0.013764   0.152484   0.029841
  102  C 12  X   -0.007610   0.019801  -0.001315   0.003220  -0.005924
  103  C 12  Y   -0.013948   0.021364   0.002583   0.010238   0.006790
  104  C 12  Z   -0.000548   0.002085  -0.000343  -0.000051  -0.001180
  105  C 12  S    0.072933  -0.141998  -0.042252   0.432592   0.081435
  106  C 12  X    0.004178  -0.003216  -0.005113   0.031240  -0.001648
  107  C 12  Y   -0.004423   0.002079   0.003029   0.011750   0.009438
  108  C 12  Z    0.000929  -0.000638  -0.000875   0.004584  -0.000784
  109  H 13  S    0.038733   0.014951  -0.032277  -0.024399  -0.056837
  110  H 13  S    0.015924  -0.004788  -0.011659  -0.008005  -0.023148
  111  H 14  S   -0.022561  -0.060268   0.020178   0.009260  -0.008503
  112  H 14  S    0.004990  -0.008147  -0.002908   0.003641  -0.014256
  113  H 15  S    0.023890  -0.050193  -0.018135  -0.045636  -0.039703
  114  H 15  S    0.003403  -0.007756  -0.005779  -0.013470  -0.007965
  115  H 16  S    0.043895   0.010685   0.045060  -0.008373   0.063610
  116  H 16  S   -0.005841   0.002184   0.004825   0.001581   0.004612
  117  H 17  S    0.043177   0.003205   0.040397  -0.018888   0.067800
  118  H 17  S   -0.005411  -0.006298  -0.006692  -0.005794   0.010184
  119  H 18  S    0.026278   0.009253   0.063228   0.009641  -0.030477
  120  H 18  S   -0.001895   0.001695   0.002268   0.002063  -0.007797
  121  H 19  S    0.012021   0.005702   0.047271   0.013103  -0.058222
  122  H 19  S   -0.001739   0.000485   0.004656   0.002392  -0.011371
  123  H 20  S    0.010578   0.004992   0.042676   0.013062  -0.062773
  124  H 20  S   -0.002247  -0.000673  -0.004303   0.000760  -0.009342
  125  H 21  S    0.021172   0.044818  -0.027536   0.054269  -0.016351
  126  H 21  S    0.002549  -0.003003  -0.011075   0.021040   0.000266
  127  H 22  S    0.011981  -0.023008  -0.008253   0.090645   0.016153
  128  H 22  S   -0.002405   0.004919   0.000589   0.004558   0.000409
  129  H 23  S    0.014076  -0.031238  -0.006880   0.091069   0.021551
  130  H 23  S    0.002007  -0.004532  -0.001534   0.016333   0.002933
  131  H 24  S    0.011946  -0.023009  -0.008226   0.090576   0.016191
  132  H 24  S   -0.002388   0.004659   0.000368   0.004422   0.000889

                     21         22         23         24         25
                   -1.0355    -1.0055    -0.9503    -0.8991    -0.8937
                     A          A          A          A          A   
    1  C  1  S   -0.038957   0.066125  -0.035337  -0.011301   0.017552
    2  C  1  S    0.044956  -0.070130   0.040644   0.011116  -0.017895
    3  C  1  X   -0.093740  -0.081302   0.036558   0.173085  -0.081806
    4  C  1  Y   -0.161242  -0.045566   0.135598  -0.003911  -0.020158
    5  C  1  Z   -0.004517  -0.009740  -0.002521   0.019523  -0.027058
    6  C  1  S    0.123223  -0.268801   0.117197   0.091436  -0.090509
    7  C  1  X   -0.024717  -0.095083   0.107193   0.110138  -0.062602
    8  C  1  Y   -0.101658   0.036217   0.080285  -0.004915  -0.005934
    9  C  1  Z    0.002562  -0.016738   0.011722   0.011103  -0.022697
   10  C  2  S   -0.035021  -0.059672  -0.009626   0.000844  -0.005042
   11  C  2  S    0.040833   0.064926   0.009416  -0.001807   0.006639
   12  C  2  X    0.026996  -0.071743  -0.197054   0.070748  -0.097788
   13  C  2  Y    0.221559  -0.051230  -0.044118  -0.100246   0.079282
   14  C  2  Z   -0.008616  -0.008127  -0.027942   0.011531  -0.031285
   15  C  2  S    0.097879   0.235103   0.057950   0.021337  -0.003021
   16  C  2  X    0.021653   0.055422  -0.089491   0.045745  -0.048082
   17  C  2  Y    0.110413  -0.012288  -0.003248  -0.113396   0.081073
   18  C  2  Z   -0.002994   0.009281  -0.013786   0.009383  -0.021494
   19  O  3  S    0.020042   0.018167  -0.004351  -0.029499   0.017179
   20  O  3  S   -0.022426  -0.021117   0.004225   0.030415  -0.018881
   21  O  3  X    0.003786   0.142623   0.214228  -0.055505   0.107192
   22  O  3  Y    0.084887  -0.082067  -0.180175  -0.099929   0.021498
   23  O  3  Z   -0.004281   0.026470   0.042825  -0.007320   0.004568
   24  O  3  S   -0.070888  -0.058386   0.014246   0.117280  -0.066175
   25  O  3  X    0.004056   0.142705   0.199947  -0.054003   0.109110
   26  O  3  Y    0.072253  -0.078392  -0.171455  -0.095305   0.018023
   27  O  3  Z   -0.003499   0.026256   0.040166  -0.007238   0.005268
   28  C  4  S    0.084961   0.048618   0.037782   0.036119   0.000769
   29  C  4  S   -0.087790  -0.048258  -0.038238  -0.033254  -0.003245
   30  C  4  X    0.076135  -0.096297  -0.021318  -0.032787   0.070475
   31  C  4  Y    0.028504   0.068656  -0.059246   0.132802  -0.070716
   32  C  4  Z    0.010061  -0.018862   0.000231  -0.016749   0.006616
   33  C  4  S   -0.275499  -0.199794  -0.123985  -0.178278   0.029149
[...]
   11 O             0.078130                     0.087388
   12 C            -0.015117                    -0.010536
   13 H            -0.012273                    -0.009740
   14 H            -0.014032                    -0.008930
   15 H             0.007644                     0.004736
   16 H             0.027981                     0.023109
   17 H             0.015778                     0.012678
   18 H            -0.025388                    -0.014422
   19 H             0.025193                     0.013750
   20 H             0.025546                     0.014018
   21 H             0.035150                     0.020581
   22 H             0.005675                     0.003996
   23 H            -0.000027                    -0.000178
   24 H             0.005848                     0.004094


          ********* ALL ELECTRONS ********

               ----- POPULATIONS IN EACH AO -----
                             MULLIKEN      LOWDIN
              1  C  1  S      1.98816     1.97584
              2  C  1  S      0.41152     0.42656
              3  C  1  X      0.62025     0.59026
              4  C  1  Y      0.53992     0.52730
              5  C  1  Z      0.41178     0.39620
              6  C  1  S      0.74490     0.50052
              7  C  1  X      0.23852     0.46588
              8  C  1  Y      0.09666     0.41053
              9  C  1  Z      0.51509     0.53492
             10  C  2  S      1.98853     1.97637
             11  C  2  S      0.42411     0.43527
             12  C  2  X      0.53313     0.51015
             13  C  2  Y      0.67595     0.64761
             14  C  2  Z      0.34709     0.33044
             15  C  2  S      0.79024     0.50017
             16  C  2  X      0.02701     0.38814
             17  C  2  Y      0.32759     0.48265
             18  C  2  Z      0.44841     0.47118
             19  O  3  S      1.98698     1.98044
             20  O  3  S      0.42026     0.57607
             21  O  3  X      0.59721     0.58346
             22  O  3  Y      0.72152     0.70714
             23  O  3  Z      0.76602     0.77016
             24  O  3  S      1.56562     0.99267
             25  O  3  X      0.76481     0.78070
             26  O  3  Y      0.85965     0.86854
             27  O  3  Z      0.95516     0.94736
             28  C  4  S      1.98831     1.97673
             29  C  4  S      0.40100     0.41866
             30  C  4  X      0.60991     0.58603
             31  C  4  Y      0.59832     0.57518
             32  C  4  Z      0.41212     0.40036
             33  C  4  S      0.87813     0.53648
             34  C  4  X      0.33766     0.48871
             35  C  4  Y      0.41548     0.52417
             36  C  4  Z      0.56950     0.58920
             37  C  5  S      1.98857     1.97706
             38  C  5  S      0.40493     0.42296
             39  C  5  X      0.60771     0.58338
             40  C  5  Y      0.61290     0.58809
             41  C  5  Z      0.36876     0.35489
             42  C  5  S      0.91275     0.53645
             43  C  5  X      0.33558     0.49587
             44  C  5  Y      0.43314     0.51933
             45  C  5  Z      0.52418     0.54662
             46  C  6  S      1.98895     1.97699
             47  C  6  S      0.40548     0.42465
             48  C  6  X      0.60411     0.59532
             49  C  6  Y      0.62013     0.59788
             50  C  6  Z      0.34592     0.33155
             51  C  6  S      0.86307     0.52005
             52  C  6  X      0.40877     0.50978
             53  C  6  Y      0.30660     0.48749
             54  C  6  Z      0.45890     0.47170
             55  C  7  S      1.98959     1.97599
             56  C  7  S      0.34485     0.40984
             57  C  7  X      0.50144     0.48467
             58  C  7  Y      0.56768     0.54320
             59  C  7  Z      0.55363     0.52840
             60  C  7  S      1.18796     0.55355
             61  C  7  X      0.25389     0.49185
             62  C  7  Y      0.58413     0.58641
             63  C  7  Z      0.51559     0.57868
             64  C  8  S      1.98779     1.97702
             65  C  8  S      0.38946     0.41708
             66  C  8  X      0.48549     0.47157
             67  C  8  Y      0.55369     0.53121
             68  C  8  Z      0.54423     0.51813
             69  C  8  S      0.91061     0.55158
             70  C  8  X      0.48366     0.56636
             71  C  8  Y      0.40231     0.54074
             72  C  8  Z      0.46458     0.54584
             73  C  9  S      1.98721     1.97757
             74  C  9  S      0.39645     0.42449
             75  C  9  X      0.46615     0.44923
             76  C  9  Y      0.54270     0.51715
             77  C  9  Z      0.56444     0.52963
             78  C  9  S      0.97591     0.58163
             79  C  9  X      0.48692     0.56640
             80  C  9  Y      0.38927     0.53614
             81  C  9  Z      0.58652     0.58424
             82  C 10  S      1.98833     1.97642
             83  C 10  S      0.39336     0.41421
             84  C 10  X      0.58504     0.56326
             85  C 10  Y      0.60207     0.58121
             86  C 10  Z      0.44271     0.43345
             87  C 10  S      0.87061     0.53261
             88  C 10  X      0.21229     0.47750
             89  C 10  Y      0.52073     0.54277
             90  C 10  Z      0.60379     0.62546
             91  O 11  S      1.98668     1.97988
             92  O 11  S      0.40694     0.56218
             93  O 11  X      0.71711     0.71887
             94  O 11  Y      0.56848     0.55907
             95  O 11  Z      0.81338     0.82334
             96  O 11  S      1.54747     0.96413
             97  O 11  X      0.93105     0.93085
             98  O 11  Y      0.75679     0.74495
             99  O 11  Z      0.98971     0.97632
            100  C 12  S      1.98741     1.97604
            101  C 12  S      0.36845     0.42359
            102  C 12  X      0.57618     0.54263
            103  C 12  Y      0.39753     0.39232
            104  C 12  Z      0.58671     0.54561
            105  C 12  S      1.05771     0.59346
            106  C 12  X      0.54428     0.58054
            107  C 12  Y      0.23489     0.38349
            108  C 12  Z      0.54982     0.60011
            109  H 13  S      0.39571     0.40936
            110  H 13  S      0.13405     0.27460
            111  H 14  S      0.45393     0.44939
            112  H 14  S      0.19577     0.38534
            113  H 15  S      0.46055     0.45809
            114  H 15  S      0.21174     0.39167
            115  H 16  S      0.45339     0.46173
            116  H 16  S      0.26454     0.40744
            117  H 17  S      0.45909     0.46986
            118  H 17  S      0.26838     0.41138
            119  H 18  S      0.46632     0.46823
            120  H 18  S      0.28232     0.42413
            121  H 19  S      0.46818     0.46227
            122  H 19  S      0.30363     0.43314
            123  H 20  S      0.46623     0.45874
            124  H 20  S      0.28007     0.42085
            125  H 21  S      0.45689     0.45409
            126  H 21  S      0.22101     0.39802
            127  H 22  S      0.47268     0.47191
            128  H 22  S      0.28636     0.42584
            129  H 23  S      0.46971     0.46588
            130  H 23  S      0.24634     0.40458
            131  H 24  S      0.47266     0.47198
            132  H 24  S      0.28777     0.42652

          ----- MULLIKEN ATOMIC OVERLAP POPULATIONS -----
          (OFF-DIAGONAL ELEMENTS NEED TO BE MULTIPLIED BY 2)

             1           2           3           4           5

    1    5.1793513
    2    0.2042250   5.0174330
    3   -0.0627649   0.3105314   8.1769746
    4   -0.1064674   0.3191022  -0.0524543   5.3256485
    5    0.0008145  -0.0930561   0.0025376   0.4658360   5.2169460
    6   -0.0589474  -0.0042600  -0.0003535  -0.1047933   0.3680542
    7    0.0006806  -0.0000089  -0.0000001   0.0023878  -0.0441601
    8    0.0003162  -0.0000056   0.0000000  -0.0000590   0.0018590
    9    0.0000200  -0.0000000   0.0000000   0.0000004  -0.0000034
   10    0.2446681  -0.0575126   0.0032393   0.0009636  -0.0934803
   11    0.2811044  -0.0595663  -0.0051165   0.0026189  -0.0002599
   12   -0.0726245   0.0023533  -0.0000132  -0.0001204   0.0000117
   13   -0.0041413  -0.0458363   0.2664620   0.0039998  -0.0001852
   14    0.0031410  -0.0341316  -0.0017934   0.3745732  -0.0202003
   15   -0.0000748   0.0018719  -0.0000016  -0.0209816   0.3812528
   16    0.0000302   0.0000024  -0.0000000  -0.0000610   0.0007630
   17   -0.0000280  -0.0000066   0.0000000   0.0002536  -0.0000156
   18   -0.0000030  -0.0000003  -0.0000000   0.0000004  -0.0000044
   19    0.0000003   0.0000000  -0.0000000   0.0000000  -0.0000013
   20   -0.0000000   0.0000000  -0.0000000  -0.0000000   0.0000004
   21   -0.0357863   0.0013065   0.0000026  -0.0000342   0.0018013
   22   -0.0046348  -0.0001954  -0.0000022  -0.0000005  -0.0000002
   23    0.0023852  -0.0000106   0.0000000   0.0000008  -0.0000000
   24   -0.0044445  -0.0001801  -0.0000022  -0.0000004  -0.0000006

             6           7           8           9          10

    6    5.5564887
    7    0.1809268   5.4776107
    8   -0.1024117   0.2718433   5.3220471
    9    0.0007526  -0.0777675   0.5183768   5.1955669
   10    0.3243232  -0.0520033  -0.0001373   0.0002729   5.5076792
   11    0.0028103  -0.0000027   0.0000001   0.0000000  -0.0556268
   12    0.0000235  -0.0000035  -0.0000026  -0.0000006  -0.0042306
   13   -0.0000356   0.0000000   0.0000000  -0.0000000   0.0009926
   14    0.0018422  -0.0000175   0.0000004  -0.0000000  -0.0003515
   15   -0.0288065  -0.0004498  -0.0000196   0.0000001   0.0020143
   16   -0.0434525   0.3867375  -0.0422014   0.0024843  -0.0004629
   17   -0.0614565   0.3956046  -0.0429365   0.0001664   0.0030890
   18   -0.0003387  -0.0419571   0.3948395  -0.0319073   0.0007005
   19   -0.0000236  -0.0007906  -0.0566967   0.3957832   0.0000269
   20   -0.0000587   0.0022909  -0.0463189   0.3899254  -0.0000006
   21   -0.0281820  -0.0021623   0.0033385   0.0018990   0.3903813
   22   -0.0000853  -0.0000002  -0.0000014  -0.0000013   0.0021873
   23    0.0000030  -0.0000000  -0.0000000  -0.0000000   0.0000500
   24   -0.0000882   0.0000009   0.0000000   0.0000001   0.0021560

            11          12          13          14          15

   11    8.4462416
   12    0.1711554   5.1182312
   13    0.0187000  -0.0003842   0.2902108
   14   -0.0000028   0.0000004  -0.0000020   0.3276919
   15   -0.0000001   0.0000000   0.0000005  -0.0010559   0.3371832
   16    0.0000001  -0.0000001  -0.0000000   0.0000003   0.0000169
   17    0.0000000   0.0000000  -0.0000000   0.0000008   0.0013496
   18    0.0000000  -0.0000000  -0.0000000   0.0000000   0.0000144
   19    0.0000000  -0.0000000  -0.0000000   0.0000000   0.0000001
   20    0.0000000  -0.0000000   0.0000000   0.0000000  -0.0000000
   21   -0.0044064   0.0002859   0.0000056   0.0000000  -0.0000180
   22   -0.0294732   0.3569720   0.0000339   0.0000000   0.0000000
   23   -0.0208863   0.3745601  -0.0000902  -0.0000000  -0.0000000
   24   -0.0296853   0.3567799   0.0000338   0.0000000   0.0000000

            16          17          18          19          20

   16    0.4264971
   17   -0.0165466   0.4477514
   18    0.0017700   0.0001285   0.4250874
   19    0.0021481   0.0000619   0.0018338   0.4457059
   20    0.0000490  -0.0000450  -0.0015743  -0.0163230   0.4183523
   21    0.0001618   0.0001043   0.0000551   0.0000861   0.0000019
   22    0.0000001  -0.0000000   0.0000000  -0.0000000  -0.0000000
   23    0.0000000   0.0000000   0.0000000  -0.0000000   0.0000000
   24   -0.0000008  -0.0000000  -0.0000000  -0.0000000   0.0000000

            21          22          23          24

   21    0.3478668
   22    0.0006019   0.4902414
   23   -0.0000033  -0.0219744   0.4040740
   24    0.0005912  -0.0346339  -0.0220620   0.4919686

          TOTAL MULLIKEN AND LOWDIN ATOMIC POPULATIONS
       ATOM         MULL.POP.    CHARGE          LOW.POP.     CHARGE
    1 C             5.566820    0.433180         5.828017    0.171983
    2 C             5.562055    0.437945         5.741974    0.258026
    3 O             8.637246   -0.637246         8.206535   -0.206535
    4 C             6.210413   -0.210413         6.095527   -0.095527
    5 C             6.188509   -0.188509         6.024658   -0.024658
    6 C             6.001931   -0.001931         5.915404    0.084596
    7 C             6.498760   -0.498760         6.152591   -0.152591
    8 C             6.221830   -0.221830         6.119520   -0.119520
    9 C             6.395568   -0.395568         6.166485   -0.166485
   10 C             6.218938   -0.218938         6.146896   -0.146896
   11 O             8.717605   -0.717605         8.259579   -0.259579
   12 C             6.302994   -0.302994         6.037778   -0.037778
   13 H             0.529764    0.470236         0.683958    0.316042
   14 H             0.649695    0.350305         0.834737    0.165263
   15 H             0.672296    0.327704         0.849756    0.150244
   16 H             0.717936    0.282064         0.869177    0.130823
   17 H             0.727475    0.272525         0.881237    0.118763
   18 H             0.748645    0.251355         0.892351    0.107649
   19 H             0.771811    0.228189         0.895408    0.104592
   20 H             0.746299    0.253701         0.879592    0.120408
   21 H             0.677897    0.322103         0.852109    0.147891
   22 H             0.759034    0.240966         0.897746    0.102254
   23 H             0.716046    0.283954         0.870460    0.129540
   24 H             0.760432    0.239568         0.898502    0.101498

          -------------------------------
          BOND ORDER AND VALENCE ANALYSIS     BOND ORDER THRESHOLD=0.050
          -------------------------------

                   BOND                       BOND                       BOND
  ATOM PAIR DIST  ORDER      ATOM PAIR DIST  ORDER      ATOM PAIR DIST  ORDER
    1   2  1.411  1.093        1  10  1.392  1.314        1  11  1.377  0.911
    2   3  1.367  1.090        2   4  1.389  1.198        3  13  0.970  0.724
    4   5  1.401  1.556        4  10  2.797  0.065        4  14  1.086  0.875
    5   6  1.397  1.209        5  15  1.087  0.895        6   7  1.522  0.891
    6  10  1.408  1.245        7   8  1.509  0.910        7  16  1.098  0.893
    7  17  1.098  0.896        8   9  1.337  1.830        8  18  1.091  0.923
    9  19  1.089  0.936        9  20  1.087  0.925       10  21  1.085  0.891
   11  12  1.424  0.721       12  22  1.097  0.890       12  23  1.091  0.901
   12  24  1.097  0.891

                       TOTAL       BONDED        FREE
      ATOM            VALENCE     VALENCE     VALENCE
    1 C                 3.433       3.314       0.119
    2 C                 3.464       3.396       0.068
    3 O                 1.947       1.913       0.033
    4 C                 3.660       3.643       0.017
    5 C                 3.683       3.672       0.010
    6 C                 3.562       3.338       0.224
    7 C                 3.521       3.515       0.006
    8 C                 3.649       3.593       0.056
    9 C                 3.745       3.688       0.057
   10 C                 3.631       3.482       0.149
   11 O                 1.792       1.783       0.009
   12 C                 3.405       3.405       0.000
   13 H                 0.773       0.773       0.000
   14 H                 0.859       0.859       0.000
   15 H                 0.878       0.878       0.000
   16 H                 0.885       0.884       0.001
   17 H                 0.885       0.885       0.000
   18 H                 0.908       0.907       0.001
   19 H                 0.921       0.920       0.001
   20 H                 0.910       0.910       0.001
   21 H                 0.884       0.882       0.001
   22 H                 0.898       0.898       0.000
   23 H                 0.891       0.891       0.000
   24 H                 0.899       0.899       0.000

          -----------------------------------------
          ATOMIC SPIN DENSITY AT THE NUCLEUS (A.U.)
          -----------------------------------------
                            SPIN DENS    ALPHA DENS     BETA DENS
    1  C            6.0     0.0786974      47.03888      46.96018
    2  C            6.0     0.0310804      47.04514      47.01406
    3  O            8.0     0.0863846     116.86671     116.78033
    4  C            6.0     0.0219543      47.01772      46.99576
    5  C            6.0    -0.0378926      47.00809      47.04598
    6  C            6.0     0.1269955      47.11853      46.99153
    7  C            6.0    -0.0390453      47.02089      47.05993
    8  C            6.0     0.0761116      47.03159      46.95548
    9  C            6.0    -0.0560100      46.95060      47.00661
   10  C            6.0    -0.1112239      46.94485      47.05607
   11  O            8.0     0.0508329     116.77680     116.72596
   12  C            6.0    -0.0041723      46.95259      46.95677
   13  H            1.0    -0.0052257       0.15826       0.16348
   14  H            1.0    -0.0044656       0.17406       0.17853
   15  H            1.0     0.0022089       0.18026       0.17805
   16  H            1.0     0.0112582       0.18358       0.17232
   17  H            1.0     0.0056923       0.18331       0.17762
   18  H            1.0    -0.0069711       0.17857       0.18554
   19  H            1.0     0.0064328       0.18535       0.17892
   20  H            1.0     0.0067101       0.18453       0.17782
   21  H            1.0     0.0104350       0.18319       0.17276
   22  H            1.0     0.0017103       0.18502       0.18330
   23  H            1.0    -0.0001639       0.18278       0.18294
   24  H            1.0     0.0017300       0.18502       0.18329

          ---------------------
          ELECTROSTATIC MOMENTS
          ---------------------

 POINT   1           X           Y           Z (BOHR)    CHARGE
                 0.018789   -0.075627   -0.022483        1.00 (A.U.)
         DX          DY          DZ         /D/  (DEBYE)
    -0.656141    0.898227    0.504994    1.221619
 ...... END OF PROPERTY EVALUATION ......
 CPU     0: STEP CPU TIME=     0.09 TOTAL CPU TIME=         12.0 (      0.2 MIN)
 TOTAL WALL CLOCK TIME=         21.7 SECONDS, CPU UTILIZATION IS    55.46%
               580000  WORDS OF DYNAMIC MEMORY USED
 EXECUTION OF GAMESS TERMINATED NORMALLY Mon May 25 19:05:52 2020
 DDI: 263640 bytes (0.3 MB / 0 MWords) used by master data server.
Note: The following floating-point exceptions are signalling: IEEE_DENORMALNote: The following floating-point exceptions are signalling: IEEE_DENORMALNote: The following floating-point exceptions are signalling:
 ----------------------------------------
 CPU timing information for all processes
 ========================================
 0: 11.748 + 0.302 = 12.50
 1: 11.947 + 0.115 = 12.62
 2: 12.176 + 0.57 = 12.233
 3: 11.694 + 0.72 = 11.767
 4: 11.756 + 0.51 = 11.808
 5: 11.816 + 0.67 = 11.883
 ----------------------------------------


 IEEE_DENORMALNote: The following floating-point exceptions are signalling: IEEE_DENORMALNote: The following floating-point exceptions are signalling: IEEE_DENORMALNote: The following floating-point exceptions are signalling: IEEE_DENORMAL



 ddikick.x: exited gracefully.
unset echo
----- accounting info -----
Files used on the master node pietdev were:
-rwxr-xr-x 1 piet piet     1098 mei 25 19:05 /home/piet/scr/eugenol_fukui_base.F05*
-rw-r--r-- 1 piet piet 68812800 mei 25 19:05 /home/piet/scr/eugenol_fukui_base.F10
ls: No match.
ls: No match.
ls: No match.
ma 25 mei 2020 19:05:55 CEST
0.133u 0.020s 0:24.88 0.6%	0+0k 0+8io 0pf+0w
