----- GAMESS execution script 'rungms' -----
This job is running on host pietdev
under operating system Linux at zo 17 mei 2020 16:00:17 CEST
Available scratch disk space (Kbyte units) at beginning of the job is
Filesystem     1K-blocks     Used Available Use% Mounted on
/dev/sda2      244568380 30382584 201692740  14% /
GAMESS temporary binary files will be written to /home/piet/scr
GAMESS supplementary output files will be written to /home/piet/gamess/scr
Copying input file methionine_fukui_neu.inp to your run's scratch directory...
cp methionine_fukui_neu.inp /home/piet/scr/methionine_fukui_neu.F05
unset echo
 
Assuming a single but multicore node.
 
/home/piet/gamess/ddikick.x /home/piet/gamess/gamess.03.x methionine_fukui_neu -ddi 1 6 pietdev:cpus=6 -scr /home/piet/scr

 Distributed Data Interface kickoff program.
 Initiating 6 compute processes on 1 nodes to run the following command:
 /home/piet/gamess/gamess.03.x methionine_fukui_neu 

          ******************************************************
          *         GAMESS VERSION = 30 SEP 2019 (R2)          *
          *             FROM IOWA STATE UNIVERSITY             *
          * M.W.SCHMIDT, K.K.BALDRIDGE, J.A.BOATZ, S.T.ELBERT, *
          *   M.S.GORDON, J.H.JENSEN, S.KOSEKI, N.MATSUNAGA,   *
          *          K.A.NGUYEN, S.J.SU, T.L.WINDUS,           *
          *       TOGETHER WITH M.DUPUIS, J.A.MONTGOMERY       *
          *         J.COMPUT.CHEM.  14, 1347-1363(1993)        *
          **************** 64 BIT LINUX VERSION ****************

  SINCE 1993, STUDENTS AND POSTDOCS WORKING AT IOWA STATE UNIVERSITY
  AND ALSO IN THEIR VARIOUS JOBS AFTER LEAVING ISU HAVE MADE IMPORTANT
  CONTRIBUTIONS TO THE CODE:
     IVANA ADAMOVIC, CHRISTINE AIKENS, YURI ALEXEEV, POOJA ARORA,
     ANDREY ASADCHEV, ROB BELL, PRADIPTA BANDYOPADHYAY, JONATHAN BENTZ,
     COLLEEN BERTONI, BRETT BODE, KURT BRORSEN, CALEB CARLIN, GALINA CHABAN,
     WEI CHEN, CHEOL HO CHOI, PAUL DAY, ALBERT DEFUSCO, NUWAN DESILVA,
     TIM DUDLEY, DMITRI FEDOROV, ALEX FINDLATER, GRAHAM FLETCHER, 
     MARK FREITAG, KURT GLAESEMANN, EMILIE B GUIDEZ, ANASTASIA GUNINA, 
     DAN KEMP, SAROM SOK LEANG, GRANT MERRILL,
     NORIYUKI MINEZAWA, JONATHAN MULLIN,
     TAKESHI NAGATA, SEAN NEDD, HEATHER NETZLOFF, BOSILJKA NJEGIC, RYAN OLSON,
     MIKE PAK, BUU PHAM, DAVID POOLE,
     SPENCER PRUITT, LUKE ROSKOP, TOSAPORN SATTASATHUCHANA,
     JIM SHOEMAKER, LYUDMILA SLIPCHENKO,
     TONY SMITH, JIE SONG, TETSUYA TAKETSUGU, SIMON WEBB,
     JORGE LUIS GALVEZ VALLEJO, PENG XU, SOOHAENG YOO,
     FEDERICO ZAHARIEV

  ADDITIONAL CODE HAS BEEN PROVIDED BY COLLABORATORS IN OTHER GROUPS:
     IOWA STATE UNIVERSITY:
          JOE IVANIC, AARON WEST, LAIMUTIS BYTAUTAS, KLAUS RUEDENBERG
     UNIVERSITY OF TOKYO: KIMIHIKO HIRAO, TAKAHITO NAKAJIMA,
          TAKAO TSUNEDA, MUNEAKI KAMIYA, SUSUMU YANAGISAWA,
          KIYOSHI YAGI, MAHITO CHIBA, SEIKEN TOKURA, NAOAKI KAWAKAMI
     UNIVERSITY OF AARHUS: FRANK JENSEN
     UNIVERSITY OF IOWA: VISVALDAS KAIRYS, HUI LI
     NATIONAL INST. OF STANDARDS AND TECHNOLOGY: WALT STEVENS, DAVID GARMER
     UNIVERSITY OF PISA: BENEDETTA MENNUCCI, JACOPO TOMASI
     UNIVERSITY OF MEMPHIS: HENRY KURTZ, PRAKASHAN KORAMBATH
     UNIVERSITY OF ALBERTA: TOBY ZENG, MARIUSZ KLOBUKOWSKI
     UNIVERSITY OF NEW ENGLAND: MARK SPACKMAN
     MIE UNIVERSITY: HIROAKI UMEDA
     NAT. INST. OF ADVANCED INDUSTRIAL SCIENCE AND TECHNOLOGY: KAZUO KITAURA
     MICHIGAN STATE UNIVERSITY:
          KAROL KOWALSKI, MARTA WLOCH, JEFFREY GOUR, JESSE LUTZ,
          WEI LI, JUN SHEN, J. EMILIANO DEUSTUA, PIOTR PIECUCH
     UNIVERSITY OF MINNESOTA:
          ANDREW SAND, PRACHI SHARMA, YINAN SHU
     UNIVERSITY OF SILESIA: MONIKA MUSIAL, STANISLAW KUCHARSKI
     FACULTES UNIVERSITAIRES NOTRE-DAME DE LA PAIX:
          OLIVIER QUINET, BENOIT CHAMPAGNE
     UNIVERSITY OF CALIFORNIA - SANTA BARBARA: BERNARD KIRTMAN
     INSTITUTE FOR MOLECULAR SCIENCE:
          KAZUYA ISHIMURA, MICHIO KATOUDA, AND SHIGERU NAGASE
     UNIVERSITY OF NOTRE DAME: ANNA POMOGAEVA, DAN CHIPMAN
     KYUSHU UNIVERSITY:
          HARUYUKI NAKANO,
          FENG LONG GU, JACEK KORCHOWIEC, MARCIN MAKOWSKI, AND YURIKO AOKI,
          HIROTOSHI MORI AND EISAKU MIYOSHI
     PENNSYLVANIA STATE UNIVERSITY:
          TZVETELIN IORDANOV, CHET SWALINA, JONATHAN SKONE,
          SHARON HAMMES-SCHIFFER
     WASEDA UNIVERSITY:
          MASATO KOBAYASHI, TOMOKO AKAMA, TSUGUKI TOUMA,
          TAKESHI YOSHIKAWA, YASUHIRO IKABATA, JUNJI SEINO,
          YUYA NAKAJIMA, HIROMI NAKAI
     NANJING UNIVERSITY: SHUHUA LI
     UNIVERSITY OF NEBRASKA:
          PEIFENG SU, DEJUN SI, NANDUN THELLAMUREGE, YALI WANG, HUI LI
     UNIVERSITY OF ZURICH: ROBERTO PEVERATI, KIM BALDRIDGE
     N. COPERNICUS UNIVERSITY AND JACKSON STATE UNIVERSITY:
          MARIA BARYSZ
     UNIVERSITY OF COPENHAGEN: Jimmy Kromann, CASPER STEINMANN
     TOKYO INSTITUTE OF TECHNOLOGY: HIROYA NAKATA
     NAGOYA UNIVERSITY: YOSHIO NISHIMOTO, STEPHAN IRLE
     MOSCOW STATE UNIVERSITY: VLADIMIR MIRONOV
     A.N.NESMEYANOV INSTITUTE OF ORGANOELEMENT COMPOUNDS OF RUSSIAN ACADEMY OF SCIENCES:
          IGOR S. GERASIMOV
     JOHANNES KEPLER UNIVERSITY LINZ:
          CHRISTIAN FRIEDL


 PARALLEL VERSION RUNNING ON        6 PROCESSORS IN        1 NODES.

 EXECUTION OF GAMESS BEGUN Sun May 17 16:00:17 2020

            ECHO OF THE FIRST FEW INPUT CARDS -
 INPUT CARD> $BASIS GBASIS=N21 NGAUSS=3 $END                                                
 INPUT CARD> $CONTRL SCFTYP=RHF MAXIT=60 MULT=1 ICHARG=0 $END                               
 INPUT CARD> $SYSTEM MEMDDI=1000 MWORDS=30 $END                                             
 INPUT CARD> $SCF DIRSCF=.TRUE. $END                                                        
 INPUT CARD> $DATA                                                                          
 INPUT CARD>                                                                                
 INPUT CARD>C1                                                                              
 INPUT CARD>C 6.0000000 1.2559275202 0.4049895258 0.4899875722                              
 INPUT CARD>H 1.0000000 1.2462235900 0.2509630068 1.5754082660                              
 INPUT CARD>C 6.0000000 0.0417600911 -0.2870381482 -0.1705289928                            
 INPUT CARD>C 6.0000000 -1.2796644704 0.2773771722 0.3723063952                             
 INPUT CARD>S 16.0000000 -2.7385408658 -0.6101986552 -0.4831132453                          
 INPUT CARD>C 6.0000000 -4.1686074470 0.2978351437 0.3788096246                             
 INPUT CARD>H 1.0000000 0.0762350908 -0.1411579279 -1.2566488938                            
 INPUT CARD>H 1.0000000 0.0785277554 -1.3659205164 0.0207509206                             
 INPUT CARD>H 1.0000000 -1.3669356482 0.1059555619 1.4489446085                             
 INPUT CARD>H 1.0000000 -1.3664269382 1.3466808266 0.1600345845                             
 INPUT CARD>H 1.0000000 -4.1252716277 0.1162871966 1.4541840042                             
 INPUT CARD>H 1.0000000 -4.1115284473 1.3655966410 0.1602787749                             
 INPUT CARD>H 1.0000000 -5.0873270456 -0.1205328552 -0.0346818941                           
 INPUT CARD>H 1.0000000 2.1937352463 -0.0010783804 0.0945821675                             
 INPUT CARD>H 1.0000000 1.2400431964 1.4836814087 0.2951761079                              
 INPUT CARD> $END                                                                           
   30000000 WORDS OF MEMORY AVAILABLE

     BASIS OPTIONS
     -------------
     GBASIS=N21          IGAUSS=       3      POLAR=NONE    
     NDFUNC=       0     NFFUNC=       0     DIFFSP=       F
     NPFUNC=       0      DIFFS=       F     BASNAM=        


     RUN TITLE
     ---------
                                                                                 

 THE POINT GROUP OF THE MOLECULE IS C1      
 THE ORDER OF THE PRINCIPAL AXIS IS     0

 ATOM      ATOMIC                      COORDINATES (BOHR)
           CHARGE         X                   Y                   Z
 C           6.0     2.3733588736        0.7653192317        0.9259422488
 H           1.0     2.3550211045        0.4742513159        2.9770899415
 C           6.0     0.0789151294       -0.5424234481       -0.3222530694
 C           6.0    -2.4182152053        0.5241668507        0.7035570704
 S          16.0    -5.1750918425       -1.1531082564       -0.9129516547
 C           6.0    -7.8775258252        0.5628268111        0.7158463920
 H           1.0     0.1440634323       -0.2667498047       -2.3747220721
 H           1.0     0.1483959401       -2.5812154970        0.0392135539
 H           1.0    -2.5831338179        0.2002269789        2.7381082815
 H           1.0    -2.5821724954        2.5448577552        0.3024215133
 H           1.0    -7.7956330013        0.2197509375        2.7480093037
 H           1.0    -7.7696621561        2.5806034612        0.3028829662
 H           1.0    -9.6136541261       -0.2277740688       -0.0655392766
 H           1.0     4.1455585051       -0.0020378435        0.1787343799
 H           1.0     2.3433418541        2.8037513155        0.5578019621

          INTERNUCLEAR DISTANCES (ANGS.)
          ------------------------------

                1 C          2 H          3 C          4 C          5 S     

   1 C       0.0000000    1.0963377 *  1.5457642 *  2.5415272 *  4.2347739  
   2 H       1.0963377 *  0.0000000    2.1882583 *  2.7979032 *  4.5669966  
   3 C       1.5457642 *  2.1882583 *  0.0000000    1.5360331 *  2.8164188 *
   4 C       2.5415272 *  2.7979032 *  1.5360331 *  0.0000000    1.9099356 *
   5 S       4.2347739    4.5669966    2.8164188 *  1.9099356 *  0.0000000  
   6 C       5.4267322    5.5456686    4.2861456    2.8890227 *  1.9006648 *
   7 H       2.1773126 *  3.0892037    1.0964151 *  2.1603543 *  2.9565724 *
   8 H       2.1777455 *  2.5287913 *  1.0963243 *  2.1607186 *  2.9598767 *
   9 H       2.8086351 *  2.6202331 *  2.1821005 *  1.0936871 *  2.4752829 *
  10 H       2.8057787 *  3.1669896    2.1820405 *  1.0936166 *  2.4750178 *
  11 H       5.4745162    5.3745506    4.4907145    3.0485881    2.4907679 *
  12 H       5.4626969    5.6524779    4.4822362    3.0411562    2.4905452 *
  13 H       6.3865742    6.5455529    5.1335868    3.8499696    2.4408318 *
  14 H       1.0957737 *  1.7759924 *  2.1870194 *  3.4955935    5.0032097  
  15 H       1.0962573 *  1.7772527 *  2.1881982 *  2.7946459 *  4.5628061  

                6 C          7 H          8 H          9 H         10 H     

   1 C       5.4267322    2.1773126 *  2.1777455 *  2.8086351 *  2.8057787 *
   2 H       5.5456686    3.0892037    2.5287913 *  2.6202331 *  3.1669896  
   3 C       4.2861456    1.0964151 *  1.0963243 *  2.1821005 *  2.1820405 *
   4 C       2.8890227 *  2.1603543 *  2.1607186 *  1.0936871 *  1.0936166 *
   5 S       1.9006648 *  2.9565724 *  2.9598767 *  2.4752829 *  2.4750178 *
   6 C       0.0000000    4.5701343    4.5754176    3.0052240    3.0000259  
   7 H       4.5701343    0.0000000    1.7696889 *  3.0763685    2.5103645 *
   8 H       4.5754176    1.7696889 *  0.0000000    2.5090877 *  3.0766053  
   9 H       3.0052240    3.0763685    2.5090877 *  0.0000000    1.7890468 *
  10 H       3.0000259    2.5103645 *  3.0766053    1.7890468 *  0.0000000  
  11 H       1.0914521 *  5.0067506    4.6822643    2.7583603 *  3.2863224  
  12 H       1.0913883 *  4.6706913    5.0037211    3.2833131    2.7451667 *
  13 H       1.0908954 *  5.3062230    5.3141433    4.0117025    4.0044635  
  14 H       6.3756991    2.5158010 *  2.5184018 *  3.8110538    3.8072948  
  15 H       5.5377548    2.5303583 *  3.0894431    3.1663305    2.6135644 *

               11 H         12 H         13 H         14 H         15 H     

   1 C       5.4745162    5.4626969    6.3865742    1.0957737 *  1.0962573 *
   2 H       5.3745506    5.6524779    6.5455529    1.7759924 *  1.7772527 *
   3 C       4.4907145    4.4822362    5.1335868    2.1870194 *  2.1881982 *
   4 C       3.0485881    3.0411562    3.8499696    3.4955935    2.7946459 *
   5 S       2.4907679 *  2.4905452 *  2.4408318 *  5.0032097    4.5628061  
   6 C       1.0914521 *  1.0913883 *  1.0908954 *  6.3756991    5.5377548  
   7 H       5.0067506    4.6706913    5.3062230    2.5158010 *  2.5303583 *
   8 H       4.6822643    5.0037211    5.3141433    2.5184018 *  3.0894431  
   9 H       2.7583603 *  3.2833131    4.0117025    3.8110538    3.1663305  
  10 H       3.2863224    2.7451667 *  4.0044635    3.8072948    2.6135644 *
  11 H       0.0000000    1.7986533 *  1.7883948 *  6.4646840    5.6568250  
  12 H       1.7986533 *  0.0000000    1.7885115 *  6.4520126    5.3545738  
  13 H       1.7883948 *  1.7885115 *  0.0000000    7.2831893    6.5358950  
  14 H       6.4646840    6.4520126    7.2831893    0.0000000    1.7760287 *
  15 H       5.6568250    5.3545738    6.5358950    1.7760287 *  0.0000000  

  * ... LESS THAN  3.000


     ATOMIC BASIS SET
     ----------------
 THE CONTRACTED PRIMITIVE FUNCTIONS HAVE BEEN UNNORMALIZED
 THE CONTRACTED BASIS FUNCTIONS ARE NOW NORMALIZED TO UNITY

  SHELL TYPE  PRIMITIVE        EXPONENT          CONTRACTION COEFFICIENT(S)

 C         

      1   S       1           172.2560000    0.061766907377
      1   S       2            25.9109000    0.358794042852
      1   S       3             5.5333500    0.700713083689

      2   L       4             3.6649800   -0.395895162119    0.236459946619
      2   L       5             0.7705450    1.215834355681    0.860618805716

      3   L       6             0.1958570    1.000000000000    1.000000000000

 H         

      4   S       7             5.4471780    0.156284978695
      4   S       8             0.8245472    0.904690876670

      5   S       9             0.1831916    1.000000000000

 C         

      6   S      10           172.2560000    0.061766907377
      6   S      11            25.9109000    0.358794042852
      6   S      12             5.5333500    0.700713083689

      7   L      13             3.6649800   -0.395895162119    0.236459946619
      7   L      14             0.7705450    1.215834355681    0.860618805716

      8   L      15             0.1958570    1.000000000000    1.000000000000

 C         

      9   S      16           172.2560000    0.061766907377
      9   S      17            25.9109000    0.358794042852
      9   S      18             5.5333500    0.700713083689

     10   L      19             3.6649800   -0.395895162119    0.236459946619
     10   L      20             0.7705450    1.215834355681    0.860618805716

     11   L      21             0.1958570    1.000000000000    1.000000000000

 S         

     12   S      22          1210.6200000    0.065007081871
     12   S      23           182.7470000    0.382039893458
     12   S      24            39.6673000    0.676544811328

     13   L      25            52.2236000   -0.100309939876    0.109645970225
     13   L      26            11.9629000    0.065087660988    0.457648875721
     13   L      27             3.2891100    0.981454411734    0.604260835908

     14   L      28             1.2238400   -0.286088853728    0.164776994741
     14   L      29             0.4573030    1.228059372117    0.870854972204

     15   L      30             0.1422690    1.000000000000    1.000000000000

 C         

     16   S      31           172.2560000    0.061766907377
     16   S      32            25.9109000    0.358794042852
     16   S      33             5.5333500    0.700713083689

     17   L      34             3.6649800   -0.395895162119    0.236459946619
     17   L      35             0.7705450    1.215834355681    0.860618805716

     18   L      36             0.1958570    1.000000000000    1.000000000000

 H         

     19   S      37             5.4471780    0.156284978695
     19   S      38             0.8245472    0.904690876670

     20   S      39             0.1831916    1.000000000000

 H         

     21   S      40             5.4471780    0.156284978695
     21   S      41             0.8245472    0.904690876670

     22   S      42             0.1831916    1.000000000000

 H         

     23   S      43             5.4471780    0.156284978695
     23   S      44             0.8245472    0.904690876670

     24   S      45             0.1831916    1.000000000000

 H         

     25   S      46             5.4471780    0.156284978695
     25   S      47             0.8245472    0.904690876670

     26   S      48             0.1831916    1.000000000000

 H         

     27   S      49             5.4471780    0.156284978695
     27   S      50             0.8245472    0.904690876670

     28   S      51             0.1831916    1.000000000000

 H         

     29   S      52             5.4471780    0.156284978695
     29   S      53             0.8245472    0.904690876670

     30   S      54             0.1831916    1.000000000000

 H         

     31   S      55             5.4471780    0.156284978695
     31   S      56             0.8245472    0.904690876670

     32   S      57             0.1831916    1.000000000000

 H         

     33   S      58             5.4471780    0.156284978695
     33   S      59             0.8245472    0.904690876670

     34   S      60             0.1831916    1.000000000000

 H         

     35   S      61             5.4471780    0.156284978695
     35   S      62             0.8245472    0.904690876670

     36   S      63             0.1831916    1.000000000000

 TOTAL NUMBER OF BASIS SET SHELLS             =   36
 NUMBER OF CARTESIAN GAUSSIAN BASIS FUNCTIONS =   69
 NUMBER OF ELECTRONS                          =   50
 CHARGE OF MOLECULE                           =    0
 SPIN MULTIPLICITY                            =    1
 NUMBER OF OCCUPIED ORBITALS (ALPHA)          =   25
 NUMBER OF OCCUPIED ORBITALS (BETA )          =   25
 TOTAL NUMBER OF ATOMS                        =   15
 THE NUCLEAR REPULSION ENERGY IS      225.4227325684

     $CONTRL OPTIONS
     ---------------
 SCFTYP=RHF          RUNTYP=ENERGY       EXETYP=RUN     
 MPLEVL=       0     CITYP =NONE         CCTYP =NONE         VBTYP =NONE    
 DFTTYP=NONE         TDDFT =NONE    
 MULT  =       1     ICHARG=       0     NZVAR =       0     COORD =UNIQUE  
 PP    =NONE         RELWFN=NONE         LOCAL =NONE         NUMGRD=       F
 ISPHER=      -1     NOSYM =       0     MAXIT =      60     UNITS =ANGS    
 PLTORB=       F     MOLPLT=       F     AIMPAC=       F     FRIEND=        
 NPRINT=       7     IREST =       0     GEOM  =INPUT   
 NORMF =       0     NORMP =       0     ITOL  =      20     ICUT  =       9
 INTTYP=BEST         GRDTYP=BEST         QMTTOL= 1.0E-06

     $SYSTEM OPTIONS
     ---------------
  REPLICATED MEMORY=    30000000 WORDS (ON EVERY NODE).
 DISTRIBUTED MEMDDI=        1000 MILLION WORDS IN AGGREGATE,
 MEMDDI DISTRIBUTED OVER   6 PROCESSORS IS   166666666 WORDS/PROCESSOR.
 TOTAL MEMORY REQUESTED ON EACH PROCESSOR=   196666666 WORDS.
 TIMLIM=      525600.00 MINUTES, OR     365.0 DAYS.
 PARALL= T  BALTYP=  DLB     KDIAG=    0  COREFL= F
 MXSEQ2=     300 MXSEQ3=     150  mem10=         0

          ----------------
          PROPERTIES INPUT
          ----------------

     MOMENTS            FIELD           POTENTIAL          DENSITY
 IEMOM =       1   IEFLD =       0   IEPOT =       0   IEDEN =       0
 WHERE =COMASS     WHERE =NUCLEI     WHERE =NUCLEI     WHERE =NUCLEI  
 OUTPUT=BOTH       OUTPUT=BOTH       OUTPUT=BOTH       OUTPUT=BOTH    
 IEMINT=       0   IEFINT=       0                     IEDINT=       0
                                                       MORB  =       0
          EXTRAPOLATION IN EFFECT
          SOSCF IN EFFECT
 ORBITAL PRINTING OPTION: NPREO=     1    69     2     1

     -------------------------------
     INTEGRAL TRANSFORMATION OPTIONS
     -------------------------------
     NWORD  =            0
     CUTOFF = 1.0E-09     MPTRAN =       0
     DIRTRF =       T     AOINTS =DUP     

          ----------------------
          INTEGRAL INPUT OPTIONS
          ----------------------
 NOPK  =       1 NORDER=       0 SCHWRZ=       T

     ------------------------------------------
     THE POINT GROUP IS C1 , NAXIS= 0, ORDER= 1
     ------------------------------------------

     DIMENSIONS OF THE SYMMETRY SUBSPACES ARE
 A   =   69

 ..... DONE SETTING UP THE RUN .....
 CPU     0: STEP CPU TIME=     0.02 TOTAL CPU TIME=          0.0 (      0.0 MIN)
 TOTAL WALL CLOCK TIME=          0.0 SECONDS, CPU UTILIZATION IS    66.67%

          ********************
          1 ELECTRON INTEGRALS
          ********************
 ...... END OF ONE-ELECTRON INTEGRALS ......
 CPU     0: STEP CPU TIME=     0.01 TOTAL CPU TIME=          0.0 (      0.0 MIN)
 TOTAL WALL CLOCK TIME=          0.0 SECONDS, CPU UTILIZATION IS    75.00%

          -------------
          GUESS OPTIONS
          -------------
          GUESS =HUCKEL            NORB  =       0          NORDER=       0
          MIX   =       F          PRTMO =       F          PUNMO =       F
          TOLZ  = 1.0E-08          TOLE  = 1.0E-05
          SYMDEN=       F          PURIFY=       F

 INITIAL GUESS ORBITALS GENERATED BY HUCKEL   ROUTINE.
 HUCKEL GUESS REQUIRES     51510 WORDS.

 SYMMETRIES FOR INITIAL GUESS ORBITALS FOLLOW.   BOTH SET(S).
    25 ORBITALS ARE OCCUPIED (    9 CORE ORBITALS).
    10=A       11=A       12=A       13=A       14=A       15=A       16=A   
    17=A       18=A       19=A       20=A       21=A       22=A       23=A   
    24=A       25=A       26=A       27=A       28=A       29=A       30=A   
    31=A       32=A       33=A       34=A       35=A   
 ...... END OF INITIAL ORBITAL SELECTION ......
 CPU     0: STEP CPU TIME=     0.02 TOTAL CPU TIME=          0.0 (      0.0 MIN)
 TOTAL WALL CLOCK TIME=          0.1 SECONDS, CPU UTILIZATION IS   100.00%

                    ----------------------
                    AO INTEGRAL TECHNOLOGY
                    ----------------------
     S,P,L SHELL ROTATED AXIS INTEGRALS, REPROGRAMMED BY
        KAZUYA ISHIMURA (IMS) AND JOSE SIERRA (SYNSTAR).
     S,P,D,L SHELL ROTATED AXIS INTEGRALS PROGRAMMED BY
        KAZUYA ISHIMURA (INSTITUTE FOR MOLECULAR SCIENCE).
     S,P,D,F,G SHELL TO TOTAL QUARTET ANGULAR MOMENTUM SUM 5,
        ERIC PROGRAM BY GRAHAM FLETCHER (ELORET AND NASA ADVANCED
        SUPERCOMPUTING DIVISION, AMES RESEARCH CENTER).
     S,P,D,F,G,L SHELL GENERAL RYS QUADRATURE PROGRAMMED BY
        MICHEL DUPUIS (PACIFIC NORTHWEST NATIONAL LABORATORY).

          --------------------
          2 ELECTRON INTEGRALS
          --------------------

 DIRECT SCF METHOD SKIPS INTEGRAL STORAGE ON DISK.
 DIRECT TRANSFORMATION SKIPS AO INTEGRAL STORAGE ON DISK.
  ...... END OF TWO-ELECTRON INTEGRALS .....
 CPU     0: STEP CPU TIME=     0.01 TOTAL CPU TIME=          0.1 (      0.0 MIN)
 TOTAL WALL CLOCK TIME=          0.1 SECONDS, CPU UTILIZATION IS    85.71%

          --------------------------
                 RHF SCF CALCULATION
          --------------------------

     NUCLEAR ENERGY =       225.4227325684
     MAXIT =   60     NPUNCH=    2
     EXTRAP=T  DAMP=F  SHIFT=F  RSTRCT=F  DIIS=F  DEM=F  SOSCF=T
     DENSITY MATRIX CONV=  2.00E-05
     SOSCF WILL OPTIMIZE    1100 ORBITAL ROTATIONS, SOGTOL=   0.250
     MEMORY REQUIRED FOR RHF ITERS=     84381 WORDS.

 DIRECT SCF CALCULATION, SCHWRZ=T   FDIFF=T,  DIRTHR=  0.00E+00 NITDIR=10
 SCHWARZ INEQUALITY OVERHEAD:      2285 INTEGRALS, T=        0.00

                                                                                   NONZERO     BLOCKS
 ITER EX DEM     TOTAL ENERGY        E CHANGE  DENSITY CHANGE     ORB. GRAD      INTEGRALS    SKIPPED
   1  0  0     -551.5112708705  -551.5112708705   0.606658630   0.000000000        2107403      77912
          ---------------START SECOND ORDER SCF---------------
   2  1  0     -551.9669402124    -0.4556693419   0.114362058   0.028832494        2100653      81527
   3  2  0     -551.9850010938    -0.0180608814   0.060897409   0.009109519        2074319      88591
   4  3  0     -551.9873871059    -0.0023860121   0.005478173   0.002498031        2052196      93297
   5  4  0     -551.9874506419    -0.0000635359   0.001331875   0.000703327        1979553     103214
   6  5  0     -551.9874579770    -0.0000073351   0.000448535   0.000255316        1935996     107362
   7  6  0     -551.9874584354    -0.0000004584   0.000067428   0.000042172        1829821     116405
   8  7  0     -551.9874584713    -0.0000000359   0.000024979   0.000015485        1741644     122626
   9  8  0     -551.9874584732    -0.0000000018   0.000006374   0.000002882        1627676     131377
  10  9  0     -551.9874584735    -0.0000000003   0.000001901   0.000000621        1530144     138488

          -----------------
          DENSITY CONVERGED
          -----------------
     TIME TO FORM FOCK OPERATORS=       0.3 SECONDS (       0.0 SEC/ITER)
     FOCK TIME ON FIRST ITERATION=       0.0, LAST ITERATION=       0.0
     TIME TO SOLVE SCF EQUATIONS=       0.1 SECONDS (       0.0 SEC/ITER)

 FINAL RHF ENERGY IS     -551.9874584735 AFTER  10 ITERATIONS

          ------------
          EIGENVECTORS
          ------------

                      1          2          3          4          5
                  -91.2981   -11.2085   -11.2024   -11.1772   -11.1652
                     A          A          A          A          A   
    1  C  1  S    0.000019  -0.004374  -0.000134  -0.008272   0.987472
    2  C  1  S    0.000127  -0.001851  -0.000058  -0.003190   0.101541
    3  C  1  X    0.000042   0.001069  -0.000009  -0.000584  -0.000179
    4  C  1  Y    0.000001  -0.000106   0.000041  -0.000148   0.000051
    5  C  1  Z    0.000001  -0.000107   0.000039  -0.000139   0.000050
    6  C  1  S   -0.000890   0.002647   0.000672   0.022099  -0.079899
    7  C  1  X    0.000091  -0.002551  -0.000049  -0.009918   0.003863
    8  C  1  Y    0.000268   0.000646  -0.000652  -0.005267   0.001666
    9  C  1  Z    0.000253   0.000644  -0.000622  -0.005041   0.001587
   10  H  2  S   -0.000005  -0.000283  -0.000005  -0.001335   0.000249
   11  H  2  S    0.000076  -0.001134   0.000264   0.000451   0.014336
   12  C  3  S    0.000051  -0.003857  -0.002529   0.987929   0.007531
   13  C  3  S    0.000346  -0.002370  -0.000975   0.104367  -0.000978
   14  C  3  X   -0.000218  -0.000287   0.000295  -0.000120   0.000149
   15  C  3  Y   -0.000061  -0.000039   0.000069   0.000301  -0.000028
   16  C  3  Z   -0.000058  -0.000035   0.000065   0.000285  -0.000026
   17  C  3  S   -0.001037   0.018022   0.003162  -0.091861   0.016352
   18  C  3  X    0.001761  -0.010637  -0.003322   0.001110   0.009923
   19  C  3  Y    0.000072   0.003503  -0.000044  -0.005173   0.004809
   20  C  3  Z    0.000066   0.003355  -0.000041  -0.004925   0.004579
   21  C  4  S   -0.000071   0.987641   0.005268   0.003121   0.004131
   22  C  4  S   -0.000647   0.101966   0.000892  -0.001996  -0.001024
   23  C  4  X    0.000102  -0.000600   0.000456   0.000436  -0.001078
   24  C  4  Y    0.000073  -0.000467  -0.000286   0.000085  -0.000313
   25  C  4  Z    0.000070  -0.000453  -0.000275   0.000083  -0.000301
   26  C  4  S    0.001119  -0.079220  -0.004011   0.021648   0.002628
   27  C  4  X    0.001119  -0.003333  -0.000578   0.011839   0.002689
   28  C  4  Y   -0.000150   0.002284   0.002702  -0.004869   0.001294
   29  C  4  Z   -0.000139   0.002218   0.002602  -0.004705   0.001251
   30  S  5  S    0.986436   0.000016   0.000016  -0.000003  -0.000001
   31  S  5  S    0.051202  -0.000412  -0.000391   0.000086  -0.000016
   32  S  5  X    0.000041  -0.000384   0.000250   0.000118   0.000020
   33  S  5  Y    0.000143  -0.000152  -0.000134   0.000037  -0.000007
   34  S  5  Z    0.000137  -0.000146  -0.000127   0.000036  -0.000007
   35  S  5  S   -0.017444  -0.002118  -0.002321  -0.000236  -0.000973
   36  S  5  X   -0.000237   0.002367  -0.001600  -0.000733  -0.000209
   37  S  5  Y   -0.000441   0.000848   0.000771  -0.000189   0.000036
   38  S  5  Z   -0.000422   0.000821   0.000729  -0.000183   0.000032
   39  S  5  S    0.009974   0.013731   0.014259  -0.001036   0.002562
   40  S  5  X    0.000374   0.004306  -0.004745   0.000278   0.002018
   41  S  5  Y    0.001247   0.004892   0.005387  -0.000147   0.000538
   42  S  5  Z    0.001192   0.004692   0.005130  -0.000132   0.000523
   43  C  6  S   -0.000053  -0.005080   0.987298   0.002333   0.000128
   44  C  6  S   -0.000516  -0.000294   0.099862  -0.000317   0.000007
   45  C  6  X   -0.000033  -0.000300   0.000786  -0.000422  -0.000066
   46  C  6  Y    0.000027  -0.000108  -0.000499  -0.000073   0.000034
   47  C  6  Z    0.000024  -0.000108  -0.000476  -0.000074   0.000031
   48  C  6  S    0.000436  -0.001610  -0.071218   0.000868  -0.000216
   49  C  6  X   -0.000731  -0.001160  -0.001633   0.001894   0.000086
   50  C  6  Y    0.000233   0.001362   0.000986   0.000381  -0.000192
   51  C  6  Z    0.000226   0.001314   0.000946   0.000383  -0.000176
   52  H  7  S    0.000262  -0.001130  -0.000374   0.000971  -0.001043
   53  H  7  S   -0.000259   0.000473   0.000107   0.014325   0.000890
   54  H  8  S    0.000260  -0.001129  -0.000375   0.000964  -0.001042
   55  H  8  S   -0.000254   0.000487   0.000113   0.014312   0.000897
   56  H  9  S    0.000102   0.000347   0.000191  -0.001238  -0.000280
   57  H  9  S   -0.000772   0.013669  -0.001571   0.000905  -0.001405
   58  H 10  S    0.000102   0.000346   0.000194  -0.001239  -0.000279
   59  H 10  S   -0.000767   0.013688  -0.001581   0.000887  -0.001406
   60  H 11  S    0.000105   0.000363  -0.000234  -0.000276  -0.000013
   61  H 11  S   -0.000789  -0.001596   0.013195  -0.000068   0.000162
   62  H 12  S    0.000104   0.000365  -0.000236  -0.000278  -0.000013
   63  H 12  S   -0.000781  -0.001598   0.013208  -0.000065   0.000173
   64  H 13  S    0.000022  -0.000108  -0.000282   0.000058  -0.000073
   65  H 13  S   -0.000795   0.001067   0.013347   0.001029   0.000279
   66  H 14  S    0.000086  -0.000141  -0.000124  -0.001104   0.000189
   67  H 14  S    0.000065   0.002162  -0.000100  -0.000122   0.013741
   68  H 15  S   -0.000006  -0.000282  -0.000006  -0.001336   0.000248
   69  H 15  S    0.000074  -0.001130   0.000271   0.000436   0.014339

                      6          7          8          9         10
                   -8.8935    -6.5685    -6.5667    -6.5639    -1.0820
                     A          A          A          A          A   
    1  C  1  S   -0.000104  -0.000108   0.000028  -0.000000  -0.083144
    2  C  1  S   -0.000787  -0.000512   0.000150  -0.000001   0.084766
    3  C  1  X   -0.000125  -0.000550  -0.000149   0.000002  -0.036449
    4  C  1  Y   -0.000043   0.000006   0.000102  -0.000122  -0.015119
    5  C  1  Z   -0.000045   0.000005   0.000098   0.000128  -0.014426
    6  C  1  S    0.005003   0.006489  -0.000665  -0.000006   0.188272
    7  C  1  X   -0.001117  -0.000310   0.001363  -0.000008   0.001447
    8  C  1  Y   -0.001192  -0.002596  -0.000156   0.000357   0.002570
    9  C  1  Z   -0.001124  -0.002470  -0.000147  -0.000366   0.002442
   10  H  2  S   -0.000061   0.000043   0.000218   0.000168   0.039862
   11  H  2  S   -0.000486  -0.000029  -0.000188  -0.000056   0.000264
   12  C  3  S   -0.000163  -0.000288  -0.000165   0.000000  -0.133227
   13  C  3  S   -0.001385  -0.001757  -0.001026   0.000002   0.128032
   14  C  3  X    0.001096   0.001335  -0.000149  -0.000003  -0.021343
   15  C  3  Y    0.000297   0.000426   0.000000  -0.000022   0.023797
   16  C  3  Z    0.000284   0.000409   0.000004   0.000025   0.022782
   17  C  3  S    0.003827   0.004085   0.005898   0.000006   0.332451
   18  C  3  X   -0.008617  -0.012446  -0.001529   0.000020   0.004888
   19  C  3  Y   -0.000318  -0.002042   0.000772   0.000687   0.008572
   20  C  3  Z   -0.000285  -0.001963   0.000725  -0.000728   0.008184
   21  C  4  S    0.000139   0.000663   0.000467  -0.000000  -0.131612
   22  C  4  S    0.001989   0.004062   0.002677  -0.000003   0.124054
   23  C  4  X   -0.000115  -0.000446   0.000169   0.000002   0.031376
   24  C  4  Y   -0.000111  -0.000200   0.000228  -0.000048  -0.016745
   25  C  4  Z   -0.000103  -0.000194   0.000219   0.000053  -0.016177
   26  C  4  S   -0.001084  -0.010364  -0.005128   0.000010   0.351477
   27  C  4  X   -0.008117   0.000667  -0.002197  -0.000007  -0.016593
   28  C  4  Y   -0.000833   0.002943   0.000383  -0.000624  -0.013378
   29  C  4  Z   -0.000841   0.002852   0.000364   0.000634  -0.012922
   30  S  5  S   -0.301252  -0.000297   0.003830   0.000001   0.025908
   31  S  5  S    0.988557   0.000915  -0.013327  -0.000002  -0.146454
   32  S  5  X   -0.000452   0.970659   0.060736  -0.003215  -0.012506
   33  S  5  Y    0.007910  -0.046095   0.701724  -0.673598  -0.018793
   34  S  5  Z    0.007570  -0.039668   0.671684   0.704013  -0.018015
   35  S  5  S    0.134722   0.000041   0.004387   0.000000   0.187627
   36  S  5  X    0.001036   0.087819   0.005400  -0.000272   0.022453
   37  S  5  Y    0.004191  -0.004119   0.060997  -0.055995   0.034271
   38  S  5  Z    0.004010  -0.003547   0.058388   0.058526   0.032851
   39  S  5  S   -0.066450   0.003183  -0.005602  -0.000012   0.097908
   40  S  5  X   -0.001824  -0.032185  -0.001605   0.000092  -0.005115
   41  S  5  Y   -0.010233   0.003412  -0.020939   0.017496  -0.003735
   42  S  5  Z   -0.009781   0.003130  -0.020043  -0.018303  -0.003615
   43  C  6  S    0.000078  -0.000485   0.000344  -0.000000  -0.045745
   44  C  6  S    0.001385  -0.002639   0.001830  -0.000003   0.041737
   45  C  6  X   -0.000125   0.000498  -0.000295   0.000000   0.016215
   46  C  6  Y    0.000076  -0.000511   0.000272   0.000063  -0.006459
   47  C  6  Z    0.000079  -0.000484   0.000261  -0.000064  -0.006122
   48  C  6  S    0.001989   0.003487  -0.001657   0.000008   0.136859
   49  C  6  X    0.006165  -0.001302   0.001455  -0.000003   0.011603
   50  C  6  Y   -0.002515   0.002082  -0.000041  -0.001062  -0.007085
   51  C  6  Z   -0.002416   0.001969  -0.000046   0.001095  -0.006768
   52  H  7  S   -0.001204  -0.001660  -0.000046   0.000546   0.061725
   53  H  7  S    0.001631   0.002092  -0.001122  -0.002359  -0.004872
   54  H  8  S   -0.001195  -0.001656  -0.000042  -0.000537   0.061709
   55  H  8  S    0.001599   0.002091  -0.001114   0.002320  -0.004871
   56  H  9  S   -0.000842   0.000540   0.000004  -0.000475   0.063051
   57  H  9  S    0.004620   0.001735   0.003966   0.001997  -0.001976
   58  H 10  S   -0.000840   0.000544   0.000006   0.000470   0.063105
   59  H 10  S    0.004587   0.001738   0.003966  -0.001978  -0.001934
   60  H 11  S   -0.000868  -0.000296  -0.000142  -0.000534   0.021792
   61  H 11  S    0.004670  -0.003526   0.003298   0.001607  -0.000088
   62  H 12  S   -0.000866  -0.000305  -0.000142   0.000527   0.021837
   63  H 12  S    0.004620  -0.003522   0.003293  -0.001583  -0.000068
   64  H 13  S   -0.000321   0.000426   0.000691   0.000004   0.020631
   65  H 13  S    0.004288  -0.005815   0.000332  -0.000018  -0.005953
   66  H 14  S   -0.000383  -0.000595  -0.000125   0.000000   0.036687
   67  H 14  S   -0.000075  -0.001123  -0.000382   0.000004  -0.003407
   68  H 15  S   -0.000058   0.000048   0.000222  -0.000169   0.039894
   69  H 15  S   -0.000478  -0.000016  -0.000190   0.000058   0.000288

                     11         12         13         14         15
                   -1.0162    -0.9368    -0.8353    -0.7929    -0.6486
                     A          A          A          A          A   
    1  C  1  S    0.093402  -0.130962   0.097678  -0.032995  -0.000053
    2  C  1  S   -0.090129   0.121361  -0.086363   0.030032   0.000047
    3  C  1  X    0.020577   0.015979  -0.068812   0.021665   0.000559
    4  C  1  Y    0.011553  -0.000567  -0.040799   0.044954  -0.105405
    5  C  1  Z    0.011036  -0.000582  -0.038920   0.043004   0.109906
    6  C  1  S   -0.253619   0.401861  -0.353180   0.132548   0.000239
    7  C  1  X    0.001923   0.000982  -0.012825   0.003063   0.000421
    8  C  1  Y    0.004801  -0.002004  -0.016197   0.020137  -0.077557
    9  C  1  Z    0.004567  -0.001902  -0.015480   0.019257   0.080844
   10  H  2  S   -0.047698   0.075392  -0.077159   0.042100   0.081330
   11  H  2  S   -0.002703   0.010994  -0.028753   0.023676   0.065639
   12  C  3  S    0.080375  -0.003926  -0.110827   0.084028   0.000037
   13  C  3  S   -0.072559   0.003438   0.094181  -0.073456  -0.000024
   14  C  3  X   -0.036758   0.103033  -0.041015  -0.033546   0.000291
   15  C  3  Y   -0.014057   0.006208  -0.037427   0.078217  -0.165427
   16  C  3  Z   -0.013415   0.005763  -0.035707   0.075081   0.172266
   17  C  3  S   -0.232160   0.014015   0.415208  -0.323075  -0.000176
   18  C  3  X    0.013971   0.015918  -0.022217  -0.014443   0.000220
   19  C  3  Y   -0.005488   0.001923  -0.008465   0.039047  -0.126768
   20  C  3  Z   -0.005207   0.001788  -0.008105   0.037556   0.132072
   21  C  4  S   -0.016308   0.119849   0.004469  -0.106648  -0.000058
   22  C  4  S    0.006914  -0.104162   0.004770   0.098718   0.000055
   23  C  4  X   -0.065287   0.003837   0.101493   0.006759  -0.000134
   24  C  4  Y   -0.002124  -0.002547  -0.011785   0.099341  -0.166546
   25  C  4  Z   -0.002105  -0.002522  -0.011215   0.095476   0.173385
   26  C  4  S    0.091576  -0.394882  -0.066870   0.389909   0.000256
   27  C  4  X   -0.016208   0.004266   0.042039   0.008952  -0.000092
   28  C  4  Y   -0.012339   0.007310   0.007057   0.059948  -0.134859
   29  C  4  Z   -0.011940   0.007017   0.006877   0.057543   0.140386
   30  S  5  S    0.037652  -0.006161  -0.039182  -0.038964   0.000015
   31  S  5  S   -0.214265   0.035380   0.226633   0.226372  -0.000088
   32  S  5  X    0.019211   0.043582   0.013346  -0.007083   0.000117
   33  S  5  Y   -0.025019   0.002318   0.006922  -0.010385   0.023285
   34  S  5  Z   -0.023850   0.002417   0.006721  -0.010009  -0.024221
   35  S  5  S    0.265141  -0.041886  -0.268977  -0.266429   0.000116
   36  S  5  X   -0.035996  -0.080093  -0.023847   0.013494  -0.000237
   37  S  5  Y    0.046254  -0.004322  -0.013464   0.019540  -0.047586
   38  S  5  Z    0.044095  -0.004500  -0.013066   0.018835   0.049505
   39  S  5  S    0.188218  -0.042812  -0.304624  -0.335299   0.000137
   40  S  5  X    0.007002   0.000735   0.000242  -0.004243  -0.000160
   41  S  5  Y    0.005315  -0.003844  -0.016153  -0.003724  -0.029115
   42  S  5  Z    0.005119  -0.003685  -0.015500  -0.003503   0.030315
   43  C  6  S   -0.138339  -0.118023  -0.082325  -0.045107  -0.000036
   44  C  6  S    0.126178   0.109270   0.080458   0.047102   0.000029
   45  C  6  X    0.015969  -0.026938  -0.069711  -0.050306  -0.000435
   46  C  6  Y   -0.009664   0.008396   0.037490   0.044233  -0.032500
   47  C  6  Z   -0.009219   0.007877   0.035510   0.042027   0.033607
   48  C  6  S    0.421588   0.372466   0.267054   0.143526   0.000151
   49  C  6  X    0.024006  -0.003573  -0.035700  -0.022874  -0.000361
   50  C  6  Y   -0.013726  -0.003313   0.019312   0.031862  -0.026458
   51  C  6  Z   -0.013030  -0.003194   0.018301   0.030352   0.027402
   52  H  7  S   -0.037634   0.001670   0.081834  -0.090190  -0.123232
   53  H  7  S   -0.001526  -0.000595   0.026303  -0.037892  -0.088397
   54  H  8  S   -0.037660   0.001671   0.081940  -0.090185   0.123320
   55  H  8  S   -0.001566  -0.000580   0.026392  -0.037917   0.088548
   56  H  9  S    0.008280  -0.070186  -0.009553   0.114663   0.127039
   57  H  9  S   -0.001228  -0.005858  -0.000644   0.056599   0.092763
   58  H 10  S    0.008305  -0.070146  -0.009608   0.114809  -0.126810
   59  H 10  S   -0.001212  -0.005787  -0.000657   0.056703  -0.092652
   60  H 11  S    0.072956   0.072545   0.067926   0.049722   0.025808
   61  H 11  S    0.002678   0.012598   0.029802   0.030250   0.021372
   62  H 12  S    0.073008   0.072524   0.067906   0.049868  -0.025833
   63  H 12  S    0.002723   0.012557   0.029793   0.030363  -0.021478
   64  H 13  S    0.073062   0.077217   0.070968   0.037872   0.000088
   65  H 13  S    0.003220   0.017827   0.031515   0.023513   0.000072
   66  H 14  S   -0.046853   0.081750  -0.076657   0.014929  -0.000034
   67  H 14  S   -0.001881   0.018921  -0.031489   0.002698  -0.000055
   68  H 15  S   -0.047714   0.075378  -0.077190   0.042245  -0.081055
   69  H 15  S   -0.002733   0.010966  -0.028767   0.023776  -0.065436

                     16         17         18         19         20
                   -0.5975    -0.5877    -0.5731    -0.5527    -0.5516
                     A          A          A          A          A   
    1  C  1  S    0.001865  -0.000014   0.002178   0.000113   0.000686
    2  C  1  S   -0.000599   0.000010  -0.001484   0.000177   0.002644
    3  C  1  X   -0.146561   0.000878   0.137067  -0.018745  -0.227204
    4  C  1  Y    0.090674   0.069269  -0.130246  -0.184669  -0.076540
    5  C  1  Z    0.086585  -0.073380  -0.126290   0.175832  -0.103848
    6  C  1  S   -0.010745   0.000078  -0.008923  -0.003317  -0.036079
    7  C  1  X   -0.110850   0.000673   0.113288  -0.013808  -0.168613
    8  C  1  Y    0.074073   0.053988  -0.109669  -0.155485  -0.050836
    9  C  1  Z    0.070794  -0.057269  -0.106343   0.150352  -0.074701
   10  H  2  S    0.050052  -0.056825  -0.077315   0.144058  -0.061455
   11  H  2  S    0.040926  -0.049942  -0.064937   0.129238  -0.060313
   12  C  3  S   -0.008991   0.000086   0.009817  -0.002237  -0.026026
   13  C  3  S    0.007269  -0.000069  -0.008053   0.001593   0.018499
   14  C  3  X   -0.072902   0.000151   0.092999   0.020379   0.231296
   15  C  3  Y    0.104758   0.051141  -0.064506  -0.031103   0.089747
   16  C  3  Z    0.100071  -0.054531  -0.062638   0.047076   0.079552
   17  C  3  S    0.023451  -0.000319  -0.035454   0.011261   0.130889
   18  C  3  X   -0.054580   0.000128   0.069701   0.014987   0.170379
   19  C  3  Y    0.080502   0.050088  -0.051907  -0.033514   0.087564
   20  C  3  Z    0.076699  -0.053223  -0.050433   0.049214   0.077043
   21  C  4  S    0.002393  -0.000110  -0.018632   0.002593   0.030959
   22  C  4  S    0.004939   0.000053   0.014584  -0.000988  -0.012269
   23  C  4  X    0.139435  -0.000745  -0.079111  -0.001883  -0.019742
   24  C  4  Y   -0.029089  -0.032400   0.094206   0.185137   0.124046
   25  C  4  Z   -0.027691   0.033932   0.091250  -0.167747   0.149252
   26  C  4  S   -0.038205   0.000625   0.088914  -0.014005  -0.166329
   27  C  4  X    0.119570  -0.000543  -0.054169  -0.001144  -0.011413
   28  C  4  Y   -0.018057  -0.034927   0.078416   0.173883   0.127639
   29  C  4  Z   -0.016994   0.036493   0.076011  -0.155728   0.150841
   30  S  5  S    0.006766  -0.000036  -0.003141   0.000495   0.005896
   31  S  5  S   -0.039685   0.000212   0.018510  -0.002937  -0.034969
   32  S  5  X    0.039623  -0.000082   0.026616   0.007962   0.091275
   33  S  5  Y    0.031158   0.037452   0.002725  -0.013980  -0.008434
   34  S  5  Z    0.029777  -0.039330   0.002808   0.012822  -0.010261
   35  S  5  S    0.049811  -0.000288  -0.022067   0.003027   0.036061
   36  S  5  X   -0.079033   0.000152  -0.053420  -0.016285  -0.186745
   37  S  5  Y   -0.062589  -0.077246  -0.005487   0.028925   0.016728
   38  S  5  Z   -0.059800   0.081105  -0.005653  -0.026657   0.020565
   39  S  5  S    0.070584  -0.000265  -0.034833   0.006118   0.073511
   40  S  5  X   -0.037084   0.000000  -0.025057  -0.006552  -0.075590
   41  S  5  Y   -0.036325  -0.050171  -0.005762   0.020001   0.014649
   42  S  5  Z   -0.034633   0.052759  -0.005763  -0.017955   0.017391
   43  C  6  S    0.000317  -0.000033   0.003272   0.000402   0.004030
   44  C  6  S   -0.003586   0.000063  -0.004203  -0.001348  -0.014908
   45  C  6  X   -0.150070  -0.001231  -0.149217   0.011667   0.146625
   46  C  6  Y   -0.152709  -0.239315  -0.148357  -0.095081  -0.007870
   47  C  6  Z   -0.145011   0.250905  -0.144390   0.095467  -0.022359
   48  C  6  S    0.007110   0.000057  -0.008201   0.001077   0.014570
   49  C  6  X   -0.129156  -0.001079  -0.125154   0.011623   0.144231
   50  C  6  Y   -0.135895  -0.204157  -0.130333  -0.082744  -0.018826
   51  C  6  Z   -0.129144   0.214242  -0.126764   0.080965  -0.030624
   52  H  7  S   -0.051359   0.041044   0.030628  -0.033720  -0.020989
   53  H  7  S   -0.045231   0.030553   0.030676  -0.027792  -0.021562
   54  H  8  S   -0.051745  -0.040527   0.030112   0.029856  -0.025988
   55  H  8  S   -0.045444  -0.030101   0.030206   0.023931  -0.025526
   56  H  9  S   -0.023814   0.028490   0.068355  -0.139415   0.068673
   57  H  9  S   -0.021198   0.025722   0.051342  -0.112692   0.063148
   58  H 10  S   -0.024077  -0.028157   0.067795   0.149550   0.043746
   59  H 10  S   -0.021452  -0.025575   0.050831   0.122122   0.042933
   60  H 11  S   -0.086810   0.199117  -0.089884   0.078002  -0.015213
   61  H 11  S   -0.071897   0.165307  -0.072953   0.064776  -0.014092
   62  H 12  S   -0.090131  -0.197346  -0.090231  -0.079700  -0.001412
   63  H 12  S   -0.074609  -0.163928  -0.073224  -0.066308  -0.002549
   64  H 13  S    0.163368  -0.001560   0.165316  -0.007549  -0.087957
   65  H 13  S    0.126944  -0.001234   0.139688  -0.006990  -0.081440
   66  H 14  S   -0.131394   0.001096   0.148402  -0.007927  -0.091753
   67  H 14  S   -0.113322   0.000962   0.131151  -0.007698  -0.089274
   68  H 15  S    0.051201   0.056002  -0.077134  -0.152523  -0.035176
   69  H 15  S    0.041947   0.049256  -0.064791  -0.137604  -0.036591

                     21         22         23         24         25
                   -0.4923    -0.4810    -0.4438    -0.4118    -0.3382
                     A          A          A          A          A   
    1  C  1  S   -0.011357  -0.000022  -0.018727   0.014451   0.000055
    2  C  1  S    0.011091   0.000027   0.012843  -0.011472  -0.000038
    3  C  1  X    0.022039   0.000672  -0.173495   0.078140   0.000320
    4  C  1  Y   -0.180653   0.138926  -0.033307   0.022518  -0.007893
    5  C  1  Z   -0.170988  -0.147391  -0.031995   0.021639   0.008353
    6  C  1  S    0.040179   0.000163   0.077372  -0.049635  -0.000347
    7  C  1  X    0.041166   0.000729  -0.175855   0.072658   0.000377
    8  C  1  Y   -0.161527   0.134352  -0.019838   0.012660  -0.012822
    9  C  1  Z   -0.152775  -0.142599  -0.019048   0.012242   0.013518
   10  H  2  S   -0.104350  -0.137712  -0.002644   0.003387   0.006839
   11  H  2  S   -0.118998  -0.151613  -0.012057   0.016564   0.001963
   12  C  3  S   -0.006379  -0.000039   0.011380   0.006231  -0.000111
   13  C  3  S    0.008225   0.000084  -0.007093  -0.005370   0.000072
   14  C  3  X   -0.043810  -0.000761   0.210814  -0.043327  -0.000504
   15  C  3  Y    0.199902  -0.191702   0.010130  -0.039137   0.004281
   16  C  3  Z    0.188843   0.202639   0.010288  -0.037710  -0.004432
   17  C  3  S   -0.013575  -0.000289  -0.066455  -0.032411   0.000740
   18  C  3  X   -0.026987  -0.000490   0.187177  -0.056854  -0.000499
   19  C  3  Y    0.174426  -0.195396   0.009127  -0.052280   0.024791
   20  C  3  Z    0.164405   0.206020   0.009408  -0.050453  -0.025664
   21  C  4  S   -0.019944  -0.000185   0.006831   0.015841  -0.000010
   22  C  4  S    0.015804   0.000149  -0.023255   0.001922   0.000014
   23  C  4  X    0.151710   0.001717  -0.197714   0.133064   0.000315
   24  C  4  Y   -0.105452   0.093497   0.004181   0.126871   0.057982
   25  C  4  Z   -0.099897  -0.099019   0.003303   0.121947  -0.060686
   26  C  4  S    0.084434   0.000793   0.029171  -0.121980  -0.000013
   27  C  4  X    0.130557   0.001644  -0.212392   0.190740   0.000071
   28  C  4  Y   -0.103495   0.096891  -0.033625   0.145326   0.024250
   29  C  4  Z   -0.097925  -0.102556  -0.032975   0.139863  -0.025515
   30  S  5  S    0.005358   0.000044   0.008457   0.018567  -0.000006
   31  S  5  S   -0.031588  -0.000260  -0.050418  -0.111329   0.000039
   32  S  5  X   -0.027880  -0.000056  -0.151273   0.041415   0.000876
   33  S  5  Y    0.022680  -0.011108   0.036527   0.144972   0.176652
   34  S  5  Z    0.021541   0.011937   0.034121   0.138912  -0.184611
   35  S  5  S    0.039403   0.000364   0.056449   0.124034  -0.000019
   36  S  5  X    0.056714   0.000119   0.310902  -0.084974  -0.001865
   37  S  5  Y   -0.046924   0.023774  -0.075336  -0.300525  -0.375992
   38  S  5  Z   -0.044564  -0.025520  -0.070372  -0.287957   0.392933
   39  S  5  S    0.061926   0.000390   0.124534   0.325601  -0.000192
   40  S  5  X    0.021262  -0.000002   0.173963  -0.050802  -0.001954
   41  S  5  Y   -0.027531   0.012109  -0.054305  -0.232383  -0.398389
   42  S  5  Z   -0.026249  -0.013132  -0.050892  -0.222654   0.416237
   43  C  6  S   -0.000383   0.000002   0.020334   0.013530  -0.000000
   44  C  6  S    0.004612  -0.000006   0.005070  -0.004914  -0.000010
   45  C  6  X   -0.016996  -0.000076  -0.216714  -0.044470   0.000269
   46  C  6  Y    0.045588  -0.019885   0.083500   0.099804   0.056572
   47  C  6  Z    0.043143   0.021118   0.078690   0.095315  -0.059268
   48  C  6  S   -0.012541  -0.000016  -0.153174  -0.088484   0.000029
   49  C  6  X   -0.028572  -0.000079  -0.249638  -0.068413   0.000114
   50  C  6  Y    0.045476  -0.015030   0.109580   0.094278   0.028821
   51  C  6  Z    0.043010   0.015945   0.103484   0.089975  -0.030421
   52  H  7  S   -0.117916  -0.181513  -0.007728   0.024380  -0.003535
   53  H  7  S   -0.125529  -0.183114  -0.001617   0.037221  -0.027627
   54  H  8  S   -0.120609   0.179866  -0.006812   0.024075   0.003570
   55  H  8  S   -0.128239   0.181267  -0.000614   0.036877   0.027487
   56  H  9  S   -0.057375  -0.094973   0.001989   0.066810  -0.069722
   57  H  9  S   -0.071288  -0.104311   0.006951   0.094987  -0.116233
   58  H 10  S   -0.058965   0.093939   0.002639   0.067106   0.069408
   59  H 10  S   -0.072998   0.103106   0.007764   0.095423   0.115771
   60  H 11  S    0.026561   0.017737   0.031268   0.054569  -0.070573
   61  H 11  S    0.024287   0.015360   0.045400   0.080413  -0.115859
   62  H 12  S    0.027124  -0.017391   0.030984   0.055222   0.070050
   63  H 12  S    0.024793  -0.014990   0.045096   0.081383   0.115141
   64  H 13  S   -0.014360  -0.000262   0.087875  -0.044196   0.000530
   65  H 13  S   -0.015088  -0.000293   0.105295  -0.049680   0.000785
   66  H 14  S    0.130618   0.001879  -0.088642   0.031549   0.000119
   67  H 14  S    0.125860   0.001865  -0.098075   0.037792   0.000200
   68  H 15  S   -0.107294   0.135705  -0.001875   0.003100  -0.006826
   69  H 15  S   -0.122118   0.149453  -0.011123   0.016237  -0.001907

                     26         27         28         29         30
                    0.1907     0.2271     0.2639     0.2914     0.2970
                     A          A          A          A          A   
    1  C  1  S    0.019021  -0.065335  -0.026221  -0.092317  -0.000845
    2  C  1  S   -0.013764   0.021517   0.000598   0.017606   0.000212
    3  C  1  X   -0.014277  -0.030838   0.040713   0.048706   0.000151
    4  C  1  Y   -0.013816  -0.022263   0.060124   0.055036   0.085017
    5  C  1  Z   -0.013068  -0.021212   0.057199   0.054355  -0.087945
    6  C  1  S   -0.172864   0.788295   0.453754   1.361373   0.011635
    7  C  1  X   -0.182841   0.011104   0.120123   0.148828   0.001428
    8  C  1  Y   -0.050448  -0.094599   0.306878   0.302954   0.311924
    9  C  1  Z   -0.047252  -0.090422   0.293161   0.296447  -0.323138
   10  H  2  S   -0.018072   0.017288  -0.006871  -0.020683   0.017013
   11  H  2  S    0.083745  -0.190545  -0.421219  -0.805676   0.527541
   12  C  3  S    0.043595   0.004260  -0.034916  -0.066439  -0.000186
   13  C  3  S   -0.012976  -0.014054   0.015891   0.012153  -0.000126
   14  C  3  X    0.009546   0.023560   0.023279  -0.061946  -0.001126
   15  C  3  Y    0.026822  -0.027577  -0.020609  -0.013072   0.099412
   16  C  3  Z    0.025822  -0.026669  -0.019925  -0.010198  -0.102647
   17  C  3  S   -0.539735   0.095890   0.477699   0.976802   0.003517
   18  C  3  X   -0.065321  -0.180654   0.165223  -0.411413  -0.007168
   19  C  3  Y    0.024683  -0.129770  -0.197258  -0.140231   0.342593
   20  C  3  Z    0.024032  -0.125291  -0.189551  -0.125735  -0.350858
   21  C  4  S    0.078767  -0.074128  -0.061643   0.067558   0.000877
   22  C  4  S   -0.032387   0.031811   0.002308  -0.019336  -0.000119
   23  C  4  X    0.140728  -0.147374   0.043894   0.059070   0.000029
   24  C  4  Y    0.072243  -0.062411   0.131860   0.065079   0.138953
   25  C  4  Z    0.069513  -0.059614   0.125062   0.065171  -0.144355
   26  C  4  S   -0.777929   0.716194   1.021759  -0.774551  -0.012533
   27  C  4  X    0.498873  -0.568781   0.172344  -0.105174  -0.004880
   28  C  4  Y    0.205469  -0.118181   0.516815   0.335834   0.571145
   29  C  4  Z    0.198337  -0.111403   0.489998   0.333403  -0.591786
   30  S  5  S    0.000690  -0.029115   0.016396   0.002436  -0.000138
   31  S  5  S   -0.004683   0.183764  -0.097286  -0.017917   0.000796
   32  S  5  X   -0.150693  -0.015765  -0.008065  -0.047922  -0.000298
   33  S  5  Y   -0.005409   0.096413  -0.025618  -0.012182  -0.002693
   34  S  5  Z   -0.005935   0.092328  -0.024661  -0.011909   0.003256
   35  S  5  S   -0.002534  -0.146752   0.210668  -0.034327  -0.002307
   36  S  5  X    0.297878   0.035830   0.009689   0.101869   0.000684
   37  S  5  Y    0.011935  -0.195451   0.059245   0.023096   0.019912
   38  S  5  Z    0.012930  -0.187175   0.056916   0.022893  -0.021720
   39  S  5  S    0.050338  -0.980394   0.207451   0.217561  -0.000371
   40  S  5  X    1.032265   0.111806   0.121686   0.337064   0.001201
   41  S  5  Y    0.034533  -0.720561   0.149302   0.095562  -0.136068
   42  S  5  Z    0.038097  -0.689818   0.144858   0.090346   0.137623
   43  C  6  S   -0.086983  -0.094759  -0.072053   0.080979   0.000936
   44  C  6  S    0.032528   0.033043   0.006705  -0.025032  -0.000257
   45  C  6  X    0.105549   0.159576  -0.074969   0.080140   0.002815
   46  C  6  Y   -0.076448  -0.079815   0.076876  -0.024577   0.085617
   47  C  6  Z   -0.072794  -0.074814   0.071680  -0.021768  -0.088754
   48  C  6  S    0.905920   0.980532   1.100233  -1.126387  -0.013873
   49  C  6  X    0.304703   0.594463  -0.302069   0.446073   0.014568
   50  C  6  Y   -0.221629  -0.258936   0.290163  -0.038279   0.407434
   51  C  6  Z   -0.212015  -0.240731   0.269367  -0.027995  -0.419345
   52  H  7  S   -0.003874  -0.029419   0.018965   0.007916  -0.052797
   53  H  7  S    0.228470  -0.176248  -0.266140  -0.410424  -0.696849
   54  H  8  S   -0.004116  -0.029326   0.019240   0.006735   0.053025
   55  H  8  S    0.227971  -0.174615  -0.264656  -0.426281   0.700966
   56  H  9  S    0.011312   0.011930  -0.002705  -0.007018   0.024840
   57  H  9  S    0.197410  -0.148510  -0.839457   0.033473   0.898912
   58  H 10  S    0.011662   0.012170  -0.002729  -0.006268  -0.025015
   59  H 10  S    0.198615  -0.144076  -0.849883   0.049982  -0.890363
   60  H 11  S   -0.016695   0.005532  -0.007857  -0.018045   0.008138
   61  H 11  S   -0.227918  -0.159548  -0.683228   0.431629   0.581417
   62  H 12  S   -0.017140   0.005874  -0.008113  -0.018360  -0.008813
   63  H 12  S   -0.230631  -0.154559  -0.694202   0.437051  -0.574028
   64  H 13  S    0.033587  -0.009902  -0.001356   0.052452   0.000812
   65  H 13  S   -0.127685  -0.096352  -0.419790   0.919174   0.017157
   66  H 14  S    0.027134  -0.031459   0.007035   0.033246   0.000141
   67  H 14  S    0.236514  -0.423220  -0.038468  -0.340195  -0.005952
   68  H 15  S   -0.018132   0.017297  -0.006746  -0.020398  -0.017255
   69  H 15  S    0.084080  -0.189536  -0.423416  -0.796220  -0.537872

                     31         32         33         34         35
                    0.3154     0.3334     0.3351     0.3480     0.3628
                     A          A          A          A          A   
    1  C  1  S    0.063825   0.052089   0.000005   0.087664  -0.016837
    2  C  1  S   -0.015410  -0.007863  -0.000140  -0.024842   0.009591
    3  C  1  X   -0.072437   0.104832  -0.002986  -0.124091  -0.156110
    4  C  1  Y    0.026274  -0.100366  -0.106449   0.033081   0.051292
    5  C  1  Z    0.025719  -0.090762   0.114700   0.025878   0.090928
    6  C  1  S   -0.917528  -0.718163  -0.000310  -1.199704   0.189043
    7  C  1  X   -0.256411   0.495189  -0.014135  -0.607069  -0.791947
    8  C  1  Y    0.082279  -0.369672  -0.486679   0.286563   0.270205
    9  C  1  Z    0.079293  -0.327501   0.522069   0.247691   0.481729
   10  H  2  S   -0.004366   0.012830  -0.033472  -0.001130  -0.030331
   11  H  2  S    0.221909   0.685205  -0.776607   0.277658  -0.645057
   12  C  3  S    0.010723  -0.101838   0.002117  -0.061916  -0.032958
   13  C  3  S   -0.010008   0.019440  -0.000391   0.015540   0.010288
   14  C  3  X   -0.032983   0.025640   0.000665   0.054389  -0.079778
   15  C  3  Y    0.067552  -0.079266  -0.048294  -0.063342  -0.033773
   16  C  3  Z    0.066685  -0.074810   0.052427  -0.063195  -0.032670
   17  C  3  S   -0.126347   1.436826  -0.029538   0.902858   0.438518
   18  C  3  X   -0.071176   0.080225   0.004838   0.324593  -0.344651
   19  C  3  Y    0.305255  -0.249520  -0.143950  -0.504644  -0.204815
   20  C  3  Z    0.301302  -0.239012   0.150386  -0.492772  -0.192170
   21  C  4  S   -0.027283   0.044184  -0.002270  -0.044422   0.079709
   22  C  4  S   -0.016336  -0.012354   0.000653  -0.001471  -0.031252
   23  C  4  X   -0.035681   0.065725  -0.001703  -0.021892  -0.112953
   24  C  4  Y    0.022246  -0.018262   0.006102   0.022059  -0.069858
   25  C  4  Z    0.022112  -0.017884  -0.005574   0.023377  -0.108540
   26  C  4  S    0.483916  -0.592930   0.030966   0.772176  -1.091736
   27  C  4  X   -0.417288   0.072021   0.000986   0.108024  -0.297383
   28  C  4  Y    0.160075  -0.049172   0.018041   0.180581  -0.191626
   29  C  4  Z    0.156400  -0.048087  -0.014872   0.186368  -0.412047
   30  S  5  S   -0.005019   0.007312  -0.000339  -0.002421  -0.001864
   31  S  5  S    0.032674  -0.042817   0.002023   0.016649   0.011234
   32  S  5  X   -0.004550  -0.025211   0.000076  -0.052422   0.045911
   33  S  5  Y    0.006213   0.001987   0.011649   0.018399   0.006230
   34  S  5  Z    0.005764   0.001562  -0.011283   0.017899   0.006188
   35  S  5  S   -0.013522   0.114006  -0.004416   0.016376  -0.019230
   36  S  5  X    0.024049   0.064309  -0.000046   0.134275  -0.102683
   37  S  5  Y    0.006298  -0.008764  -0.022420  -0.043346  -0.014120
   38  S  5  Z    0.006828  -0.007848   0.021603  -0.042191  -0.015160
   39  S  5  S   -0.233379   0.022337  -0.003765  -0.173678  -0.026529
   40  S  5  X   -0.148584   0.041160  -0.000208   0.210508  -0.281242
   41  S  5  Y   -0.272620   0.032850  -0.116813  -0.078858  -0.031085
   42  S  5  Z   -0.264033   0.036053   0.115004  -0.076541  -0.018882
   43  C  6  S    0.022634  -0.023938   0.001201   0.025518  -0.052453
   44  C  6  S   -0.016121   0.006865  -0.000058   0.002256   0.010574
   45  C  6  X    0.155077   0.042157   0.001876   0.028693  -0.076867
   46  C  6  Y    0.095785   0.069366   0.161755  -0.104679   0.049879
   47  C  6  Z    0.094562   0.060266  -0.174249  -0.098870   0.068778
   48  C  6  S   -0.302534   0.333777  -0.019613  -0.486118   0.817281
   49  C  6  X    0.866321   0.279465   0.004127   0.016713  -0.162733
   50  C  6  Y    0.515736   0.370908   0.800860  -0.458784   0.226190
   51  C  6  Z    0.509655   0.324408  -0.861825  -0.435437   0.348219
   52  H  7  S    0.008222  -0.018839   0.030973  -0.021313  -0.002551
   53  H  7  S    0.389221  -0.883076   0.340811  -0.786907  -0.330815
   54  H  8  S    0.007627  -0.020023  -0.030861  -0.020091  -0.003065
   55  H  8  S    0.376138  -0.890562  -0.313252  -0.771019  -0.332810
   56  H  9  S   -0.047639   0.012163  -0.019682  -0.022060   0.022280
   57  H  9  S   -0.383402   0.347876  -0.028695  -0.418399   0.913285
   58  H 10  S   -0.047203   0.012636   0.018670  -0.021256  -0.000449
   59  H 10  S   -0.378829   0.347149  -0.001163  -0.401997   0.581144
   60  H 11  S   -0.029014  -0.024750   0.049594   0.028084  -0.034833
   61  H 11  S   -0.421312  -0.477090   1.225370   0.625247  -0.680339
   62  H 12  S   -0.028745  -0.027104  -0.047204   0.028037  -0.018255
   63  H 12  S   -0.417545  -0.531074  -1.177490   0.636553  -0.486928
   64  H 13  S    0.064056   0.043964  -0.001478  -0.017247   0.009479
   65  H 13  S    1.478936   0.497460  -0.012855  -0.219975  -0.271294
   66  H 14  S    0.010175  -0.028935   0.000436   0.013533   0.060981
   67  H 14  S    0.759764  -0.621686   0.024798   1.253853   1.115874
   68  H 15  S   -0.004234   0.014681   0.033206  -0.003346  -0.010247
   69  H 15  S    0.222149   0.731054   0.758210   0.230298  -0.323023

                     36         37         38         39         40
                    0.3645     0.3725     0.4242     0.4370     0.7168
                     A          A          A          A          A   
    1  C  1  S   -0.003777  -0.000535   0.075343   0.041214   0.011506
    2  C  1  S    0.001933   0.000139  -0.000024   0.001273  -0.027843
    3  C  1  X   -0.025024  -0.001954   0.061345   0.098711   0.043746
    4  C  1  Y    0.134319  -0.071188   0.036565   0.137206  -0.034099
    5  C  1  Z   -0.117720   0.076256   0.036201   0.130695  -0.033290
    6  C  1  S    0.044740   0.006959  -1.150000  -0.675298  -0.019230
    7  C  1  X   -0.127515  -0.010086   0.946564   0.746215   0.079922
    8  C  1  Y    0.729803  -0.539071   0.233421   0.872509   0.113506
    9  C  1  Z   -0.645013   0.571294   0.227947   0.831029   0.108707
   10  H  2  S    0.055864   0.012074  -0.031808  -0.029238  -0.040041
   11  H  2  S    0.902024  -0.584288   0.164716  -0.507799   0.003384
   12  C  3  S   -0.005130   0.000337  -0.132441  -0.016864  -0.014613
   13  C  3  S    0.001603   0.000036   0.007117   0.003436  -0.002893
   14  C  3  X   -0.014703  -0.001557  -0.018979   0.272514   0.135222
   15  C  3  Y   -0.019091   0.178224   0.160846   0.040981   0.031589
   16  C  3  Z    0.009522  -0.186230   0.153404   0.038720   0.029803
   17  C  3  S    0.067651  -0.005525   2.033303   0.222721   0.273429
   18  C  3  X   -0.065895  -0.006230  -0.343765   1.721649   0.047816
   19  C  3  Y   -0.086007   1.049434   1.068613   0.255254  -0.134916
   20  C  3  Z    0.033892  -1.099164   1.019160   0.240798  -0.130372
   21  C  4  S    0.014100   0.000578   0.072319  -0.030868   0.012434
   22  C  4  S   -0.005191  -0.000422   0.005013  -0.004024  -0.020738
   23  C  4  X   -0.019128  -0.000732  -0.153873   0.092387   0.061825
   24  C  4  Y   -0.130953  -0.105092   0.070386  -0.095078   0.004135
   25  C  4  Z    0.105845   0.107965   0.068273  -0.090539   0.004398
   26  C  4  S   -0.195971  -0.006751  -1.195352   0.498829  -0.087066
   27  C  4  X   -0.053979  -0.001026  -1.247206   0.530405   0.221502
   28  C  4  Y   -0.690780  -0.649019   0.350009  -0.735088   0.193726
   29  C  4  Z    0.614301   0.670949   0.339677  -0.700885   0.187077
   30  S  5  S   -0.000240   0.000056  -0.001800  -0.001982  -0.049406
   31  S  5  S    0.001424  -0.000341   0.013225   0.015196   0.261191
   32  S  5  X    0.008544   0.000691  -0.021265  -0.052676  -0.021601
   33  S  5  Y    0.002040  -0.018984   0.018664   0.025284  -0.163788
   34  S  5  Z   -0.000532   0.019430   0.017942   0.023971  -0.156063
   35  S  5  S   -0.002862   0.000620   0.011611   0.027698  -1.512221
   36  S  5  X   -0.019417  -0.001620   0.030884   0.152156   0.080407
   37  S  5  Y   -0.008128   0.048489  -0.043928  -0.068324   0.558168
   38  S  5  Z    0.004684  -0.049602  -0.042312  -0.064688   0.531776
   39  S  5  S   -0.001749   0.001443  -0.240339  -0.275352   1.855676
   40  S  5  X   -0.050051  -0.003352   0.219041  -0.158839  -0.089742
   41  S  5  Y    0.025130   0.072965  -0.199798  -0.095190  -0.264472
   42  S  5  Z   -0.032096  -0.074299  -0.191203  -0.091889  -0.251164
   43  C  6  S   -0.009193  -0.000296  -0.025150  -0.016414   0.005035
   44  C  6  S    0.001690  -0.000080  -0.009741   0.039113  -0.009399
   45  C  6  X   -0.013030  -0.000534  -0.126604   0.097073  -0.059821
   46  C  6  Y    0.081975  -0.012095  -0.078169   0.001901   0.026000
   47  C  6  Z   -0.061781   0.015320  -0.076492   0.002544   0.024976
   48  C  6  S    0.145260   0.006078   0.439868   0.030575  -0.028281
   49  C  6  X   -0.024099  -0.000351  -0.144969   0.242079  -0.273708
   50  C  6  Y    0.477192   0.025312  -0.238693   0.025575   0.166092
   51  C  6  Z   -0.384118  -0.014928  -0.232902   0.024115   0.157587
   52  H  7  S    0.000137  -0.017813   0.042578   0.008441  -0.059360
   53  H  7  S    0.035267  -1.297055   0.196286   0.076306  -0.145537
   54  H  8  S   -0.000513   0.017814   0.042413   0.008458  -0.059389
   55  H  8  S   -0.132362   1.298859   0.202567   0.077008  -0.144236
   56  H  9  S   -0.068623   0.015342  -0.025567   0.029193  -0.053441
   57  H  9  S   -0.818587  -0.729529  -0.021182   0.462899  -0.040056
   58  H 10  S    0.072994  -0.015286  -0.025939   0.029637  -0.053080
   59  H 10  S    1.078686   0.738955  -0.017646   0.471590  -0.038633
   60  H 11  S    0.045893   0.020179  -0.026310   0.022147  -0.045000
   61  H 11  S    0.514354   0.016016   0.125901  -0.080980  -0.087910
   62  H 12  S   -0.055760  -0.020699  -0.026855   0.021653  -0.044643
   63  H 12  S   -0.728596  -0.031878   0.124299  -0.084831  -0.086592
   64  H 13  S    0.001853   0.000007   0.041048  -0.001880  -0.076840
   65  H 13  S   -0.044482   0.002317  -0.622493   0.232458  -0.155235
   66  H 14  S    0.010037   0.000795  -0.012651  -0.059006   0.008687
   67  H 14  S    0.167634   0.015473  -0.046541   0.157962  -0.031078
   68  H 15  S   -0.062364  -0.012503  -0.031839  -0.029593  -0.040082
   69  H 15  S   -1.061459   0.566418   0.174473  -0.515462   0.002705

                     41         42         43         44         45
                    0.7559     0.7776     0.8107     0.8664     0.8986
                     A          A          A          A          A   
    1  C  1  S    0.000004   0.018279   0.002700  -0.007319  -0.000003
    2  C  1  S    0.000059  -0.014377  -0.017355   0.013488  -0.000215
    3  C  1  X   -0.000171  -0.124303   0.060099   0.009807   0.001556
    4  C  1  Y    0.021207  -0.032201  -0.023210   0.099491   0.275557
    5  C  1  Z   -0.022535  -0.031466  -0.022632   0.095205  -0.287831
    6  C  1  S   -0.000186  -0.162564   0.081717  -0.020486   0.000611
    7  C  1  X    0.000114   0.355732  -0.063189  -0.096375  -0.001989
    8  C  1  Y   -0.063160   0.179649  -0.030445  -0.133449  -0.425962
    9  C  1  Z    0.066108   0.172297  -0.028123  -0.127793   0.445120
   10  H  2  S   -0.009834  -0.028373  -0.027162   0.109992  -0.387887
   11  H  2  S   -0.021349  -0.009385   0.035910  -0.043778   0.057813
   12  C  3  S   -0.000082  -0.008672   0.000033   0.027606   0.000054
   13  C  3  S    0.000100  -0.039938   0.010447  -0.067319  -0.000011
   14  C  3  X    0.000122   0.247891   0.002828  -0.188325  -0.001424
   15  C  3  Y   -0.005616   0.094990  -0.019995   0.007711   0.245584
   16  C  3  Z    0.005134   0.090722  -0.018547   0.008308  -0.255571
   17  C  3  S    0.001199   0.443503  -0.209353   0.034805  -0.001744
   18  C  3  X   -0.000841   0.136870  -0.063943   0.257092   0.002098
   19  C  3  Y    0.139743  -0.107476  -0.070182  -0.137698  -0.289627
   20  C  3  Z   -0.145823  -0.103891  -0.069840  -0.133413   0.299356
   21  C  4  S    0.000117  -0.019789   0.006342  -0.025967  -0.000149
   22  C  4  S   -0.000140   0.149387   0.077255   0.010616  -0.000563
   23  C  4  X   -0.000434  -0.031013  -0.166665   0.535466  -0.000773
   24  C  4  Y   -0.019128  -0.098055   0.063846  -0.212122   0.163145
   25  C  4  Z    0.020296  -0.094946   0.062362  -0.201862  -0.172788
   26  C  4  S   -0.001209  -0.424065  -0.533627   0.397515   0.003803
   27  C  4  X    0.000613   0.271126   0.715622  -0.411818   0.000663
   28  C  4  Y   -0.027133   0.278376   0.184636   0.265409  -0.263648
   29  C  4  Z    0.029135   0.268458   0.179852   0.252411   0.277166
   30  S  5  S   -0.000112  -0.008423  -0.036242  -0.006910   0.000012
   31  S  5  S    0.000572   0.040202   0.173704   0.037733  -0.000062
   32  S  5  X    0.000343   0.322449  -0.068298  -0.032143  -0.000304
   33  S  5  Y    0.238167   0.041414   0.187503   0.042696   0.014070
   34  S  5  Z   -0.248973   0.040229   0.179928   0.040576  -0.014403
   35  S  5  S   -0.003855  -0.327536  -1.447830  -0.221514   0.000514
   36  S  5  X   -0.001229  -1.166483   0.247684   0.126047   0.001323
   37  S  5  Y   -0.853263  -0.152580  -0.715295  -0.151244  -0.057733
   38  S  5  Z    0.891850  -0.148192  -0.686312  -0.143567   0.059525
   39  S  5  S    0.005609   0.586207   2.474578   0.179772  -0.000278
   40  S  5  X    0.000689   1.467929  -0.321329  -0.261370  -0.001842
   41  S  5  Y    0.816683   0.287841   1.368864   0.001409   0.092139
   42  S  5  Z   -0.851340   0.278982   1.311262  -0.001275  -0.096386
   43  C  6  S   -0.000034   0.018093  -0.004440  -0.005327  -0.000041
   44  C  6  S    0.000396  -0.084403   0.125166  -0.009641   0.000111
   45  C  6  X    0.000066  -0.007808   0.190877  -0.436353  -0.002000
   46  C  6  Y   -0.043400   0.001342   0.024813  -0.228342  -0.122953
   47  C  6  Z    0.045199   0.002873   0.026710  -0.223413   0.126892
   48  C  6  S   -0.001258   0.085551  -0.630972   0.040608  -0.000272
   49  C  6  X   -0.001487   0.005451  -0.799073   0.521262   0.002686
   50  C  6  Y    0.026106  -0.024549   0.254190   0.442984   0.177169
   51  C  6  Z   -0.026097  -0.023643   0.239353   0.429808  -0.182571
   52  H  7  S   -0.075581  -0.132310   0.037079  -0.064944   0.404148
   53  H  7  S   -0.127568  -0.116762  -0.017136   0.036211  -0.138083
   54  H  8  S    0.075715  -0.132601   0.037899  -0.063284  -0.404079
   55  H  8  S    0.125689  -0.115503  -0.015875   0.035825   0.138104
   56  H  9  S    0.101343   0.009159  -0.044342  -0.185486  -0.266561
   57  H  9  S    0.016796  -0.159819  -0.186231  -0.071174   0.034971
   58  H 10  S   -0.101058   0.009591  -0.044409  -0.187726   0.263188
   59  H 10  S   -0.016581  -0.160239  -0.183920  -0.071322  -0.035118
   60  H 11  S    0.105412  -0.066850  -0.047448  -0.219767   0.108435
   61  H 11  S    0.024393   0.073969  -0.226371  -0.042377  -0.012047
   62  H 12  S   -0.104480  -0.068513  -0.046713  -0.221772  -0.108534
   63  H 12  S   -0.025266   0.075424  -0.223854  -0.043386   0.011845
   64  H 13  S   -0.001082   0.062947  -0.085453   0.375476  -0.000062
   65  H 13  S   -0.001183   0.169515  -0.176259  -0.111320  -0.000107
   66  H 14  S    0.000293  -0.100975   0.071298  -0.137333   0.002124
   67  H 14  S    0.000119   0.036051  -0.085711   0.087014  -0.000388
   68  H 15  S    0.009609  -0.027342  -0.027345   0.110152   0.386074
   69  H 15  S    0.021541  -0.010045   0.036406  -0.044158  -0.057490

                     46         47         48         49         50
                    0.9235     0.9674     1.0180     1.0263     1.0386
                     A          A          A          A          A   
    1  C  1  S   -0.005284  -0.000032  -0.040121  -0.003891   0.000264
    2  C  1  S    0.063286   0.000149   0.103004   0.034363  -0.001209
    3  C  1  X   -0.518352  -0.003339  -0.600054  -0.086875   0.005774
    4  C  1  Y    0.205940   0.201183  -0.500575   0.017825  -0.360374
    5  C  1  Z    0.198658  -0.210113  -0.473475   0.020147   0.379282
    6  C  1  S   -0.190224   0.000979   0.113700  -0.136560   0.002544
    7  C  1  X    0.781577   0.004982   0.703271   0.163190  -0.008798
    8  C  1  Y   -0.420293  -0.340284   0.691029  -0.068026   0.651196
    9  C  1  Z   -0.404498   0.354392   0.652363  -0.070246  -0.683430
   10  H  2  S    0.227750  -0.188594  -0.257705  -0.002432   0.263316
   11  H  2  S    0.010055  -0.003887  -0.105424   0.033232   0.071121
   12  C  3  S   -0.015869  -0.000044   0.059951   0.011989  -0.000517
   13  C  3  S    0.004043  -0.000285  -0.172911  -0.023412   0.001173
   14  C  3  X   -0.113348   0.001762   0.199102   0.080559  -0.001439
   15  C  3  Y   -0.007615   0.034420  -0.174659  -0.209591   0.165150
   16  C  3  Z   -0.008245  -0.035372  -0.170280  -0.202740  -0.163030
   17  C  3  S    0.310638   0.002648   0.442439  -0.027837  -0.000523
   18  C  3  X   -0.115533  -0.003204  -0.151149  -0.129186   0.001256
   19  C  3  Y    0.281680   0.028561   0.280708   0.401503  -0.217056
   20  C  3  Z    0.272599  -0.029376   0.272953   0.387208   0.208760
   21  C  4  S    0.038760   0.000167  -0.018919  -0.005813   0.000149
   22  C  4  S    0.072537   0.000146   0.055788   0.047194  -0.000887
   23  C  4  X    0.309944   0.000738   0.255803  -0.019762  -0.000345
   24  C  4  Y    0.325062  -0.151864   0.002415   0.029747   0.367980
   25  C  4  Z    0.310251   0.159617  -0.003127   0.026030  -0.385704
   26  C  4  S   -0.627615  -0.004177  -0.089749  -0.180254   0.003234
   27  C  4  X   -0.330276  -0.000307  -0.260338  -0.097146   0.001563
   28  C  4  Y   -0.362267   0.130487  -0.059012  -0.125131  -0.721426
   29  C  4  Z   -0.344323  -0.136219  -0.046739  -0.114239   0.758246
   30  S  5  S   -0.006777  -0.000022   0.001174   0.004654  -0.000027
   31  S  5  S    0.034598   0.000091  -0.004555  -0.029249   0.000106
   32  S  5  X   -0.020259   0.000019  -0.041650   0.007319  -0.000061
   33  S  5  Y   -0.000052   0.022037   0.011176  -0.023617   0.035620
   34  S  5  Z   -0.000107  -0.022815   0.010293  -0.022867  -0.036690
   35  S  5  S   -0.295659  -0.001371   0.040266   0.155685  -0.001477
   36  S  5  X    0.031041  -0.000247   0.169191  -0.084017   0.000302
   37  S  5  Y   -0.038623  -0.101286  -0.053370   0.134301  -0.163420
   38  S  5  Z   -0.036989   0.104568  -0.049214   0.129545   0.168495
   39  S  5  S    0.289576   0.002396  -0.174724   0.186855   0.003715
   40  S  5  X   -0.080315   0.001604  -0.274585  -0.225778   0.001941
   41  S  5  Y    0.152641   0.268144  -0.001444  -0.082031   0.416681
   42  S  5  Z    0.146427  -0.275869  -0.006244  -0.083538  -0.429047
   43  C  6  S   -0.000242   0.000027   0.004925  -0.038909   0.000016
   44  C  6  S    0.007424   0.000085   0.011737  -0.038419  -0.000096
   45  C  6  X    0.090681   0.003940  -0.164967   0.543827   0.000723
   46  C  6  Y    0.077273   0.504569   0.033191  -0.529106   0.169461
   47  C  6  Z    0.078509  -0.523615   0.030625  -0.506155  -0.174358
   48  C  6  S   -0.066548  -0.000768  -0.093697   0.382668  -0.001347
   49  C  6  X   -0.259060  -0.008445   0.213576  -0.658368  -0.005129
   50  C  6  Y   -0.072830  -0.924433  -0.004340   0.805658  -0.438775
   51  C  6  Z   -0.077467   0.961107  -0.001297   0.773585   0.453274
   52  H  7  S   -0.080633   0.031997   0.130953   0.121884   0.099214
   53  H  7  S    0.072900  -0.072598   0.120209   0.086877  -0.022642
   54  H  8  S   -0.083612  -0.033255   0.129049   0.120529  -0.105462
   55  H  8  S    0.073612   0.072621   0.119839   0.087381   0.018408
   56  H  9  S    0.278432   0.056876   0.021892   0.058527  -0.380310
   57  H  9  S    0.061319  -0.043347  -0.019386   0.024032  -0.057790
   58  H 10  S    0.281944  -0.054581   0.027569   0.062234   0.377336
   59  H 10  S    0.061419   0.043817  -0.019071   0.024739   0.056142
   60  H 11  S    0.016918  -0.459434   0.011701  -0.355760  -0.208883
   61  H 11  S   -0.017012  -0.083863  -0.001303  -0.118376  -0.081395
   62  H 12  S    0.014444   0.457772   0.012289  -0.354534   0.209627
   63  H 12  S   -0.016834   0.083278  -0.001108  -0.117728   0.081303
   64  H 13  S   -0.099343   0.001648   0.088495  -0.107428  -0.001447
   65  H 13  S   -0.059520  -0.000314  -0.005233  -0.047492   0.000147
   66  H 14  S   -0.454543  -0.000805   0.027801   0.046468  -0.002291
   67  H 14  S    0.032912  -0.000271  -0.094567  -0.072608   0.002119
   68  H 15  S    0.230867   0.188051  -0.261690  -0.004012  -0.259600
   69  H 15  S    0.010425   0.003589  -0.106076   0.033131  -0.070727

                     51         52         53         54         55
                    1.0472     1.1505     1.1859     1.2258     1.2913
                     A          A          A          A          A   
    1  C  1  S    0.019903  -0.045160  -0.025809  -0.000024   0.043178
    2  C  1  S    0.016039   0.050356   0.017824  -0.000181  -0.005770
    3  C  1  X    0.134995  -0.053568  -0.213169  -0.000062  -0.152616
    4  C  1  Y    0.264850  -0.021228   0.192147  -0.353968  -0.056950
    5  C  1  Z    0.258075  -0.017282   0.181584   0.369825  -0.054705
    6  C  1  S   -0.359186  -0.484098  -0.077712   0.002452  -0.383184
    7  C  1  X   -0.072406   0.519700   0.662598  -0.000385   0.198009
    8  C  1  Y   -0.488509   0.313273  -0.399838   0.790742   0.063821
    9  C  1  Z   -0.475653   0.292186  -0.376915  -0.828903   0.061916
   10  H  2  S    0.107904  -0.240054  -0.064651  -0.134349   0.301015
   11  H  2  S    0.158500  -0.039312   0.130252   0.548582  -0.108991
   12  C  3  S    0.012822  -0.008098   0.015594   0.000052   0.031847
   13  C  3  S   -0.021840  -0.033166  -0.097535  -0.000327   0.020684
   14  C  3  X    0.462785  -0.758200  -0.110739  -0.000413  -0.312151
   15  C  3  Y   -0.510435  -0.333018  -0.262231   0.541668   0.112453
   16  C  3  Z   -0.493419  -0.321331  -0.245924  -0.564121   0.108806
   17  C  3  S   -0.261742  -0.122448   0.661836   0.003394   0.140086
   18  C  3  X   -0.584571   1.492222  -0.346510  -0.002253   0.599199
   19  C  3  Y    0.928481   0.438778   0.574445  -1.286247   0.106632
   20  C  3  Z    0.897537   0.424618   0.537422   1.339417   0.097531
   21  C  4  S   -0.027016   0.001263  -0.015602   0.000035   0.033702
   22  C  4  S    0.107359  -0.038400   0.104549   0.000571   0.055990
   23  C  4  X    0.082230  -0.433855   0.119415   0.000529  -0.002936
   24  C  4  Y    0.162321   0.146963  -0.495148  -0.510751  -0.276430
   25  C  4  Z    0.154085   0.141818  -0.479734   0.524511  -0.267353
   26  C  4  S   -0.581903   0.307687  -0.460148  -0.001706  -0.048345
   27  C  4  X   -0.289099   0.748463  -0.454100  -0.001907   0.250683
   28  C  4  Y   -0.256940  -0.378206   1.029144   1.136244   0.256606
   29  C  4  Z   -0.243635  -0.363956   0.999355  -1.169481   0.253072
   30  S  5  S   -0.005309  -0.006873   0.001301   0.000029  -0.009129
   31  S  5  S    0.032353   0.033332  -0.010413  -0.000159   0.039032
   32  S  5  X    0.051957   0.057905   0.001266  -0.000148   0.030543
   33  S  5  Y   -0.000839  -0.016488  -0.004047   0.003175  -0.014010
   34  S  5  Z   -0.000950  -0.015794  -0.003721  -0.003264  -0.013619
   35  S  5  S   -0.140524  -0.296961   0.017630   0.001045  -0.482833
   36  S  5  X   -0.184747  -0.234774  -0.032288   0.000463  -0.136161
   37  S  5  Y   -0.013682   0.064642   0.032163   0.002805   0.045487
   38  S  5  Z   -0.012249   0.062111   0.030245  -0.002898   0.044630
   39  S  5  S   -0.132746   0.419453   0.198383  -0.000503   0.921120
   40  S  5  X    0.205288   0.381940   0.658244   0.002570   0.386094
   41  S  5  Y   -0.100159  -0.032777   0.016413  -0.179773   0.163661
   42  S  5  Z   -0.098361  -0.032278   0.016862   0.187161   0.154552
   43  C  6  S    0.019971   0.023275  -0.021252  -0.000201   0.040791
   44  C  6  S    0.007145   0.038056  -0.041286  -0.000350  -0.042673
   45  C  6  X   -0.270704  -0.083826   0.238376   0.001745   0.284255
   46  C  6  Y    0.090009  -0.051432   0.219263  -0.028452   0.095963
   47  C  6  Z    0.083524  -0.050898   0.210853   0.033398   0.100387
[...]
   32  S  5  X    0.017768  -0.050080  -0.036072  -0.036053
   33  S  5  Y    0.015349   0.015319  -0.013045  -0.013419
   34  S  5  Z    0.014696   0.014404  -0.012631  -0.012905
   35  S  5  S    0.188046   0.143663  -0.068546  -0.115679
   36  S  5  X   -0.070666   0.202314   0.151403   0.148960
   37  S  5  Y   -0.055034  -0.054076   0.042205   0.046653
   38  S  5  Z   -0.052714  -0.050700   0.041009   0.044933
   39  S  5  S   -0.818259  -0.743955   0.486531   0.670883
   40  S  5  X   -0.120171   0.319258  -0.037815   0.073464
   41  S  5  Y   -0.279021  -0.277765   0.199003   0.221511
   42  S  5  Z   -0.267444  -0.264323   0.189978   0.211696
   43  C  6  S   -0.007442  -0.019356   0.008328   0.011841
   44  C  6  S   -0.452620  -1.936705   0.116936   0.225776
   45  C  6  X    0.057960  -0.127534  -0.007674   0.037102
   46  C  6  Y    0.036160   0.052491  -0.024185  -0.006441
   47  C  6  Z    0.035833   0.049543  -0.023381  -0.006033
   48  C  6  S    0.941151   3.565187  -0.293589  -0.499830
   49  C  6  X   -0.047831   0.203000  -0.086845  -0.208581
   50  C  6  Y   -0.120595  -0.062279   0.100849   0.025648
   51  C  6  Z   -0.118178  -0.058771   0.096597   0.023830
   52  H  7  S    0.043724   0.004863  -0.001102  -0.402088
   53  H  7  S   -0.474669   0.019853   0.004656  -0.435303
   54  H  8  S    0.044091   0.005367  -0.001187  -0.401225
   55  H  8  S   -0.475610   0.019598   0.004998  -0.433516
   56  H  9  S   -0.051086   0.011834   0.203480   0.212990
   57  H  9  S   -0.300824   0.272089   0.477637   0.089230
   58  H 10  S   -0.051183   0.011749   0.203238   0.213233
   59  H 10  S   -0.300839   0.273043   0.478687   0.091369
   60  H 11  S   -0.050497  -0.169615   0.051705   0.068305
   61  H 11  S   -0.072697  -0.646992  -0.069154   0.010697
   62  H 12  S   -0.050066  -0.169417   0.051887   0.068363
   63  H 12  S   -0.074279  -0.647943  -0.069627   0.011404
   64  H 13  S   -0.017725  -0.165505   0.007994   0.004775
   65  H 13  S   -0.302257  -0.589393   0.065971   0.023821
   66  H 14  S   -0.025430   0.045664  -0.188419   0.213130
   67  H 14  S   -0.504817   0.119079  -0.249335   0.344511
   68  H 15  S   -0.031170   0.035893  -0.215102   0.221502
   69  H 15  S   -0.428164   0.044136  -0.514655   0.177510
 ...... END OF RHF CALCULATION ......
 CPU     0: STEP CPU TIME=     0.36 TOTAL CPU TIME=          0.4 (      0.0 MIN)
 TOTAL WALL CLOCK TIME=          0.6 SECONDS, CPU UTILIZATION IS    66.67%

     ----------------------------------------------------------------
     PROPERTY VALUES FOR THE RHF   SELF-CONSISTENT FIELD WAVEFUNCTION
     ----------------------------------------------------------------

          -----------------
          ENERGY COMPONENTS
          -----------------

         WAVEFUNCTION NORMALIZATION =       1.0000000000

                ONE ELECTRON ENERGY =   -1204.8493547138
                TWO ELECTRON ENERGY =     427.4391636719
           NUCLEAR REPULSION ENERGY =     225.4227325684
                                      ------------------
                       TOTAL ENERGY =    -551.9874584735

 ELECTRON-ELECTRON POTENTIAL ENERGY =     427.4391636719
  NUCLEUS-ELECTRON POTENTIAL ENERGY =   -1755.9505037166
   NUCLEUS-NUCLEUS POTENTIAL ENERGY =     225.4227325684
                                      ------------------
             TOTAL POTENTIAL ENERGY =   -1103.0886074763
               TOTAL KINETIC ENERGY =     551.1011490028
                 VIRIAL RATIO (V/T) =       2.0016082519

          ---------------------------------------
          MULLIKEN AND LOWDIN POPULATION ANALYSES
          ---------------------------------------

     ATOMIC MULLIKEN POPULATION IN EACH MOLECULAR ORBITAL

                      1          2          3          4          5

                  2.000000   2.000000   2.000000   2.000000   2.000000

    1            -0.000000   0.000112  -0.000000   0.004745   1.987140
    2            -0.000000  -0.000003  -0.000000   0.000009   0.002856
    3            -0.000004   0.004223   0.000015   1.984357   0.004251
    4            -0.000009   1.988117   0.000048   0.005060   0.000128
    5             2.000036   0.002023   0.002212  -0.000001   0.000003
    6            -0.000016   0.000045   1.989852   0.000012   0.000000
    7            -0.000000   0.000011  -0.000000   0.002886   0.000021
    8            -0.000000   0.000011  -0.000000   0.002884   0.000021
    9            -0.000001   0.002731  -0.000004   0.000020  -0.000006
   10            -0.000001   0.002735  -0.000004   0.000020  -0.000006
   11            -0.000001  -0.000001   0.002616  -0.000000   0.000000
   12            -0.000001  -0.000001   0.002619  -0.000000   0.000000
   13            -0.000002  -0.000001   0.002646   0.000001   0.000000
   14            -0.000000  -0.000002   0.000000  -0.000002   0.002736
   15            -0.000000  -0.000003  -0.000000   0.000009   0.002856

                      6          7          8          9         10

                  2.000000   2.000000   2.000000   2.000000   2.000000

    1             0.000000   0.000000  -0.000000  -0.000000   0.248625
    2            -0.000000  -0.000000  -0.000000  -0.000000   0.010829
    3             0.000189   0.000218   0.000012  -0.000002   0.643796
    4             0.001366  -0.000584  -0.000022   0.000024   0.658311
    5             1.996423   2.000068   1.999825   1.999899   0.224717
    6             0.001604   0.000125   0.000044   0.000041   0.094097
    7             0.000006   0.000006   0.000000   0.000002   0.021593
    8             0.000006   0.000006   0.000000   0.000002   0.021578
    9             0.000082   0.000012   0.000041   0.000009   0.025225
   10             0.000082   0.000012   0.000041   0.000009   0.025305
   11             0.000080   0.000027   0.000030   0.000007   0.003300
   12             0.000079   0.000027   0.000030   0.000007   0.003319
   13             0.000084   0.000082   0.000001   0.000000   0.001214
   14            -0.000000   0.000000   0.000000  -0.000000   0.007230
   15            -0.000000  -0.000000  -0.000000  -0.000000   0.010861

                     11         12         13         14         15

                  2.000000   2.000000   2.000000   2.000000   2.000000

    1             0.311846   0.574248   0.362679   0.073679   0.209988
    2             0.016523   0.044595   0.054369   0.018231   0.064478
    3             0.228577   0.070819   0.407637   0.329678   0.510929
    4             0.053129   0.481633   0.084068   0.513862   0.512562
    5             0.485368   0.045081   0.467609   0.475336   0.040164
    6             0.736668   0.476594   0.268429   0.117601   0.019997
    7             0.010451   0.000006   0.057482   0.072492   0.137056
    8             0.010479   0.000006   0.057655   0.072477   0.137305
    9             0.000393   0.034987   0.000669   0.121114   0.145258
   10             0.000397   0.034894   0.000677   0.121453   0.144755
   11             0.037721   0.041544   0.042058   0.025186   0.006712
   12             0.037809   0.041479   0.042023   0.025357   0.006744
   13             0.038261   0.051015   0.045881   0.013508   0.000000
   14             0.015830   0.058549   0.054350   0.001659   0.000000
   15             0.016548   0.044550   0.054414   0.018367   0.064053

                     16         17         18         19         20

                  2.000000   2.000000   2.000000   2.000000   2.000000

    1             0.308449   0.083231   0.420897   0.515791   0.477164
    2             0.021853   0.029181   0.051125   0.178517   0.035752
    3             0.208105   0.050760   0.131054   0.031319   0.498444
    4             0.177180   0.020574   0.167015   0.476221   0.365081
    5             0.110705   0.095905   0.021650   0.012633   0.194610
    6             0.563026   0.966425   0.504171   0.134530   0.199664
    7             0.025398   0.014288   0.009508   0.009774   0.004646
    8             0.025734   0.013910   0.009204   0.007491   0.006807
    9             0.005717   0.008089   0.036091   0.154103   0.041612
   10             0.005851   0.007940   0.035437   0.178633   0.017971
   11             0.066731   0.343702   0.066267   0.048292   0.001824
   12             0.071893   0.337615   0.066754   0.050325   0.000008
   13             0.227836   0.000021   0.232297   0.000479   0.064932
   14             0.158628   0.000011   0.197654   0.000590   0.078957
   15             0.022895   0.028350   0.050877   0.201304   0.012526

                     21         22         23         24         25

                  2.000000   2.000000   2.000000   2.000000   2.000000

    1             0.440124   0.289558   0.222052   0.043132   0.000806
    2             0.103017   0.167641   0.000506   0.000948   0.000214
    3             0.498283   0.545031   0.252706   0.031963   0.000581
    4             0.291119   0.123102   0.274162   0.412719   0.021840
    5             0.046022   0.006163   0.552655   1.187196   1.806677
    6             0.035705   0.004770   0.542481   0.150392   0.021054
    7             0.125159   0.273543   0.000303   0.007333   0.001371
    8             0.130756   0.268316   0.000246   0.007179   0.001341
    9             0.034314   0.078393   0.000139   0.040406   0.035976
   10             0.036079   0.076590   0.000184   0.040752   0.035656
   11             0.005109   0.002073   0.010386   0.027343   0.037393
   12             0.005322   0.001984   0.010237   0.027976   0.036876
   13             0.001692   0.000001   0.064684   0.012488   0.000002
   14             0.138612   0.000029   0.068831   0.009262   0.000000
   15             0.108688   0.162806   0.000427   0.000910   0.000213

               ----- POPULATIONS IN EACH AO -----
                             MULLIKEN      LOWDIN
              1  C  1  S      1.98822     1.97647
              2  C  1  S      0.35143     0.41371
              3  C  1  X      0.53021     0.50720
              4  C  1  Y      0.53811     0.50647
              5  C  1  Z      0.53852     0.50670
              6  C  1  S      1.12197     0.58424
              7  C  1  X      0.45159     0.56506
              8  C  1  Y      0.52565     0.59688
              9  C  1  Z      0.52857     0.59783
             10  H  2  S      0.46671     0.46938
             11  H  2  S      0.33394     0.44316
             12  C  3  S      1.98918     1.97625
             13  C  3  S      0.34347     0.40951
             14  C  3  X      0.51135     0.49572
             15  C  3  Y      0.54382     0.51604
             16  C  3  Z      0.54463     0.51665
             17  C  3  S      1.12270     0.56673
             18  C  3  X      0.33030     0.51937
             19  C  3  Y      0.52130     0.58108
             20  C  3  Z      0.52620     0.58231
             21  C  4  S      1.98874     1.97690
             22  C  4  S      0.34230     0.42652
             23  C  4  X      0.47348     0.46660
             24  C  4  Y      0.53008     0.50361
             25  C  4  Z      0.53278     0.50587
             26  C  4  S      1.18534     0.61413
             27  C  4  X      0.44246     0.56186
             28  C  4  Y      0.56481     0.60156
             29  C  4  Z      0.56672     0.60172
             30  S  5  S      1.99867     1.99865
             31  S  5  S      1.96372     1.95476
             32  S  5  X      1.95588     1.92734
             33  S  5  Y      1.96509     1.94402
             34  S  5  Z      1.96550     1.94479
             35  S  5  S      0.99101     0.91750
             36  S  5  X      0.61400     0.58952
             37  S  5  Y      0.86205     0.85702
             38  S  5  Z      0.87388     0.86977
             39  S  5  S      0.88698     0.83350
             40  S  5  X      0.22825     0.42640
             41  S  5  Y      0.72276     0.82549
             42  S  5  Z      0.74519     0.83987
             43  C  6  S      1.98788     1.97706
             44  C  6  S      0.34705     0.42676
             45  C  6  X      0.48380     0.46379
             46  C  6  Y      0.53470     0.50418
             47  C  6  Z      0.53797     0.50698
             48  C  6  S      1.21277     0.63505
             49  C  6  X      0.56750     0.62077
             50  C  6  Y      0.57755     0.61910
             51  C  6  Z      0.57809     0.61899
             52  H  7  S      0.46603     0.47584
             53  H  7  S      0.30730     0.42963
             54  H  8  S      0.46608     0.47583
             55  H  8  S      0.30733     0.42965
             56  H  9  S      0.46625     0.47219
             57  H  9  S      0.29912     0.43003
             58  H 10  S      0.46629     0.47223
             59  H 10  S      0.29917     0.43007
             60  H 11  S      0.46515     0.46334
             61  H 11  S      0.30325     0.43163
             62  H 12  S      0.46517     0.46332
             63  H 12  S      0.30331     0.43167
             64  H 13  S      0.46338     0.46005
             65  H 13  S      0.29374     0.42315
             66  H 14  S      0.46631     0.46857
             67  H 14  S      0.32661     0.43941
             68  H 15  S      0.46675     0.46942
             69  H 15  S      0.33390     0.44314

          ----- MULLIKEN ATOMIC OVERLAP POPULATIONS -----
          (OFF-DIAGONAL ELEMENTS NEED TO BE MULTIPLIED BY 2)

             1           2           3           4           5

    1    5.3542949
    2    0.3758052   0.5189248
    3    0.2459688  -0.0445631   5.4688827
    4   -0.0801100  -0.0012850   0.2103106   5.6863788
    5    0.0037022  -0.0000590  -0.0621562   0.2122840  15.6307535
    6   -0.0000284   0.0000004   0.0014947  -0.0337993   0.1946840
    7   -0.0398561   0.0027769   0.3866974  -0.0472826   0.0009018
    8   -0.0397806  -0.0017077   0.3867051  -0.0471949   0.0008971
    9   -0.0011754   0.0021689  -0.0380078   0.3634535  -0.0442453
   10   -0.0012292   0.0000236  -0.0379471   0.3634282  -0.0442221
   11   -0.0000000  -0.0000001  -0.0000062  -0.0014395  -0.0424163
   12   -0.0000001   0.0000000  -0.0000047  -0.0015135  -0.0423297
   13    0.0000001  -0.0000000  -0.0000166   0.0014762  -0.0346896
   14    0.3808411  -0.0249004  -0.0398521   0.0033322  -0.0000662
   15    0.3758354  -0.0265416  -0.0445636  -0.0013345  -0.0000583

             6           7           8           9          10

    6    5.5928303
    7   -0.0000035   0.4967113
    8   -0.0000038  -0.0244571   0.4966523
    9   -0.0009909   0.0029806  -0.0020066   0.5080487
   10   -0.0010513  -0.0019826   0.0029761  -0.0274035   0.5080633
   11    0.3568440   0.0000014  -0.0000016   0.0028805  -0.0003087
   12    0.3567887  -0.0000017   0.0000014  -0.0003090   0.0029628
   13    0.3605443   0.0000001   0.0000001  -0.0000172  -0.0000157
   14    0.0000001  -0.0014741  -0.0014388  -0.0000318  -0.0000307
   15    0.0000004  -0.0016780   0.0027734   0.0000239   0.0022004

            11          12          13          14          15

   11    0.4995717
   12   -0.0264976   0.4995137
   13   -0.0202284  -0.0201304   0.4701975
   14    0.0000000   0.0000000  -0.0000000   0.5014376
   15    0.0000000  -0.0000001  -0.0000000  -0.0248928   0.5188866

          TOTAL MULLIKEN AND LOWDIN ATOMIC POPULATIONS
       ATOM         MULL.POP.    CHARGE          LOW.POP.     CHARGE
    1 C             6.574268   -0.574268         6.254562   -0.254562
    2 H             0.800643    0.199357         0.912548    0.087452
    3 C             6.432942   -0.432942         6.163667   -0.163667
    4 C             6.626704   -0.626704         6.258779   -0.258779
    5 S            15.772980    0.227020        15.928615    0.071385
    6 C             6.827310   -0.827310         6.372666   -0.372666
    7 H             0.773334    0.226666         0.905469    0.094531
    8 H             0.773414    0.226586         0.905483    0.094517
    9 H             0.765369    0.234631         0.902223    0.097777
   10 H             0.765463    0.234537         0.902293    0.097707
   11 H             0.768399    0.231601         0.894967    0.105033
   12 H             0.768480    0.231520         0.894995    0.105005
   13 H             0.757120    0.242880         0.883196    0.116804
   14 H             0.792924    0.207076         0.907980    0.092020
   15 H             0.800651    0.199349         0.912558    0.087442

          -------------------------------
          BOND ORDER AND VALENCE ANALYSIS     BOND ORDER THRESHOLD=0.050
          -------------------------------

                   BOND                       BOND                       BOND
  ATOM PAIR DIST  ORDER      ATOM PAIR DIST  ORDER      ATOM PAIR DIST  ORDER
    1   2  1.096  0.927        1   3  1.546  0.914        1  14  1.096  0.930
    1  15  1.096  0.927        3   4  1.536  0.892        3   7  1.096  0.915
    3   8  1.096  0.915        4   5  1.910  0.921        4   9  1.094  0.900
    4  10  1.094  0.900        5   6  1.901  0.911        6  11  1.091  0.904
    6  12  1.091  0.904        6  13  1.091  0.908

                       TOTAL       BONDED        FREE
      ATOM            VALENCE     VALENCE     VALENCE
    1 C                 3.663       3.663       0.000
    2 H                 0.917       0.917       0.000
    3 C                 3.585       3.585      -0.000
    4 C                 3.586       3.586      -0.000
    5 S                 1.829       1.829      -0.000
    6 C                 3.643       3.643      -0.000
    7 H                 0.904       0.904      -0.000
    8 H                 0.904       0.904      -0.000
    9 H                 0.896       0.896       0.000
   10 H                 0.896       0.896       0.000
   11 H                 0.901       0.901       0.000
   12 H                 0.901       0.901       0.000
   13 H                 0.901       0.901       0.000
   14 H                 0.917       0.917       0.000
   15 H                 0.917       0.917       0.000

          ---------------------
          ELECTROSTATIC MOMENTS
          ---------------------

 POINT   1           X           Y           Z (BOHR)    CHARGE
                -3.119965   -0.170549    0.028319       -0.00 (A.U.)
         DX          DY          DZ         /D/  (DEBYE)
     0.377870    1.456378    1.392336    2.049981
 ...... END OF PROPERTY EVALUATION ......
 CPU     0: STEP CPU TIME=     0.02 TOTAL CPU TIME=          0.4 (      0.0 MIN)
 TOTAL WALL CLOCK TIME=          0.7 SECONDS, CPU UTILIZATION IS    65.67%
               580000  WORDS OF DYNAMIC MEMORY USED
 EXECUTION OF GAMESS TERMINATED NORMALLY Sun May 17 16:00:17 2020
 DDI: 263640 bytes (0.3 MB / 0 MWords) used by master data server.
Note: The following floating-point exceptions are signalling:Note: The following floating-point exceptions are signalling:Note: The following floating-point exceptions are signalling: IEEE_DENORMAL IEEE_DENORMAL

 ----------------------------------------
 CPU timing information for all processes
 ========================================
 0: 0.345 + 0.102 = 0.448
 1: 0.367 + 0.13 = 0.380
 2: 0.366 + 0.17 = 0.383
 3: 0.355 + 0.12 = 0.367
 4: 0.314 + 0.12 = 0.326
 5: 0.324 + 0.07 = 0.331
 ----------------------------------------
 IEEE_DENORMAL
Note: The following floating-point exceptions are signalling: IEEE_DENORMALNote: The following floating-point exceptions are signalling: IEEE_DENORMAL
Note: The following floating-point exceptions are signalling: IEEE_DENORMAL


 ddikick.x: exited gracefully.
unset echo
----- accounting info -----
Files used on the master node pietdev were:
-rwxr-xr-x 1 piet piet      945 mei 17 16:00 /home/piet/scr/methionine_fukui_neu.F05*
-rw-r--r-- 1 piet piet 49152000 mei 17 16:00 /home/piet/scr/methionine_fukui_neu.F10
ls: No match.
ls: No match.
ls: No match.
zo 17 mei 2020 16:00:20 CEST
0.118u 0.021s 0:03.81 3.4%	0+0k 0+8io 0pf+0w
