----- GAMESS execution script 'rungms' -----
This job is running on host pietdev
under operating system Linux at zo 17 mei 2020 15:56:05 CEST
Available scratch disk space (Kbyte units) at beginning of the job is
Filesystem     1K-blocks     Used Available Use% Mounted on
/dev/sda2      244568380 30375840 201699484  14% /
GAMESS temporary binary files will be written to /home/piet/scr
GAMESS supplementary output files will be written to /home/piet/gamess/scr
Copying input file methionine_geoopt.inp to your run's scratch directory...
cp methionine_geoopt.inp /home/piet/scr/methionine_geoopt.F05
unset echo
 
Assuming a single but multicore node.
 
/home/piet/gamess/ddikick.x /home/piet/gamess/gamess.03.x methionine_geoopt -ddi 1 6 pietdev:cpus=6 -scr /home/piet/scr

 Distributed Data Interface kickoff program.
 Initiating 6 compute processes on 1 nodes to run the following command:
 /home/piet/gamess/gamess.03.x methionine_geoopt 

          ******************************************************
          *         GAMESS VERSION = 30 SEP 2019 (R2)          *
          *             FROM IOWA STATE UNIVERSITY             *
          * M.W.SCHMIDT, K.K.BALDRIDGE, J.A.BOATZ, S.T.ELBERT, *
          *   M.S.GORDON, J.H.JENSEN, S.KOSEKI, N.MATSUNAGA,   *
          *          K.A.NGUYEN, S.J.SU, T.L.WINDUS,           *
          *       TOGETHER WITH M.DUPUIS, J.A.MONTGOMERY       *
          *         J.COMPUT.CHEM.  14, 1347-1363(1993)        *
          **************** 64 BIT LINUX VERSION ****************

  SINCE 1993, STUDENTS AND POSTDOCS WORKING AT IOWA STATE UNIVERSITY
  AND ALSO IN THEIR VARIOUS JOBS AFTER LEAVING ISU HAVE MADE IMPORTANT
  CONTRIBUTIONS TO THE CODE:
     IVANA ADAMOVIC, CHRISTINE AIKENS, YURI ALEXEEV, POOJA ARORA,
     ANDREY ASADCHEV, ROB BELL, PRADIPTA BANDYOPADHYAY, JONATHAN BENTZ,
     COLLEEN BERTONI, BRETT BODE, KURT BRORSEN, CALEB CARLIN, GALINA CHABAN,
     WEI CHEN, CHEOL HO CHOI, PAUL DAY, ALBERT DEFUSCO, NUWAN DESILVA,
     TIM DUDLEY, DMITRI FEDOROV, ALEX FINDLATER, GRAHAM FLETCHER, 
     MARK FREITAG, KURT GLAESEMANN, EMILIE B GUIDEZ, ANASTASIA GUNINA, 
     DAN KEMP, SAROM SOK LEANG, GRANT MERRILL,
     NORIYUKI MINEZAWA, JONATHAN MULLIN,
     TAKESHI NAGATA, SEAN NEDD, HEATHER NETZLOFF, BOSILJKA NJEGIC, RYAN OLSON,
     MIKE PAK, BUU PHAM, DAVID POOLE,
     SPENCER PRUITT, LUKE ROSKOP, TOSAPORN SATTASATHUCHANA,
     JIM SHOEMAKER, LYUDMILA SLIPCHENKO,
     TONY SMITH, JIE SONG, TETSUYA TAKETSUGU, SIMON WEBB,
     JORGE LUIS GALVEZ VALLEJO, PENG XU, SOOHAENG YOO,
     FEDERICO ZAHARIEV

  ADDITIONAL CODE HAS BEEN PROVIDED BY COLLABORATORS IN OTHER GROUPS:
     IOWA STATE UNIVERSITY:
          JOE IVANIC, AARON WEST, LAIMUTIS BYTAUTAS, KLAUS RUEDENBERG
     UNIVERSITY OF TOKYO: KIMIHIKO HIRAO, TAKAHITO NAKAJIMA,
          TAKAO TSUNEDA, MUNEAKI KAMIYA, SUSUMU YANAGISAWA,
          KIYOSHI YAGI, MAHITO CHIBA, SEIKEN TOKURA, NAOAKI KAWAKAMI
     UNIVERSITY OF AARHUS: FRANK JENSEN
     UNIVERSITY OF IOWA: VISVALDAS KAIRYS, HUI LI
     NATIONAL INST. OF STANDARDS AND TECHNOLOGY: WALT STEVENS, DAVID GARMER
     UNIVERSITY OF PISA: BENEDETTA MENNUCCI, JACOPO TOMASI
     UNIVERSITY OF MEMPHIS: HENRY KURTZ, PRAKASHAN KORAMBATH
     UNIVERSITY OF ALBERTA: TOBY ZENG, MARIUSZ KLOBUKOWSKI
     UNIVERSITY OF NEW ENGLAND: MARK SPACKMAN
     MIE UNIVERSITY: HIROAKI UMEDA
     NAT. INST. OF ADVANCED INDUSTRIAL SCIENCE AND TECHNOLOGY: KAZUO KITAURA
     MICHIGAN STATE UNIVERSITY:
          KAROL KOWALSKI, MARTA WLOCH, JEFFREY GOUR, JESSE LUTZ,
          WEI LI, JUN SHEN, J. EMILIANO DEUSTUA, PIOTR PIECUCH
     UNIVERSITY OF MINNESOTA:
          ANDREW SAND, PRACHI SHARMA, YINAN SHU
     UNIVERSITY OF SILESIA: MONIKA MUSIAL, STANISLAW KUCHARSKI
     FACULTES UNIVERSITAIRES NOTRE-DAME DE LA PAIX:
          OLIVIER QUINET, BENOIT CHAMPAGNE
     UNIVERSITY OF CALIFORNIA - SANTA BARBARA: BERNARD KIRTMAN
     INSTITUTE FOR MOLECULAR SCIENCE:
          KAZUYA ISHIMURA, MICHIO KATOUDA, AND SHIGERU NAGASE
     UNIVERSITY OF NOTRE DAME: ANNA POMOGAEVA, DAN CHIPMAN
     KYUSHU UNIVERSITY:
          HARUYUKI NAKANO,
          FENG LONG GU, JACEK KORCHOWIEC, MARCIN MAKOWSKI, AND YURIKO AOKI,
          HIROTOSHI MORI AND EISAKU MIYOSHI
     PENNSYLVANIA STATE UNIVERSITY:
          TZVETELIN IORDANOV, CHET SWALINA, JONATHAN SKONE,
          SHARON HAMMES-SCHIFFER
     WASEDA UNIVERSITY:
          MASATO KOBAYASHI, TOMOKO AKAMA, TSUGUKI TOUMA,
          TAKESHI YOSHIKAWA, YASUHIRO IKABATA, JUNJI SEINO,
          YUYA NAKAJIMA, HIROMI NAKAI
     NANJING UNIVERSITY: SHUHUA LI
     UNIVERSITY OF NEBRASKA:
          PEIFENG SU, DEJUN SI, NANDUN THELLAMUREGE, YALI WANG, HUI LI
     UNIVERSITY OF ZURICH: ROBERTO PEVERATI, KIM BALDRIDGE
     N. COPERNICUS UNIVERSITY AND JACKSON STATE UNIVERSITY:
          MARIA BARYSZ
     UNIVERSITY OF COPENHAGEN: Jimmy Kromann, CASPER STEINMANN
     TOKYO INSTITUTE OF TECHNOLOGY: HIROYA NAKATA
     NAGOYA UNIVERSITY: YOSHIO NISHIMOTO, STEPHAN IRLE
     MOSCOW STATE UNIVERSITY: VLADIMIR MIRONOV
     A.N.NESMEYANOV INSTITUTE OF ORGANOELEMENT COMPOUNDS OF RUSSIAN ACADEMY OF SCIENCES:
          IGOR S. GERASIMOV
     JOHANNES KEPLER UNIVERSITY LINZ:
          CHRISTIAN FRIEDL


 PARALLEL VERSION RUNNING ON        6 PROCESSORS IN        1 NODES.

 EXECUTION OF GAMESS BEGUN Sun May 17 15:56:05 2020

            ECHO OF THE FIRST FEW INPUT CARDS -
 INPUT CARD> $BASIS GBASIS=N21 NGAUSS=3 $END                                                
 INPUT CARD> $CONTRL SCFTYP=RHF RUNTYP=OPTIMIZE DFTTYP=B3LYP MAXIT=60 MULT=1 ICHARG=0 $END  
 INPUT CARD> $SYSTEM MEMDDI=1000 MWORDS=30 $END                                             
 INPUT CARD> $STATPT NSTEP=999 $END                                                         
 INPUT CARD> $SCF DIRSCF=.TRUE. $END                                                        
 INPUT CARD> $DATA                                                                          
 INPUT CARD>                                                                                
 INPUT CARD>C1                                                                              
 INPUT CARD>C 6.0000000 1.22997 0.39959 0.48640                                             
 INPUT CARD>H 1.0000000 1.23307 0.25233 1.57253                                             
 INPUT CARD>C 6.0000000 0.02090 -0.28072 -0.16552                                           
 INPUT CARD>C 6.0000000 -1.30730 0.26950 0.36161                                            
 INPUT CARD>S 16.0000000 -2.72285 -0.57408 -0.45238                                         
 INPUT CARD>C 6.0000000 -4.10990 0.28515 0.36808                                            
 INPUT CARD>H 1.0000000 0.06119 -0.14531 -1.25328                                           
 INPUT CARD>H 1.0000000 0.06104 -1.36181 0.01513                                            
 INPUT CARD>H 1.0000000 -1.37899 0.11683 1.44523                                            
 INPUT CARD>H 1.0000000 -1.37696 1.34645 0.16717                                            
 INPUT CARD>H 1.0000000 -4.09783 0.11777 1.44901                                            
 INPUT CARD>H 1.0000000 -4.09024 1.35915 0.16181                                            
 INPUT CARD>H 1.0000000 -5.03194 -0.13391 -0.04132                                          
 INPUT CARD>H 1.0000000 2.16763 -0.00667 0.09364                                            
 INPUT CARD>H 1.0000000 1.23036 1.47917 0.29738                                             
 INPUT CARD> $END                                                                           
   30000000 WORDS OF MEMORY AVAILABLE

     BASIS OPTIONS
     -------------
     GBASIS=N21          IGAUSS=       3      POLAR=NONE    
     NDFUNC=       0     NFFUNC=       0     DIFFSP=       F
     NPFUNC=       0      DIFFS=       F     BASNAM=        


     RUN TITLE
     ---------
                                                                                 

 THE POINT GROUP OF THE MOLECULE IS C1      
 THE ORDER OF THE PRINCIPAL AXIS IS     0

 ATOM      ATOMIC                      COORDINATES (BOHR)
           CHARGE         X                   Y                   Z
 C           6.0     2.3243062731        0.7551156074        0.9191627204
 H           1.0     2.3301644237        0.4768345585        2.9716508075
 C           6.0     0.0394952731       -0.5304838793       -0.3127874455
 C           6.0    -2.4704387837        0.5092811537        0.6833438144
 S          16.0    -5.1454404057       -1.0848538950       -0.8548742423
 C           6.0    -7.7665848369        0.5388553654        0.6955703416
 H           1.0     0.1156323332       -0.2745960833       -2.3683557859
 H           1.0     0.1153488743       -2.5734477473        0.0285915542
 H           1.0    -2.6059132398        0.2207766871        2.7310886892
 H           1.0    -2.6020770961        2.5444215562        0.3159054934
 H           1.0    -7.7437758443        0.2225530296        2.7382318535
 H           1.0    -7.7294328240        2.5684210762        0.3057765621
 H           1.0    -9.5089877867       -0.2530532070       -0.0780834778
 H           1.0     4.0962267428       -0.0126044723        0.1769539415
 H           1.0     2.3250432663        2.7952259893        0.5619667142

          INTERNUCLEAR DISTANCES (ANGS.)
          ------------------------------

                1 C          2 H          3 C          4 C          5 S     

   1 C       0.0000000    1.0960718 *  1.5328639 *  2.5436657 *  4.1778137  
   2 H       1.0960718 *  0.0000000    2.1850209 *  2.8142675 *  4.5202342  
   3 C       1.5328639 *  2.1850209 *  0.0000000    1.5312489 *  2.7742590 *
   4 C       2.5436657 *  2.8142675 *  1.5312489 *  0.0000000    1.8379306 *
   5 S       4.1778137    4.5202342    2.7742590 *  1.8379306 *  0.0000000  
   6 C       5.3424066    5.4771439    4.2033851    2.8026512 *  1.8262909 *
   7 H       2.1655136 *  3.0849023    1.0968961 *  2.1570123 *  2.9285087 *
   8 H       2.1658769 *  2.5307305 *  1.0968141 *  2.1572147 *  2.9307214 *
   9 H       2.7939185 *  2.6186682 *  2.1707726 *  1.0966676 *  2.4257453 *
  10 H       2.7918696 *  3.1598088    2.1708011 *  1.0965768 *  2.4256334 *
  11 H       5.4213922    5.3340283    4.4417832    2.9987528 *  2.4463259 *
  12 H       5.4157870    5.6171889    4.4382193    2.9953317 *  2.4462958 *
  13 H       6.3067129    6.4810527    5.0564979    3.7680280    2.3863396 *
  14 H       1.0947666 *  1.7685019 *  2.1796140 *  3.4961717    4.9534722  
  15 H       1.0960026 *  1.7695059 *  2.1850132 *  2.8119647 *  4.5172829  

                6 C          7 H          8 H          9 H         10 H     

   1 C       5.3424066    2.1655136 *  2.1658769 *  2.7939185 *  2.7918696 *
   2 H       5.4771439    3.0849023    2.5307305 *  2.6186682 *  3.1598088  
   3 C       4.2033851    1.0968961 *  1.0968141 *  2.1707726 *  2.1708011 *
   4 C       2.8026512 *  2.1570123 *  2.1572147 *  1.0966676 *  1.0965768 *
   5 S       1.8262909 *  2.9285087 *  2.9307214 *  2.4257453 *  2.4256334 *
   6 C       0.0000000    4.4957865    4.4981987    2.9404852 *  2.9386534 *
   7 H       4.4957865    0.0000000    1.7574801 *  3.0699824    2.5122304 *
   8 H       4.4981987    1.7574801 *  0.0000000    2.5110254 *  3.0701193  
   9 H       2.9404852 *  3.0699824    2.5110254 *  0.0000000    1.7735295 *
  10 H       2.9386534 *  2.5122304 *  3.0701193    1.7735295 *  0.0000000  
  11 H       1.0938791 *  4.9667927    4.6412680    2.7188428 *  3.2489847  
  12 H       1.0938052 *  4.6368363    4.9657088    3.2467526    2.7133150 *
  13 H       1.0924181 *  5.2353558    5.2392147    3.9518028    3.9489002  
  14 H       6.2902988    2.5040974 *  2.5060506 *  3.7974414    3.7947936  
  15 H       5.4725734    2.5318847 *  3.0851486    3.1594679    2.6139409 *

               11 H         12 H         13 H         14 H         15 H     

   1 C       5.4213922    5.4157870    6.3067129    1.0947666 *  1.0960026 *
   2 H       5.3340283    5.6171889    6.4810527    1.7685019 *  1.7695059 *
   3 C       4.4417832    4.4382193    5.0564979    2.1796140 *  2.1850132 *
   4 C       2.9987528 *  2.9953317 *  3.7680280    3.4961717    2.8119647 *
   5 S       2.4463259 *  2.4462958 *  2.3863396 *  4.9534722    4.5172829  
   6 C       1.0938791 *  1.0938052 *  1.0924181 *  6.2902988    5.4725734  
   7 H       4.9667927    4.6368363    5.2353558    2.5040974 *  2.5318847 *
   8 H       4.6412680    4.9657088    5.2392147    2.5060506 *  3.0851486  
   9 H       2.7188428 *  3.2467526    3.9518028    3.7974414    3.1594679  
  10 H       3.2489847    2.7133150 *  3.9489002    3.7947936    2.6139409 *
  11 H       0.0000000    1.7882857 *  1.7767914 *  6.4115912    5.6186538  
  12 H       1.7882857 *  0.0000000    1.7768761 *  6.4055482    5.3236800  
  13 H       1.7767914 *  1.7768761 *  0.0000000    7.2019589    6.4755808  
  14 H       6.4115912    6.4055482    7.2019589    0.0000000    1.7685320 *
  15 H       5.6186538    5.3236800    6.4755808    1.7685320 *  0.0000000  

  * ... LESS THAN  3.000


     ATOMIC BASIS SET
     ----------------
 THE CONTRACTED PRIMITIVE FUNCTIONS HAVE BEEN UNNORMALIZED
 THE CONTRACTED BASIS FUNCTIONS ARE NOW NORMALIZED TO UNITY

  SHELL TYPE  PRIMITIVE        EXPONENT          CONTRACTION COEFFICIENT(S)

 C         

      1   S       1           172.2560000    0.061766907377
      1   S       2            25.9109000    0.358794042852
      1   S       3             5.5333500    0.700713083689

      2   L       4             3.6649800   -0.395895162119    0.236459946619
      2   L       5             0.7705450    1.215834355681    0.860618805716

      3   L       6             0.1958570    1.000000000000    1.000000000000

 H         

      4   S       7             5.4471780    0.156284978695
      4   S       8             0.8245472    0.904690876670

      5   S       9             0.1831916    1.000000000000

 C         

      6   S      10           172.2560000    0.061766907377
      6   S      11            25.9109000    0.358794042852
      6   S      12             5.5333500    0.700713083689

      7   L      13             3.6649800   -0.395895162119    0.236459946619
      7   L      14             0.7705450    1.215834355681    0.860618805716

      8   L      15             0.1958570    1.000000000000    1.000000000000

 C         

      9   S      16           172.2560000    0.061766907377
      9   S      17            25.9109000    0.358794042852
      9   S      18             5.5333500    0.700713083689

     10   L      19             3.6649800   -0.395895162119    0.236459946619
     10   L      20             0.7705450    1.215834355681    0.860618805716

     11   L      21             0.1958570    1.000000000000    1.000000000000

 S         

     12   S      22          1210.6200000    0.065007081871
     12   S      23           182.7470000    0.382039893458
     12   S      24            39.6673000    0.676544811328

     13   L      25            52.2236000   -0.100309939876    0.109645970225
     13   L      26            11.9629000    0.065087660988    0.457648875721
     13   L      27             3.2891100    0.981454411734    0.604260835908

     14   L      28             1.2238400   -0.286088853728    0.164776994741
     14   L      29             0.4573030    1.228059372117    0.870854972204

     15   L      30             0.1422690    1.000000000000    1.000000000000

 C         

     16   S      31           172.2560000    0.061766907377
     16   S      32            25.9109000    0.358794042852
     16   S      33             5.5333500    0.700713083689

     17   L      34             3.6649800   -0.395895162119    0.236459946619
     17   L      35             0.7705450    1.215834355681    0.860618805716

     18   L      36             0.1958570    1.000000000000    1.000000000000

 H         

     19   S      37             5.4471780    0.156284978695
     19   S      38             0.8245472    0.904690876670

     20   S      39             0.1831916    1.000000000000

 H         

     21   S      40             5.4471780    0.156284978695
     21   S      41             0.8245472    0.904690876670

     22   S      42             0.1831916    1.000000000000

 H         

     23   S      43             5.4471780    0.156284978695
     23   S      44             0.8245472    0.904690876670

     24   S      45             0.1831916    1.000000000000

 H         

     25   S      46             5.4471780    0.156284978695
     25   S      47             0.8245472    0.904690876670

     26   S      48             0.1831916    1.000000000000

 H         

     27   S      49             5.4471780    0.156284978695
     27   S      50             0.8245472    0.904690876670

     28   S      51             0.1831916    1.000000000000

 H         

     29   S      52             5.4471780    0.156284978695
     29   S      53             0.8245472    0.904690876670

     30   S      54             0.1831916    1.000000000000

 H         

     31   S      55             5.4471780    0.156284978695
     31   S      56             0.8245472    0.904690876670

     32   S      57             0.1831916    1.000000000000

 H         

     33   S      58             5.4471780    0.156284978695
     33   S      59             0.8245472    0.904690876670

     34   S      60             0.1831916    1.000000000000

 H         

     35   S      61             5.4471780    0.156284978695
     35   S      62             0.8245472    0.904690876670

     36   S      63             0.1831916    1.000000000000

 TOTAL NUMBER OF BASIS SET SHELLS             =   36
 NUMBER OF CARTESIAN GAUSSIAN BASIS FUNCTIONS =   69
 NUMBER OF ELECTRONS                          =   50
 CHARGE OF MOLECULE                           =    0
 SPIN MULTIPLICITY                            =    1
 NUMBER OF OCCUPIED ORBITALS (ALPHA)          =   25
 NUMBER OF OCCUPIED ORBITALS (BETA )          =   25
 TOTAL NUMBER OF ATOMS                        =   15
 THE NUCLEAR REPULSION ENERGY IS      229.1630223756

 SELECTED MURRAY-HANDY-LAMING RADIAL GRID

 LEGACY BECKE'S FUZZY CELL METHOD

 SELECTED ORIGINAL BECKE'S PARTITION FUNCTION

     LEBEDEV GRID-BASED DFT OPTIONS
     ------------------------------
     DFTTYP=B3LYP   
     NRAD  =      96     NLEB  =     302
     NRAD0 =      24     NLEB0 =     110
     SWOFF =    5.00E-03 (PURE SCF -> DFT)
     SWITCH=    3.00E-04 (COARSE -> TIGHT GRID)
     THRESH=    0.00E+00 GTHRE=    1.00E+00

 GRIMME'S EMPIRICAL DISPERSION CORRECTION= F

     $CONTRL OPTIONS
     ---------------
 SCFTYP=RHF          RUNTYP=OPTIMIZE     EXETYP=RUN     
 MPLEVL=       0     CITYP =NONE         CCTYP =NONE         VBTYP =NONE    
 DFTTYP=B3LYP        TDDFT =NONE    
 MULT  =       1     ICHARG=       0     NZVAR =       0     COORD =UNIQUE  
 PP    =NONE         RELWFN=NONE         LOCAL =NONE         NUMGRD=       F
 ISPHER=      -1     NOSYM =       0     MAXIT =      60     UNITS =ANGS    
 PLTORB=       F     MOLPLT=       F     AIMPAC=       F     FRIEND=        
 NPRINT=       7     IREST =       0     GEOM  =INPUT   
 NORMF =       0     NORMP =       0     ITOL  =      20     ICUT  =       9
 INTTYP=BEST         GRDTYP=BEST         QMTTOL= 1.0E-06

     $SYSTEM OPTIONS
     ---------------
  REPLICATED MEMORY=    30000000 WORDS (ON EVERY NODE).
 DISTRIBUTED MEMDDI=        1000 MILLION WORDS IN AGGREGATE,
 MEMDDI DISTRIBUTED OVER   6 PROCESSORS IS   166666666 WORDS/PROCESSOR.
 TOTAL MEMORY REQUESTED ON EACH PROCESSOR=   196666666 WORDS.
 TIMLIM=      525600.00 MINUTES, OR     365.0 DAYS.
 PARALL= T  BALTYP=  DLB     KDIAG=    0  COREFL= F
 MXSEQ2=     300 MXSEQ3=     150  mem10=         0

          ----------------
          PROPERTIES INPUT
          ----------------

     MOMENTS            FIELD           POTENTIAL          DENSITY
 IEMOM =       1   IEFLD =       0   IEPOT =       0   IEDEN =       0
 WHERE =COMASS     WHERE =NUCLEI     WHERE =NUCLEI     WHERE =NUCLEI  
 OUTPUT=BOTH       OUTPUT=BOTH       OUTPUT=BOTH       OUTPUT=BOTH    
 IEMINT=       0   IEFINT=       0                     IEDINT=       0
                                                       MORB  =       0
          EXTRAPOLATION IN EFFECT
          DIIS IN EFFECT
 ORBITAL PRINTING OPTION: NPREO=     1    69     2     1

     -------------------------------
     INTEGRAL TRANSFORMATION OPTIONS
     -------------------------------
     NWORD  =            0
     CUTOFF = 1.0E-09     MPTRAN =       0
     DIRTRF =       T     AOINTS =DUP     

          ----------------------
          INTEGRAL INPUT OPTIONS
          ----------------------
 NOPK  =       1 NORDER=       0 SCHWRZ=       T

     ------------------------------------------
     THE POINT GROUP IS C1 , NAXIS= 0, ORDER= 1
     ------------------------------------------

     DIMENSIONS OF THE SYMMETRY SUBSPACES ARE
 A   =   69

 ..... DONE SETTING UP THE RUN .....
 CPU     0: STEP CPU TIME=     0.02 TOTAL CPU TIME=          0.0 (      0.0 MIN)
 TOTAL WALL CLOCK TIME=          0.0 SECONDS, CPU UTILIZATION IS    50.00%


          -----------------------------
          STATIONARY POINT LOCATION RUN
          -----------------------------

 OBTAINING INITIAL HESSIAN, HESS=GUESS   
 CARTESIAN COORDINATE OPTIMIZATION USING BADGER'S RULE FORCE CONSTANT GUESS

          PARAMETERS CONTROLLING GEOMETRY SEARCH ARE
          METHOD =QA                  UPHESS =BFGS    
          NNEG   =         0          NFRZ   =         0
          NSTEP  =       999          IFOLOW =         1
          HESS   =GUESS               RESTAR =         F
          IHREP  =         0          HSSEND =         F
          NPRT   =         0          NPUN   =         0
          OPTTOL = 1.000E-04          RMIN   = 1.500E-03
          RMAX   = 1.000E-01          RLIM   = 7.000E-02
          DXMAX  = 3.000E-01          PURIFY =         F
          MOVIE  =         F          TRUPD  =         T
          TRMAX  = 5.000E-01          TRMIN  = 5.000E-02
          ITBMAT =         5          STPT   =         F
          STSTEP = 1.000E-02          PROJCT=          T

 BEGINNING GEOMETRY SEARCH POINT NSERCH=   0 ...

 COORDINATES OF ALL ATOMS ARE (ANGS)
   ATOM   CHARGE       X              Y              Z
 ------------------------------------------------------------
 C           6.0   1.2299700000   0.3995900000   0.4864000000
 H           1.0   1.2330700000   0.2523300000   1.5725300000
 C           6.0   0.0209000000  -0.2807200000  -0.1655200000
 C           6.0  -1.3073000000   0.2695000000   0.3616100000
 S          16.0  -2.7228500000  -0.5740800000  -0.4523800000
 C           6.0  -4.1099000000   0.2851500000   0.3680800000
 H           1.0   0.0611900000  -0.1453100000  -1.2532800000
 H           1.0   0.0610400000  -1.3618100000   0.0151300000
 H           1.0  -1.3789900000   0.1168300000   1.4452300000
 H           1.0  -1.3769600000   1.3464500000   0.1671700000
 H           1.0  -4.0978300000   0.1177700000   1.4490100000
 H           1.0  -4.0902400000   1.3591500000   0.1618100000
 H           1.0  -5.0319400000  -0.1339100000  -0.0413200000
 H           1.0   2.1676300000  -0.0066700000   0.0936400000
 H           1.0   1.2303600000   1.4791700000   0.2973800000

          ********************
          1 ELECTRON INTEGRALS
          ********************
 ...... END OF ONE-ELECTRON INTEGRALS ......
 CPU     0: STEP CPU TIME=     0.01 TOTAL CPU TIME=          0.0 (      0.0 MIN)
 TOTAL WALL CLOCK TIME=          0.1 SECONDS, CPU UTILIZATION IS    60.00%

          -------------
          GUESS OPTIONS
          -------------
          GUESS =HUCKEL            NORB  =       0          NORDER=       0
          MIX   =       F          PRTMO =       F          PUNMO =       F
          TOLZ  = 1.0E-08          TOLE  = 1.0E-05
          SYMDEN=       F          PURIFY=       F

 INITIAL GUESS ORBITALS GENERATED BY HUCKEL   ROUTINE.
 HUCKEL GUESS REQUIRES     51510 WORDS.

 SYMMETRIES FOR INITIAL GUESS ORBITALS FOLLOW.   BOTH SET(S).
    25 ORBITALS ARE OCCUPIED (    9 CORE ORBITALS).
    10=A       11=A       12=A       13=A       14=A       15=A       16=A   
    17=A       18=A       19=A       20=A       21=A       22=A       23=A   
    24=A       25=A       26=A       27=A       28=A       29=A       30=A   
    31=A       32=A       33=A       34=A       35=A   
 ...... END OF INITIAL ORBITAL SELECTION ......
 CPU     0: STEP CPU TIME=     0.02 TOTAL CPU TIME=          0.0 (      0.0 MIN)
 TOTAL WALL CLOCK TIME=          0.1 SECONDS, CPU UTILIZATION IS    83.33%

                    ----------------------
                    AO INTEGRAL TECHNOLOGY
                    ----------------------
     S,P,L SHELL ROTATED AXIS INTEGRALS, REPROGRAMMED BY
        KAZUYA ISHIMURA (IMS) AND JOSE SIERRA (SYNSTAR).
     S,P,D,L SHELL ROTATED AXIS INTEGRALS PROGRAMMED BY
        KAZUYA ISHIMURA (INSTITUTE FOR MOLECULAR SCIENCE).
     S,P,D,F,G SHELL TO TOTAL QUARTET ANGULAR MOMENTUM SUM 5,
        ERIC PROGRAM BY GRAHAM FLETCHER (ELORET AND NASA ADVANCED
        SUPERCOMPUTING DIVISION, AMES RESEARCH CENTER).
     S,P,D,F,G,L SHELL GENERAL RYS QUADRATURE PROGRAMMED BY
        MICHEL DUPUIS (PACIFIC NORTHWEST NATIONAL LABORATORY).

          --------------------
          2 ELECTRON INTEGRALS
          --------------------

 DIRECT SCF METHOD SKIPS INTEGRAL STORAGE ON DISK.
 DIRECT TRANSFORMATION SKIPS AO INTEGRAL STORAGE ON DISK.
  ...... END OF TWO-ELECTRON INTEGRALS .....
 CPU     0: STEP CPU TIME=     0.01 TOTAL CPU TIME=          0.1 (      0.0 MIN)
 TOTAL WALL CLOCK TIME=          0.1 SECONDS, CPU UTILIZATION IS    85.71%

          --------------------------
             R-B3LYP SCF CALCULATION
          --------------------------

     NUCLEAR ENERGY =       229.1630223756
     MAXIT =   60     NPUNCH=    2
     EXTRAP=T  DAMP=F  SHIFT=F  RSTRCT=F  DIIS=T  DEM=F  SOSCF=F
         DENSITY MATRIX CONVERGENCE THRESHOLD=  2.00E-05
     COARSE -> FINE DFT GRID SWITCH THRESHOLD=  3.00E-04 (SWITCH IN $DFT)
                   HF -> DFT SWITCH THRESHOLD=  5.00E-03 (SWOFF IN $DFT)
     MEMORY REQUIRED FOR RHF ITERS=    582499 WORDS.

 DIRECT SCF CALCULATION, SCHWRZ=T   FDIFF=T,  DIRTHR=  0.00E+00 NITDIR=10
 SCHWARZ INEQUALITY OVERHEAD:      2302 INTEGRALS, T=        0.00

 DFT CODE IS SWITCHING FROM THE FINE GRID NRAD= 96,  NLEB=  302
                      TO THE COARSE GRID NRAD0= 24, NLEB0=  110

     EXCHANGE FUNCTIONAL   =B88&HFX   
     CORRELATION FUNCTIONAL=LYP88&VWN5
     DFT THRESHOLD         =.920E-08
     GRID CHANGE THRESHOLD =.300E-03
 FOR AN EULER-MACLAURIN QUADRATURE USING  96 RADIAL POINTS:
 SMALLEST GAUSSIAN PRIMITIVE EXPONENT=        0.1422690000 OF TYPE -P-
 ON ATOM NUMBER   5 HAS RADIAL NORMALIZATION=  1.000000
  LARGEST GAUSSIAN PRIMITIVE EXPONENT=     1210.6200000000 OF TYPE -S-
 ON ATOM NUMBER   5 HAS RADIAL NORMALIZATION=  1.000000
 DFT IS SWITCHED OFF, PERFORMING PURE SCF UNTIL SWOFF THRESHOLD IS REACHED.

                                                                                   NONZERO     BLOCKS
 ITER EX DEM     TOTAL ENERGY        E CHANGE  DENSITY CHANGE    DIIS ERROR      INTEGRALS    SKIPPED
   1  0  0     -551.5020456215  -551.5020456215   0.633409774   0.673325749        2134021      75857
          * * *   INITIATING DIIS PROCEDURE   * * *
   2  1  0     -551.9646239245    -0.4625783030   0.124585569   0.048522414        2127615      79506
   3  2  0     -551.9830372035    -0.0184132790   0.044149960   0.019662228        2103197      86238
   4  3  0     -551.9851836596    -0.0021464560   0.014743255   0.005550026        2069073      92979
   5  4  0     -551.9854605052    -0.0002768456   0.003263408   0.000921971        2044734      96149
 CONVERGED TO SWOFF, SO DFT CALCULATION IS NOW SWITCHED ON.
          * * *   INITIATING DIIS PROCEDURE   * * *
   6  5  0     -553.6166317623    -1.6311712571   0.085193221   0.075581431        2134651      75229
   7  6  0     -553.6278590347    -0.0112272724   0.047217838   0.034283688        2109943      85363
   8  7  0     -553.6296037378    -0.0017447031   0.024291412   0.027005102        2088285      88473
   9  8  0     -553.6323274323    -0.0027236945   0.005612191   0.002535913        2065139      92665
  10  9  0     -553.6323708608    -0.0000434285   0.000498101   0.000233486        1968893     105094
  11 10  0     -553.6323709874    -0.0000001266   0.000240370   0.000158953        1833986     116072
 DFT CODE IS SWITCHING BACK TO THE FINE GRID
          * * *   INITIATING DIIS PROCEDURE   * * *
  12 11  0     -553.6381147745    -0.0057437871   0.003200739   0.001191240        2135002      74962
  13 12  0     -553.6381245829    -0.0000098084   0.001491792   0.000454877        1980896     104070
  14 13  0     -553.6381249183    -0.0000003354   0.000677251   0.000413961        1893220     111747
  15 14  0     -553.6381260167    -0.0000010984   0.000048820   0.000029603        1841162     116287
  16 15  0     -553.6381260201    -0.0000000035   0.000022928   0.000012533        1675710     128553
  17 16  0     -553.6381260211    -0.0000000009   0.000005071   0.000003103        1597022     134886

          -----------------
          DENSITY CONVERGED
          -----------------
     TIME TO FORM FOCK OPERATORS=       4.2 SECONDS (       0.2 SEC/ITER)
     FOCK TIME ON FIRST ITERATION=       0.0, LAST ITERATION=       0.6
     TIME TO SOLVE SCF EQUATIONS=       0.1 SECONDS (       0.0 SEC/ITER)

 FINAL R-B3LYP ENERGY IS     -553.6381260211 AFTER  17 ITERATIONS
 DFT EXCHANGE + CORRELATION ENERGY =       -41.0189162279
 TOTAL ELECTRON NUMBER             =        50.0002963974

          ------------
          EIGENVECTORS
          ------------

                      1          2          3          4          5
                  -88.2157   -10.1448   -10.1413   -10.1209   -10.1100
                     A          A          A          A          A   
    1  C  1  S    0.000018  -0.005665  -0.000325  -0.032199   0.985759
    2  C  1  S    0.000117  -0.002100  -0.000134  -0.006410   0.112025
    3  C  1  X    0.000059   0.001131   0.000019  -0.000330  -0.000070
    4  C  1  Y   -0.000003  -0.000111   0.000041  -0.000005   0.000111
    5  C  1  Z   -0.000003  -0.000109   0.000039  -0.000003   0.000107
    6  C  1  S   -0.000951   0.002784   0.000981   0.027161  -0.089990
    7  C  1  X    0.000036  -0.002354  -0.000208  -0.011472   0.003800
    8  C  1  Y    0.000322   0.000656  -0.000786  -0.005938   0.001650
    9  C  1  Z    0.000307   0.000645  -0.000750  -0.005703   0.001579
   10  H  2  S   -0.000015  -0.000223  -0.000022  -0.001477  -0.000124
   11  H  2  S    0.000069  -0.001322   0.000304   0.000188   0.016116
   12  C  3  S    0.000061  -0.015365  -0.004134   0.986190   0.031510
   13  C  3  S    0.000404  -0.004156  -0.001369   0.115312   0.001605
   14  C  3  X   -0.000225  -0.000046   0.000367  -0.000074  -0.000155
   15  C  3  Y   -0.000066  -0.000156   0.000084   0.000195  -0.000215
   16  C  3  Z   -0.000064  -0.000148   0.000081   0.000183  -0.000205
   17  C  3  S   -0.001311   0.021756   0.004255  -0.104708   0.015678
   18  C  3  X    0.002025  -0.012261  -0.004353   0.000793   0.011383
   19  C  3  Y    0.000074   0.003981  -0.000036  -0.005616   0.005251
   20  C  3  Z    0.000072   0.003799  -0.000039  -0.005356   0.005026
   21  C  4  S   -0.000113   0.986255   0.015656   0.014586   0.005857
   22  C  4  S   -0.000804   0.113438   0.001999  -0.001066  -0.000951
   23  C  4  X    0.000032  -0.000729   0.000657   0.000153  -0.001222
   24  C  4  Y    0.000030  -0.000457  -0.000346   0.000226  -0.000373
   25  C  4  Z    0.000028  -0.000442  -0.000332   0.000219  -0.000360
   26  C  4  S    0.001616  -0.092312  -0.005686   0.023267   0.003244
   27  C  4  X    0.001136  -0.003354  -0.001192   0.013576   0.003623
   28  C  4  Y   -0.000260   0.002782   0.003322  -0.005402   0.001368
   29  C  4  Z   -0.000246   0.002680   0.003192  -0.005194   0.001326
   30  S  5  S    0.986295   0.000018   0.000018  -0.000003  -0.000000
   31  S  5  S    0.051770  -0.000409  -0.000378   0.000090  -0.000019
   32  S  5  X    0.000047  -0.000343   0.000164   0.000127   0.000017
   33  S  5  Y    0.000142  -0.000110  -0.000080   0.000038  -0.000009
   34  S  5  Z    0.000136  -0.000106  -0.000076   0.000037  -0.000008
   35  S  5  S   -0.018098  -0.002211  -0.002512  -0.000370  -0.001051
   36  S  5  X   -0.000279   0.002679  -0.001624  -0.000822  -0.000185
   37  S  5  Y   -0.000448   0.000905   0.000785  -0.000198   0.000062
   38  S  5  Z   -0.000430   0.000877   0.000748  -0.000193   0.000057
   39  S  5  S    0.010174   0.016972   0.017917  -0.000993   0.003035
   40  S  5  X    0.000436   0.005567  -0.006049   0.000402   0.002424
   41  S  5  Y    0.001176   0.005848   0.006546  -0.000075   0.000618
   42  S  5  Z    0.001129   0.005626   0.006264  -0.000065   0.000602
   43  C  6  S   -0.000091  -0.015537   0.985978   0.003667   0.000343
   44  C  6  S   -0.000633  -0.001705   0.111024  -0.000278  -0.000021
   45  C  6  X    0.000063  -0.000449   0.000815  -0.000495  -0.000105
   46  C  6  Y   -0.000031  -0.000118  -0.000514  -0.000096   0.000037
   47  C  6  Z   -0.000030  -0.000117  -0.000491  -0.000095   0.000035
   48  C  6  S    0.000765  -0.000896  -0.082776   0.001058  -0.000143
   49  C  6  X   -0.000711  -0.001187  -0.002316   0.002295   0.000222
   50  C  6  Y    0.000174   0.001602   0.001357   0.000515  -0.000219
   51  C  6  Z    0.000168   0.001546   0.001300   0.000506  -0.000207
   52  H  7  S    0.000294  -0.001271  -0.000476   0.000789  -0.001120
   53  H  7  S   -0.000263   0.000359   0.000134   0.016129   0.001484
   54  H  8  S    0.000293  -0.001270  -0.000475   0.000783  -0.001120
   55  H  8  S   -0.000261   0.000370   0.000135   0.016120   0.001490
   56  H  9  S    0.000061   0.000224   0.000137  -0.001370  -0.000384
   57  H  9  S   -0.000847   0.015329  -0.001770   0.001249  -0.001484
   58  H 10  S    0.000061   0.000222   0.000138  -0.001371  -0.000383
   59  H 10  S   -0.000845   0.015340  -0.001778   0.001234  -0.001484
   60  H 11  S    0.000069   0.000377  -0.000471  -0.000320  -0.000026
   61  H 11  S   -0.000845  -0.002131   0.014707  -0.000117   0.000178
   62  H 12  S    0.000069   0.000377  -0.000472  -0.000321  -0.000027
   63  H 12  S   -0.000841  -0.002129   0.014714  -0.000115   0.000183
   64  H 13  S   -0.000022  -0.000148  -0.000542   0.000069  -0.000085
   65  H 13  S   -0.000892   0.001237   0.014888   0.001281   0.000389
   66  H 14  S    0.000099  -0.000184  -0.000149  -0.001193  -0.000175
   67  H 14  S    0.000104   0.002212  -0.000052  -0.000403   0.015511
   68  H 15  S   -0.000015  -0.000222  -0.000022  -0.001478  -0.000125
   69  H 15  S    0.000068  -0.001319   0.000310   0.000176   0.016118

                      6          7          8          9         10
                   -7.8593    -5.8302    -5.8253    -5.8165    -0.8143
                     A          A          A          A          A   
    1  C  1  S   -0.000114  -0.000109   0.000037  -0.000000  -0.058200
    2  C  1  S   -0.000844  -0.000486   0.000207  -0.000002   0.059164
    3  C  1  X   -0.000231  -0.000653  -0.000203   0.000001  -0.028831
    4  C  1  Y   -0.000028   0.000014   0.000134  -0.000162  -0.011289
    5  C  1  Z   -0.000030   0.000011   0.000129   0.000170  -0.010827
    6  C  1  S    0.006028   0.007240  -0.000916   0.000005   0.122330
    7  C  1  X   -0.000971  -0.000168   0.001718  -0.000009  -0.000884
    8  C  1  Y   -0.001644  -0.003015  -0.000193   0.000574   0.004283
    9  C  1  Z   -0.001562  -0.002876  -0.000183  -0.000599   0.004095
   10  H  2  S   -0.000020   0.000075   0.000260   0.000219   0.026444
   11  H  2  S   -0.000519   0.000035  -0.000188   0.000015   0.000140
   12  C  3  S   -0.000230  -0.000348  -0.000169   0.000000  -0.105823
   13  C  3  S   -0.001775  -0.002018  -0.001019   0.000001   0.103216
   14  C  3  X    0.001270   0.001397  -0.000230  -0.000001  -0.028590
   15  C  3  Y    0.000366   0.000452   0.000013   0.000017   0.018665
   16  C  3  Z    0.000353   0.000435   0.000015  -0.000015   0.017847
   17  C  3  S    0.005495   0.005319   0.006339   0.000000   0.246360
   18  C  3  X   -0.011059  -0.014513  -0.001197   0.000004   0.009469
   19  C  3  Y   -0.000365  -0.002178   0.000717   0.000460   0.004735
   20  C  3  Z   -0.000355  -0.002107   0.000670  -0.000497   0.004538
   21  C  4  S    0.000470   0.000888   0.000627  -0.000000  -0.133960
   22  C  4  S    0.002733   0.004382   0.002699  -0.000002   0.122506
   23  C  4  X    0.000430   0.000155   0.000786   0.000001   0.000826
   24  C  4  Y    0.000229   0.000169   0.000592  -0.000050  -0.022414
   25  C  4  Z    0.000224   0.000163   0.000571   0.000053  -0.021598
   26  C  4  S   -0.002939  -0.012614  -0.006109   0.000007   0.369929
   27  C  4  X   -0.009447   0.000666  -0.001645  -0.000004  -0.029175
   28  C  4  Y   -0.000504   0.003757   0.000392  -0.000314  -0.019587
   29  C  4  Z   -0.000518   0.003617   0.000377   0.000323  -0.018897
   30  S  5  S   -0.300304  -0.000267   0.004695   0.000000   0.039351
   31  S  5  S    0.981561   0.000782  -0.016019  -0.000001  -0.218770
   32  S  5  X   -0.000500   0.968468   0.044393  -0.002181  -0.010189
   33  S  5  Y    0.009961  -0.033529   0.698998  -0.672489  -0.031864
   34  S  5  Z    0.009564  -0.029175   0.671263   0.700419  -0.030612
   35  S  5  S    0.154676   0.000322   0.002963   0.000000   0.280943
   36  S  5  X    0.001350   0.097235   0.004390  -0.000206   0.017424
   37  S  5  Y    0.004575  -0.003287   0.067542  -0.062983   0.060768
   38  S  5  Z    0.004394  -0.002856   0.064863   0.065600   0.058378
   39  S  5  S   -0.077683   0.004051  -0.004275  -0.000007   0.127743
   40  S  5  X   -0.002348  -0.036158  -0.001172   0.000069  -0.002787
   41  S  5  Y   -0.011541   0.003591  -0.023054   0.020139  -0.006284
   42  S  5  Z   -0.011077   0.003341  -0.022140  -0.020984  -0.006050
   43  C  6  S    0.000391  -0.000658   0.000494  -0.000000  -0.074118
   44  C  6  S    0.001881  -0.002498   0.001815  -0.000001   0.066903
   45  C  6  X   -0.000830   0.001327  -0.000947   0.000001   0.031594
   46  C  6  Y    0.000512  -0.001038   0.000620   0.000115  -0.014443
   47  C  6  Z    0.000493  -0.000991   0.000593  -0.000118  -0.013779
   48  C  6  S    0.001287   0.003742  -0.002270   0.000004   0.220694
   49  C  6  X    0.007113  -0.001852   0.001157  -0.000002   0.024748
   50  C  6  Y   -0.002612   0.002131   0.000088  -0.001016  -0.013069
   51  C  6  Z   -0.002508   0.002031   0.000082   0.001050  -0.012483
   52  H  7  S   -0.001494  -0.001883   0.000032   0.000686   0.047946
   53  H  7  S    0.001893   0.002387  -0.001497  -0.002619  -0.005167
   54  H  8  S   -0.001487  -0.001879   0.000033  -0.000683   0.047932
   55  H  8  S    0.001874   0.002380  -0.001482   0.002595  -0.005179
   56  H  9  S   -0.000753   0.000691   0.000177  -0.000433   0.059296
   57  H  9  S    0.005703   0.001909   0.004534   0.002643  -0.004224
   58  H 10  S   -0.000753   0.000691   0.000179   0.000430   0.059330
   59  H 10  S    0.005688   0.001907   0.004535  -0.002637  -0.004196
   60  H 11  S   -0.000802  -0.000398  -0.000012  -0.000544   0.031916
   61  H 11  S    0.005655  -0.003878   0.003710   0.002110  -0.001736
   62  H 12  S   -0.000801  -0.000401  -0.000013   0.000540   0.031948
   63  H 12  S    0.005625  -0.003874   0.003710  -0.002095  -0.001721
   64  H 13  S   -0.000141   0.000240   0.000837   0.000002   0.031050
   65  H 13  S    0.005380  -0.006969   0.000133  -0.000011  -0.007399
   66  H 14  S   -0.000498  -0.000676  -0.000140  -0.000000   0.024605
   67  H 14  S   -0.000310  -0.001358  -0.000543   0.000003  -0.001647
   68  H 15  S   -0.000016   0.000078   0.000263  -0.000221   0.026461
   69  H 15  S   -0.000513   0.000047  -0.000191  -0.000013   0.000155

                     11         12         13         14         15
                   -0.7638    -0.6912    -0.6110    -0.5765    -0.4712
                     A          A          A          A          A   
    1  C  1  S    0.107861   0.131385   0.103464  -0.037635  -0.000043
    2  C  1  S   -0.105848  -0.125389  -0.095264   0.035808   0.000039
    3  C  1  X    0.032259  -0.011829  -0.072820   0.025036   0.000284
    4  C  1  Y    0.015959   0.003647  -0.038627   0.052021  -0.109451
    5  C  1  Z    0.015301   0.003498  -0.036995   0.049849   0.114127
    6  C  1  S   -0.274315  -0.386095  -0.359320   0.139958   0.000181
    7  C  1  X    0.001087  -0.006792  -0.016590   0.001023   0.000200
    8  C  1  Y    0.003884   0.002580  -0.015248   0.026685  -0.076489
    9  C  1  Z    0.003707   0.002467  -0.014612   0.025574   0.079762
   10  H  2  S   -0.052662  -0.074012  -0.079370   0.047161   0.079330
   11  H  2  S   -0.001983  -0.008691  -0.026599   0.026097   0.066163
   12  C  3  S    0.115883   0.013544  -0.105931   0.091153   0.000029
   13  C  3  S   -0.108565  -0.012076   0.095462  -0.083828  -0.000024
   14  C  3  X   -0.025557  -0.105663  -0.054527  -0.034157  -0.000036
   15  C  3  Y   -0.020985  -0.007444  -0.030493   0.085757  -0.168912
   16  C  3  Z   -0.020111  -0.007140  -0.029158   0.082273   0.175886
   17  C  3  S   -0.309397  -0.045431   0.379145  -0.334092  -0.000126
   18  C  3  X    0.011348  -0.017965  -0.022833  -0.010168  -0.000013
   19  C  3  Y   -0.005444  -0.003132  -0.005962   0.044604  -0.120769
   20  C  3  Z   -0.005160  -0.002975  -0.005726   0.042836   0.125803
   21  C  4  S    0.023335  -0.118693  -0.011518  -0.108278  -0.000035
   22  C  4  S   -0.028405   0.104663   0.018224   0.102430   0.000030
   23  C  4  X   -0.080218  -0.018065   0.113080   0.002939  -0.000334
   24  C  4  Y   -0.000581  -0.005087  -0.001048   0.106442  -0.170997
   25  C  4  Z   -0.000685  -0.004868  -0.000743   0.102272   0.178036
   26  C  4  S   -0.022139   0.389843  -0.010889   0.387506   0.000161
   27  C  4  X   -0.019040  -0.014215   0.046428   0.004729  -0.000244
   28  C  4  Y   -0.008567  -0.012590   0.010241   0.062288  -0.132587
   29  C  4  Z   -0.008293  -0.012109   0.009992   0.059827   0.138029
   30  S  5  S    0.033285   0.007408  -0.039141  -0.035573   0.000008
   31  S  5  S   -0.186161  -0.041790   0.222411   0.202885  -0.000044
   32  S  5  X    0.028312  -0.055728   0.014241  -0.009429   0.000123
   33  S  5  Y   -0.025807  -0.003673   0.012055  -0.008387   0.027551
   34  S  5  Z   -0.024692  -0.003700   0.011632  -0.008089  -0.028666
   35  S  5  S    0.234003   0.051007  -0.274727  -0.248973   0.000059
   36  S  5  X   -0.052265   0.102043  -0.025757   0.018104  -0.000246
   37  S  5  Y    0.050418   0.007513  -0.027911   0.011329  -0.054597
   38  S  5  Z    0.048250   0.007531  -0.026903   0.010946   0.056806
   39  S  5  S    0.143507   0.045097  -0.275118  -0.276055   0.000060
   40  S  5  X    0.007997  -0.000962   0.004061  -0.009244  -0.000151
   41  S  5  Y    0.004368   0.004193  -0.019533  -0.000790  -0.034312
   42  S  5  Z    0.004228   0.004031  -0.018767  -0.000760   0.035707
   43  C  6  S   -0.121640   0.122958  -0.089915  -0.042226  -0.000009
   44  C  6  S    0.110886  -0.114756   0.088188   0.045095   0.000004
   45  C  6  X    0.024527   0.025688  -0.081894  -0.053100  -0.000232
   46  C  6  Y   -0.016374  -0.003186   0.041754   0.049157  -0.042150
   47  C  6  Z   -0.015663  -0.002957   0.039798   0.046981   0.043687
   48  C  6  S    0.366796  -0.384744   0.288558   0.125839   0.000056
   49  C  6  X    0.028060   0.003230  -0.041422  -0.022646  -0.000165
   50  C  6  Y   -0.015819   0.007378   0.019113   0.037612  -0.031683
   51  C  6  Z   -0.015094   0.007096   0.018210   0.036020   0.032879
   52  H  7  S   -0.053063  -0.006587   0.075208  -0.096322  -0.117854
   53  H  7  S    0.000474   0.000441   0.020725  -0.038561  -0.087256
   54  H  8  S   -0.053077  -0.006585   0.075292  -0.096315   0.117925
   55  H  8  S    0.000454   0.000421   0.020795  -0.038558   0.087365
   56  H  9  S   -0.012720   0.065078   0.005853   0.117327   0.123360
   57  H  9  S   -0.002277   0.001152   0.005955   0.056859   0.093423
   58  H 10  S   -0.012725   0.065056   0.005803   0.117454  -0.123186
   59  H 10  S   -0.002283   0.001100   0.005935   0.056947  -0.093314
   60  H 11  S    0.058609  -0.072384   0.074674   0.050367   0.032011
   61  H 11  S   -0.001274  -0.010329   0.032243   0.030651   0.028227
   62  H 12  S    0.058631  -0.072378   0.074685   0.050472  -0.032035
   63  H 12  S   -0.001256  -0.010310   0.032252   0.030726  -0.028296
   64  H 13  S    0.060234  -0.079475   0.078584   0.035830   0.000002
   65  H 13  S    0.002086  -0.016859   0.032511   0.023171   0.000016
   66  H 14  S   -0.051001  -0.080021  -0.081712   0.018060  -0.000019
   67  H 14  S    0.000607  -0.014954  -0.031414   0.005272  -0.000030
   68  H 15  S   -0.052681  -0.074003  -0.079387   0.047278  -0.079108
   69  H 15  S   -0.002009  -0.008664  -0.026608   0.026186  -0.066015

                     16         17         18         19         20
                   -0.4395    -0.4245    -0.4183    -0.4088    -0.3918
                     A          A          A          A          A   
    1  C  1  S   -0.004692  -0.000034   0.007942   0.000393   0.000022
    2  C  1  S    0.002957   0.000019  -0.003337   0.002025  -0.000034
    3  C  1  X    0.150981   0.000533  -0.043440  -0.235302   0.000852
    4  C  1  Y   -0.065666   0.079307  -0.155448   0.056494  -0.183768
    5  C  1  Z   -0.062920  -0.082231  -0.149330   0.055188   0.191412
    6  C  1  S    0.021676   0.000229  -0.062194  -0.018140  -0.000005
    7  C  1  X    0.104166   0.000328  -0.018407  -0.162752   0.000589
    8  C  1  Y   -0.050759   0.058139  -0.107638   0.049399  -0.145947
    9  C  1  Z   -0.048666  -0.060347  -0.103427   0.048165   0.151944
   10  H  2  S   -0.031390  -0.060581  -0.088081   0.033169   0.149570
   11  H  2  S   -0.026158  -0.053080  -0.073418   0.025695   0.133001
   12  C  3  S    0.012098   0.000097  -0.014986  -0.027122   0.000089
   13  C  3  S   -0.013181  -0.000082   0.011236   0.022812  -0.000071
   14  C  3  X    0.048006  -0.000596   0.225651   0.046090  -0.000269
   15  C  3  Y   -0.113470   0.061121  -0.006267   0.100169  -0.035158
   16  C  3  Z   -0.108808  -0.064130  -0.006166   0.096582   0.036060
   17  C  3  S   -0.027715  -0.000469   0.084648   0.128942  -0.000452
   18  C  3  X    0.033011  -0.000385   0.160135   0.016854  -0.000169
   19  C  3  Y   -0.078129   0.054203   0.007434   0.084994  -0.033894
   20  C  3  Z   -0.074843  -0.056917   0.006964   0.081892   0.034793
   21  C  4  S   -0.003071  -0.000099   0.008685   0.037641  -0.000146
   22  C  4  S   -0.003281   0.000058  -0.001974  -0.024462   0.000093
   23  C  4  X   -0.156503  -0.000120  -0.068143   0.063736   0.000046
   24  C  4  Y   -0.016605  -0.029426   0.183882   0.005947   0.178659
   25  C  4  Z   -0.016113   0.029554   0.176332   0.004947  -0.186208
   26  C  4  S    0.040055   0.000523  -0.049036  -0.200201   0.000793
   27  C  4  X   -0.138044  -0.000076  -0.048799   0.041536   0.000045
   28  C  4  Y   -0.017618  -0.028433   0.156585   0.030823   0.156469
   29  C  4  Z   -0.017115   0.028648   0.150215   0.028971  -0.163249
   30  S  5  S   -0.009219  -0.000017  -0.001105   0.005305  -0.000018
   31  S  5  S    0.052938   0.000097   0.006177  -0.030941   0.000104
   32  S  5  X   -0.079926  -0.000302   0.104640   0.040804  -0.000354
   33  S  5  Y   -0.033355   0.041326  -0.021913  -0.017698  -0.014272
   34  S  5  Z   -0.032227  -0.042938  -0.020957  -0.016992   0.014938
   35  S  5  S   -0.065716  -0.000134  -0.009024   0.036827  -0.000118
   36  S  5  X    0.161165   0.000622  -0.214918  -0.084161   0.000729
   37  S  5  Y    0.065914  -0.082966   0.044191   0.036688   0.028768
   38  S  5  Z    0.063694   0.086195   0.042251   0.035216  -0.030116
   39  S  5  S   -0.089660  -0.000101  -0.011218   0.063397  -0.000235
   40  S  5  X    0.070576   0.000175  -0.087014  -0.016387   0.000276
   41  S  5  Y    0.035961  -0.054289   0.026697   0.031004   0.020545
   42  S  5  Z    0.034686   0.056451   0.025672   0.029900  -0.021555
   43  C  6  S   -0.004105  -0.000043   0.006956  -0.001553   0.000023
   44  C  6  S    0.008897   0.000069  -0.013094  -0.003193   0.000007
   45  C  6  X    0.104541  -0.001419   0.100507   0.237379  -0.001256
   46  C  6  Y    0.178572  -0.242814  -0.084674   0.109458  -0.101090
   47  C  6  Z    0.171284   0.253378  -0.079487   0.107329   0.104824
   48  C  6  S   -0.001503   0.000061  -0.002422   0.024584  -0.000218
   49  C  6  X    0.084580  -0.001199   0.098247   0.194117  -0.001068
   50  C  6  Y    0.150568  -0.196365  -0.070403   0.084217  -0.083243
   51  C  6  Z    0.144447   0.205020  -0.066026   0.082679   0.086338
   52  H  7  S    0.049827   0.045660   0.019954  -0.031983  -0.027563
   53  H  7  S    0.044509   0.034805   0.017216  -0.036507  -0.022997
   54  H  8  S    0.049827  -0.045636   0.019837  -0.031564   0.027745
   55  H  8  S    0.044450  -0.034761   0.017154  -0.036082   0.023210
   56  H  9  S    0.000683   0.024815   0.093789  -0.026962  -0.144294
   57  H  9  S    0.001753   0.026340   0.077128  -0.012473  -0.115426
   58  H 10  S    0.000617  -0.025225   0.094132  -0.026235   0.144225
   59  H 10  S    0.001729  -0.026757   0.077325  -0.011854   0.115216
   60  H 11  S    0.098784   0.193694  -0.048870   0.064930   0.083132
   61  H 11  S    0.081520   0.162384  -0.040081   0.050430   0.067298
   62  H 12  S    0.100008  -0.192793  -0.050108   0.064642  -0.083162
   63  H 12  S    0.082478  -0.161676  -0.041061   0.050193  -0.067198
   64  H 13  S   -0.140863  -0.000379  -0.022682  -0.198599   0.000387
   65  H 13  S   -0.106510  -0.000294  -0.017037  -0.176498   0.000354
   66  H 14  S    0.116510   0.000376   0.045234  -0.165939   0.000150
   67  H 14  S    0.099505   0.000333   0.041882  -0.153047   0.000152
   68  H 15  S   -0.031838   0.060717  -0.088168   0.032920  -0.149365
   69  H 15  S   -0.026555   0.053180  -0.073455   0.025506  -0.132714

                     21         22         23         24         25
                   -0.3507    -0.3334    -0.3323    -0.2982    -0.2123
                     A          A          A          A          A   
    1  C  1  S   -0.019327   0.015655  -0.000238   0.012928   0.000027
    2  C  1  S    0.018961  -0.012348   0.000193  -0.013043  -0.000024
    3  C  1  X   -0.065383   0.225023  -0.002755   0.062455   0.000133
    4  C  1  Y   -0.200395  -0.018462   0.140418   0.020111  -0.009973
    5  C  1  Z   -0.191197  -0.021205  -0.147194   0.019494   0.010405
    6  C  1  S    0.078842  -0.068050   0.001073  -0.043059  -0.000182
    7  C  1  X   -0.044231   0.197280  -0.002417   0.038625   0.000123
    8  C  1  Y   -0.156459  -0.017368   0.110319   0.011485  -0.016793
    9  C  1  Z   -0.149276  -0.019438  -0.115705   0.011231   0.017530
   10  H  2  S   -0.108129  -0.032355  -0.139341   0.003689   0.008464
   11  H  2  S   -0.128386  -0.030173  -0.163285   0.019129  -0.000086
   12  C  3  S   -0.003051  -0.008950   0.000116   0.010768  -0.000054
   13  C  3  S    0.008893   0.007658  -0.000060  -0.009506   0.000039
   14  C  3  X    0.063370  -0.257569   0.003223  -0.010397  -0.000206
   15  C  3  Y    0.205262   0.034266  -0.200490  -0.046153   0.007303
   16  C  3  Z    0.195646   0.037704   0.209274  -0.044547  -0.007610
   17  C  3  S   -0.033140   0.045429  -0.000865  -0.064263   0.000376
   18  C  3  X    0.054953  -0.183544   0.002339  -0.023891  -0.000159
   19  C  3  Y    0.152554   0.028549  -0.167152  -0.054163   0.038403
   20  C  3  Z    0.145363   0.031442   0.174328  -0.052250  -0.040009
   21  C  4  S   -0.013102  -0.017854   0.000186   0.021562  -0.000007
   22  C  4  S    0.007872   0.027646  -0.000338  -0.012902   0.000009
   23  C  4  X    0.071874   0.258235  -0.002736   0.114755   0.000204
   24  C  4  Y   -0.082659  -0.041426   0.097259   0.139633   0.060419
   25  C  4  Z   -0.078601  -0.041917  -0.100660   0.134458  -0.062997
   26  C  4  S    0.079510   0.031332  -0.000112  -0.142864   0.000015
   27  C  4  X    0.057314   0.226784  -0.002357   0.155382  -0.000006
   28  C  4  Y   -0.084013  -0.015734   0.078290   0.128635   0.006775
   29  C  4  Z   -0.080042  -0.016847  -0.081729   0.123999  -0.007166
   30  S  5  S    0.010164  -0.006347   0.000141   0.023672  -0.000005
   31  S  5  S   -0.058844   0.037183  -0.000821  -0.138629   0.000028
   32  S  5  X   -0.067964   0.120051  -0.001837   0.027799   0.000594
   33  S  5  Y    0.032033  -0.011905  -0.012417   0.149048   0.181098
   34  S  5  Z    0.030462  -0.010628   0.013617   0.143133  -0.188649
   35  S  5  S    0.071496  -0.039208   0.000930   0.141096  -0.000023
   36  S  5  X    0.141824  -0.251161   0.003848  -0.058006  -0.001254
   37  S  5  Y   -0.065732   0.023735   0.026282  -0.308877  -0.381978
   38  S  5  Z   -0.062499   0.021108  -0.028760  -0.296617   0.397904
   39  S  5  S    0.118604  -0.095441   0.001916   0.399259  -0.000113
   40  S  5  X    0.050402  -0.112537   0.001661  -0.027779  -0.001246
   41  S  5  Y   -0.032361   0.009265   0.014236  -0.207728  -0.383912
   42  S  5  Z   -0.030802   0.008001  -0.015497  -0.199467   0.399872
   43  C  6  S    0.006488  -0.019542   0.000304   0.020301   0.000002
   44  C  6  S    0.000521   0.006335  -0.000103  -0.014879  -0.000002
   45  C  6  X   -0.083510   0.200233  -0.003046  -0.058941   0.000173
   46  C  6  Y    0.064795  -0.037391  -0.023352   0.118525   0.057650
   47  C  6  Z    0.061647  -0.034522   0.025825   0.113621  -0.060145
   48  C  6  S   -0.057207   0.135669  -0.002116  -0.128209  -0.000010
   49  C  6  X   -0.095569   0.191904  -0.002979  -0.078933  -0.000003
   50  C  6  Y    0.062756  -0.056667  -0.016116   0.096807   0.011475
   51  C  6  Z    0.059674  -0.053263   0.018735   0.092776  -0.012161
   52  H  7  S   -0.119769  -0.028300  -0.187838   0.027755  -0.004520
   53  H  7  S   -0.125769  -0.038562  -0.200580   0.047433  -0.041854
   54  H  8  S   -0.120909  -0.023756   0.187803   0.027428   0.004525
   55  H  8  S   -0.126979  -0.033741   0.200745   0.047021   0.041697
   56  H  9  S   -0.047005  -0.020861  -0.098755   0.071844  -0.080876
   57  H  9  S   -0.062588  -0.030196  -0.119639   0.107581  -0.145564
   58  H 10  S   -0.047838  -0.018380   0.098881   0.071941   0.080741
   59  H 10  S   -0.063537  -0.027252   0.119943   0.107713   0.145342
   60  H 11  S    0.032044  -0.004162   0.021045   0.062499  -0.082322
   61  H 11  S    0.032317  -0.015004   0.017109   0.095957  -0.146918
   62  H 12  S    0.032327  -0.004485  -0.020591   0.062893   0.082027
   63  H 12  S    0.032529  -0.015189  -0.016285   0.096557   0.146498
   64  H 13  S    0.012547  -0.100158   0.001263  -0.055327   0.000303
   65  H 13  S    0.011484  -0.119114   0.001491  -0.057303   0.000465
   66  H 14  S    0.089966   0.154119  -0.001128   0.020804   0.000050
   67  H 14  S    0.082849   0.167575  -0.001295   0.032220   0.000104
   68  H 15  S   -0.109525  -0.029418   0.139071   0.003449  -0.008470
   69  H 15  S   -0.129905  -0.026727   0.162839   0.018859   0.000122

                     26         27         28         29         30
                    0.0608     0.0946     0.1216     0.1450     0.1494
                     A          A          A          A          A   
    1  C  1  S    0.018293  -0.068555  -0.026257  -0.092569  -0.000410
    2  C  1  S   -0.016957   0.033883   0.008206   0.037692   0.000187
    3  C  1  X   -0.020747  -0.031808   0.053514   0.060336   0.000199
    4  C  1  Y   -0.017504  -0.027882   0.073725   0.064377   0.103680
    5  C  1  Z   -0.016663  -0.026667   0.070549   0.062669  -0.107622
    6  C  1  S   -0.154071   0.791043   0.426848   1.283224   0.005280
    7  C  1  X   -0.178886  -0.000496   0.149121   0.165415   0.001138
    8  C  1  Y   -0.056852  -0.092900   0.286046   0.258997   0.287823
    9  C  1  Z   -0.053995  -0.088788   0.274082   0.251095  -0.299199
   10  H  2  S   -0.016532   0.013540  -0.012934  -0.034695   0.030774
   11  H  2  S    0.086216  -0.186490  -0.401044  -0.737252   0.506520
   12  C  3  S    0.047174   0.008069  -0.037424  -0.067886   0.000004
   13  C  3  S   -0.023346  -0.013107   0.022631   0.023446  -0.000097
   14  C  3  X    0.014695   0.032363   0.023662  -0.080208  -0.000473
   15  C  3  Y    0.030837  -0.040960  -0.020298  -0.013031   0.123547
   16  C  3  Z    0.029790  -0.039341  -0.019318  -0.011209  -0.128034
   17  C  3  S   -0.547533   0.043118   0.476232   0.948017   0.000464
   18  C  3  X   -0.059047  -0.154321   0.143659  -0.427161  -0.002809
   19  C  3  Y    0.021102  -0.152351  -0.159548  -0.104967   0.330486
   20  C  3  Z    0.020704  -0.146630  -0.152458  -0.097143  -0.340741
   21  C  4  S    0.083281  -0.081303  -0.059524   0.070486   0.000336
   22  C  4  S   -0.044804   0.044810   0.015116  -0.030829  -0.000097
   23  C  4  X    0.161245  -0.169890   0.052749   0.056534   0.000140
   24  C  4  Y    0.077841  -0.072844   0.164505   0.076720   0.167904
   25  C  4  Z    0.075084  -0.069958   0.157451   0.075015  -0.174480
   26  C  4  S   -0.814396   0.784694   0.937659  -0.783752  -0.004643
   27  C  4  X    0.481788  -0.524776   0.153486  -0.162765  -0.001752
   28  C  4  Y    0.181941  -0.127882   0.511525   0.319261   0.521539
   29  C  4  Z    0.175852  -0.122561   0.489601   0.310356  -0.541506
   30  S  5  S    0.000217  -0.031132   0.017550   0.001544  -0.000070
   31  S  5  S   -0.001699   0.192399  -0.101827  -0.012167   0.000402
   32  S  5  X   -0.168848  -0.013606  -0.011433  -0.054390  -0.000115
   33  S  5  Y   -0.005073   0.108889  -0.026541  -0.011147   0.000200
   34  S  5  Z   -0.005443   0.104604  -0.025605  -0.010869   0.000105
   35  S  5  S   -0.004594  -0.180515   0.229862  -0.039412  -0.001086
   36  S  5  X    0.362335   0.034894   0.018862   0.125868   0.000295
   37  S  5  Y    0.011841  -0.240028   0.066575   0.024575   0.012771
   38  S  5  Z    0.012601  -0.230572   0.064160   0.024087  -0.013997
   39  S  5  S    0.038722  -1.036580   0.211025   0.190826  -0.000506
   40  S  5  X    1.013638   0.091265   0.130634   0.311047   0.000088
   41  S  5  Y    0.026572  -0.702889   0.124495   0.052029  -0.145609
   42  S  5  Z    0.028831  -0.675020   0.120531   0.049734   0.149006
   43  C  6  S   -0.093783  -0.101924  -0.072735   0.081333   0.000302
   44  C  6  S    0.048694   0.050115   0.023078  -0.042389  -0.000156
   45  C  6  X    0.123972   0.182347  -0.092113   0.125161   0.001707
   46  C  6  Y   -0.085219  -0.087626   0.096991  -0.014704   0.100822
   47  C  6  Z   -0.081541  -0.082993   0.092130  -0.012984  -0.104297
   48  C  6  S    0.950269   1.047554   1.055178  -1.068614  -0.004301
   49  C  6  X    0.305985   0.550023  -0.288174   0.522733   0.006690
   50  C  6  Y   -0.200566  -0.246816   0.292053   0.012520   0.356925
   51  C  6  Z   -0.192255  -0.233112   0.277155   0.016312  -0.368051
   52  H  7  S    0.000380  -0.033787   0.018359  -0.000257  -0.074600
   53  H  7  S    0.223917  -0.182545  -0.232839  -0.375574  -0.683835
   54  H  8  S    0.000215  -0.033633   0.018378  -0.000990   0.074836
   55  H  8  S    0.223208  -0.181736  -0.233417  -0.382713   0.687542
   56  H  9  S    0.021171   0.011118  -0.019704  -0.004590   0.047163
   57  H  9  S    0.210415  -0.128446  -0.818184   0.034575   0.837927
   58  H 10  S    0.021365   0.011271  -0.019732  -0.004025  -0.047133
   59  H 10  S    0.210856  -0.126200  -0.821894   0.040646  -0.834950
   60  H 11  S   -0.028727   0.001626  -0.023502  -0.016186   0.016889
   61  H 11  S   -0.242654  -0.150894  -0.680235   0.361084   0.509673
   62  H 12  S   -0.029015   0.001880  -0.023701  -0.016363  -0.017263
   63  H 12  S   -0.244073  -0.148145  -0.684435   0.362499  -0.508607
   64  H 13  S    0.037494  -0.023909  -0.003579   0.086184   0.000564
   65  H 13  S   -0.098903  -0.148074  -0.365500   1.020478   0.007371
   66  H 14  S    0.030226  -0.042124   0.004353   0.024503  -0.000053
   67  H 14  S    0.217099  -0.419704  -0.063767  -0.355369  -0.003290
   68  H 15  S   -0.016540   0.013610  -0.012848  -0.034458  -0.030960
   69  H 15  S    0.086550  -0.185575  -0.401879  -0.733288  -0.510811

                     31         32         33         34         35
                    0.1642     0.1802     0.1822     0.1974     0.2059
                     A          A          A          A          A   
    1  C  1  S    0.070529   0.054618   0.000041   0.092427  -0.002727
    2  C  1  S   -0.030754  -0.018675  -0.000099  -0.042869   0.002034
    3  C  1  X   -0.094143   0.133776  -0.002199  -0.144534  -0.041104
    4  C  1  Y    0.022326  -0.127775  -0.118092   0.049171  -0.124750
    5  C  1  Z    0.021296  -0.119436   0.125802   0.042693   0.168046
    6  C  1  S   -0.961835  -0.720600  -0.000587  -1.198533   0.027178
    7  C  1  X   -0.251003   0.487917  -0.008026  -0.520295  -0.159711
    8  C  1  Y    0.033647  -0.363832  -0.403418   0.301357  -0.476917
    9  C  1  Z    0.030929  -0.337110   0.428818   0.273301   0.649853
   10  H  2  S    0.003176   0.034563  -0.044609   0.004872  -0.091245
   11  H  2  S    0.283591   0.700608  -0.652074   0.242716  -0.957447
   12  C  3  S    0.016634  -0.096063   0.001037  -0.072667  -0.010293
   13  C  3  S   -0.015380   0.036210  -0.000367   0.031467   0.004665
   14  C  3  X   -0.038203   0.041854   0.000188   0.070395  -0.022626
   15  C  3  Y    0.086032  -0.095586  -0.052867  -0.079199  -0.036581
   16  C  3  Z    0.083640  -0.091510   0.056560  -0.077293   0.016266
   17  C  3  S   -0.202741   1.284253  -0.013832   1.000940   0.133473
   18  C  3  X   -0.070897   0.125765   0.001744   0.326579  -0.081063
   19  C  3  Y    0.311436  -0.224124  -0.112851  -0.458295  -0.164601
   20  C  3  Z    0.302783  -0.216972   0.118032  -0.442876   0.078481
   21  C  4  S   -0.031343   0.037727  -0.001141  -0.040920   0.019172
   22  C  4  S   -0.006322  -0.016666   0.000484   0.007085  -0.010533
   23  C  4  X   -0.065249   0.084088  -0.001142  -0.020246  -0.030223
   24  C  4  Y    0.017411  -0.025198   0.001962   0.042017   0.139704
   25  C  4  Z    0.017023  -0.023915  -0.001452   0.042101  -0.191556
   26  C  4  S    0.508798  -0.484881   0.015062   0.695606  -0.245814
   27  C  4  X   -0.426715   0.097463  -0.000176   0.097895  -0.070899
   28  C  4  Y    0.102614  -0.070468  -0.016975   0.212036   0.608918
   29  C  4  Z    0.098923  -0.066076   0.020068   0.211200  -0.749003
   30  S  5  S   -0.006909   0.007638  -0.000187  -0.001908  -0.000193
   31  S  5  S    0.043641  -0.043961   0.001099   0.013497   0.001158
   32  S  5  X    0.004044  -0.024128   0.000087  -0.063875   0.010755
   33  S  5  Y    0.013707   0.001641   0.015550   0.020385   0.005562
   34  S  5  Z    0.013137   0.001330  -0.015679   0.019697  -0.002718
   35  S  5  S   -0.031107   0.114184  -0.002319   0.023801  -0.001102
   36  S  5  X    0.002376   0.065320  -0.000132   0.167080  -0.025252
   37  S  5  Y   -0.014068  -0.006609  -0.031331  -0.050156  -0.010684
   38  S  5  Z   -0.013255  -0.005886   0.031519  -0.048421   0.003289
   39  S  5  S   -0.296435   0.033671  -0.002432  -0.183854  -0.003890
   40  S  5  X   -0.200523   0.004976  -0.000481   0.237397  -0.056435
   41  S  5  Y   -0.311801   0.033422  -0.130365  -0.077174  -0.053210
   42  S  5  Z   -0.301514   0.034559   0.131567  -0.074616   0.048877
   43  C  6  S    0.014887  -0.022652   0.000573   0.023801  -0.011979
   44  C  6  S   -0.016451   0.011235  -0.000183  -0.005364   0.004805
   45  C  6  X    0.186278   0.052260   0.001595   0.044053  -0.022930
   46  C  6  Y    0.124083   0.089295   0.212483  -0.125049  -0.051724
   47  C  6  Z    0.121615   0.081567  -0.224041  -0.119353   0.086503
   48  C  6  S   -0.178103   0.295933  -0.008745  -0.431246   0.176633
   49  C  6  X    0.780267   0.236953   0.004188   0.079358  -0.043137
   50  C  6  Y    0.484353   0.348513   0.786715  -0.418162  -0.264351
   51  C  6  Z    0.475043   0.318898  -0.829110  -0.400322   0.397029
   52  H  7  S    0.014879  -0.041084   0.039444  -0.034301   0.006581
   53  H  7  S    0.413489  -0.806198   0.287778  -0.776074   0.063871
   54  H  8  S    0.014526  -0.041690  -0.038955  -0.033381  -0.012195
   55  H  8  S    0.407480  -0.806918  -0.274330  -0.768948  -0.241212
   56  H  9  S   -0.054838   0.021749  -0.028712  -0.029770   0.096124
   57  H  9  S   -0.330847   0.309092  -0.071462  -0.411652   1.129351
   58  H 10  S   -0.054624   0.022154   0.027695  -0.028924  -0.083283
   59  H 10  S   -0.329174   0.311293   0.056803  -0.402076  -0.811012
   60  H 11  S   -0.038489  -0.035068   0.081568   0.038689  -0.072159
   61  H 11  S   -0.425212  -0.461114   1.195168   0.578999  -0.615443
   62  H 12  S   -0.038052  -0.037061  -0.080020   0.038574   0.054127
   63  H 12  S   -0.420175  -0.488912  -1.174665   0.582937   0.363497
   64  H 13  S    0.090071   0.053855  -0.000781  -0.017451   0.001042
   65  H 13  S    1.321596   0.470088  -0.003996  -0.147526  -0.064379
   66  H 14  S    0.025696  -0.050096   0.000653   0.040920   0.019865
   67  H 14  S    0.730733  -0.643617   0.014182   1.202295   0.236387
   68  H 15  S    0.003131   0.035837   0.044101   0.002910   0.076561
   69  H 15  S    0.281604   0.721390   0.641823   0.215529   0.770372

                     36         37         38         39         40
                    0.2064     0.2190     0.2561     0.2691     0.5244
                     A          A          A          A          A   
    1  C  1  S    0.015436  -0.000175   0.067018   0.055312   0.010566
    2  C  1  S   -0.010527   0.000026  -0.014040  -0.007041  -0.025278
    3  C  1  X    0.176163  -0.001037   0.082961   0.141145   0.045043
    4  C  1  Y   -0.112191  -0.120885   0.000815   0.177866  -0.027989
    5  C  1  Z   -0.042460   0.126933   0.002133   0.170147  -0.027242
    6  C  1  S   -0.164741   0.002298  -0.947571  -0.843998  -0.002460
    7  C  1  X    0.686506  -0.004460   0.802666   0.873392   0.032859
    8  C  1  Y   -0.441960  -0.613426   0.011979   0.848608   0.098088
    9  C  1  Z   -0.172266   0.642399   0.016608   0.811777   0.094213
   10  H  2  S    0.012536  -0.010121  -0.017161  -0.042746  -0.029506
   11  H  2  S    0.210497  -0.715700   0.285181  -0.463379  -0.003932
   12  C  3  S    0.042849   0.000436  -0.129929  -0.044046  -0.013053
   13  C  3  S   -0.019422  -0.000097   0.028430   0.012216  -0.001640
   14  C  3  X    0.105032  -0.000211  -0.090917   0.319746   0.151297
   15  C  3  Y    0.039806   0.221202   0.186007   0.089906   0.022700
   16  C  3  Z    0.049215  -0.230937   0.177451   0.085947   0.021536
   17  C  3  S   -0.553762  -0.006250   1.889153   0.618225   0.261721
   18  C  3  X    0.382589   0.000219  -0.626943   1.505111  -0.006251
   19  C  3  Y    0.161057   0.955027   0.933975   0.444799  -0.131637
   20  C  3  Z    0.205936  -0.999600   0.890937   0.424928  -0.126587
   21  C  4  S   -0.085884  -0.000204   0.079135  -0.013899   0.011230
   22  C  4  S    0.046336  -0.000051  -0.009086  -0.003143  -0.025798
   23  C  4  X    0.134144   0.000142  -0.215185   0.061023   0.096639
   24  C  4  Y    0.137574  -0.106480   0.104429  -0.108739  -0.000734
   25  C  4  Z    0.058483   0.110952   0.100532  -0.103353  -0.000378
   26  C  4  S    1.109110   0.003835  -1.231422   0.221245  -0.050935
   27  C  4  X    0.326300   0.001530  -1.260591   0.239000   0.117108
   28  C  4  Y    0.404818  -0.486544   0.427131  -0.622759   0.175120
   29  C  4  Z    0.085901   0.507206   0.410521  -0.593237   0.168581
   30  S  5  S    0.000652   0.000031  -0.002385  -0.003049  -0.046231
   31  S  5  S   -0.003847  -0.000186   0.015665   0.020947   0.242307
   32  S  5  X   -0.049755   0.000045  -0.017886  -0.050710  -0.024757
   33  S  5  Y   -0.004772  -0.021987   0.017176   0.030667  -0.184382
   34  S  5  Z   -0.006528   0.022674   0.016521   0.029253  -0.176494
   35  S  5  S    0.004452   0.000326  -0.012399   0.002354  -1.331149
   36  S  5  X    0.117753  -0.000102   0.023278   0.142430   0.095204
   37  S  5  Y    0.013038   0.055959  -0.041514  -0.084483   0.631033
   38  S  5  Z    0.015909  -0.057675  -0.039991  -0.080508   0.604021
   39  S  5  S    0.007309   0.001016  -0.214474  -0.299463   1.586619
   40  S  5  X    0.253574   0.000009   0.257623  -0.152351  -0.119127
   41  S  5  Y   -0.001229   0.073872  -0.196693  -0.115330  -0.416003
   42  S  5  Z    0.021702  -0.075670  -0.188464  -0.111766  -0.397810
   43  C  6  S    0.053207   0.000148  -0.022652  -0.023069   0.004280
   44  C  6  S   -0.020938  -0.000087  -0.009307   0.036389  -0.013310
   45  C  6  X    0.101552   0.000196  -0.148697   0.078450  -0.104855
   46  C  6  Y   -0.093253  -0.031276  -0.091706  -0.006150   0.027707
   47  C  6  Z   -0.056972   0.033200  -0.089139  -0.005761   0.026371
   48  C  6  S   -0.790532  -0.001788   0.427183   0.141264  -0.001468
   49  C  6  X    0.185541   0.000288  -0.139840   0.188183  -0.171419
   50  C  6  Y   -0.361716  -0.051018  -0.238674   0.009818   0.133594
   51  C  6  Z   -0.194039   0.054824  -0.231178   0.008764   0.127566
   52  H  7  S    0.013075  -0.041135   0.034164   0.019530  -0.065465
   53  H  7  S    0.395083  -1.200770   0.162207   0.115024  -0.136878
   54  H  8  S    0.008996   0.041126   0.034144   0.019548  -0.065517
   55  H  8  S    0.329218   1.203109   0.167408   0.116827  -0.136188
   56  H  9  S   -0.008376   0.019019  -0.030303   0.029583  -0.052266
   57  H  9  S   -0.485061  -0.526284  -0.071764   0.452409  -0.018739
   58  H 10  S   -0.049837  -0.019233  -0.030643   0.030029  -0.052020
   59  H 10  S   -0.927888   0.522661  -0.070238   0.459744  -0.018341
   60  H 11  S    0.026392   0.010664  -0.023395   0.010235  -0.040140
   61  H 11  S    0.458289  -0.082203   0.133631  -0.084865  -0.061171
   62  H 12  S    0.055815  -0.010560  -0.023655   0.009820  -0.039853
   63  H 12  S    0.689047   0.081375   0.133103  -0.087347  -0.060753
   64  H 13  S   -0.005183  -0.000017   0.020855   0.006843  -0.075809
   65  H 13  S    0.279319   0.002532  -0.596263   0.104662  -0.141742
   66  H 14  S   -0.085414   0.000373   0.000945  -0.050381   0.005196
   67  H 14  S   -0.982108   0.006865  -0.184962   0.140663   0.003322
   68  H 15  S    0.051005   0.009893  -0.016929  -0.043139  -0.029496
   69  H 15  S    0.606457   0.709050   0.293982  -0.467634  -0.004337

                     41         42         43         44         45
                    0.5546     0.5624     0.5923     0.6439     0.6868
                     A          A          A          A          A   
    1  C  1  S   -0.000049   0.020244   0.003747  -0.008312   0.000104
    2  C  1  S    0.000086  -0.014974  -0.017379   0.028848  -0.001064
    3  C  1  X    0.000090  -0.120835   0.046123  -0.112416   0.008508
    4  C  1  Y    0.022695  -0.026437  -0.021426   0.098112   0.288716
    5  C  1  Z   -0.023806  -0.026025  -0.020748   0.094176  -0.304343
    6  C  1  S    0.000229  -0.154596   0.076554  -0.076859   0.003331
    7  C  1  X   -0.000698   0.342082  -0.048234   0.075287  -0.013283
    8  C  1  Y   -0.069395   0.158905  -0.027842  -0.151951  -0.452864
    9  C  1  Z    0.071737   0.153232  -0.026161  -0.145796   0.479007
   10  H  2  S   -0.008586  -0.020252  -0.019665   0.116021  -0.379630
   11  H  2  S   -0.028627  -0.004766   0.032736  -0.028032   0.027058
   12  C  3  S   -0.000009  -0.009467  -0.002440   0.028208   0.000171
   13  C  3  S    0.000090  -0.032793   0.015035  -0.079342   0.000047
   14  C  3  X   -0.000598   0.291401   0.007633  -0.141644   0.000320
   15  C  3  Y   -0.003155   0.086323  -0.012635  -0.017130   0.252275
   16  C  3  Z    0.002268   0.083009  -0.011827  -0.016071  -0.261208
   17  C  3  S   -0.000438   0.461934  -0.225697   0.181613  -0.005904
   18  C  3  X   -0.000364   0.048899  -0.030558   0.142055   0.001582
   19  C  3  Y    0.138515  -0.086177  -0.101551  -0.011820  -0.300788
   20  C  3  Z   -0.144080  -0.083890  -0.098309  -0.011892   0.301182
   21  C  4  S    0.000098  -0.021309   0.007627  -0.022921  -0.000511
   22  C  4  S   -0.000300   0.136283   0.075775   0.029131  -0.000804
   23  C  4  X   -0.000127  -0.018489  -0.164071   0.615017  -0.003631
   24  C  4  Y   -0.011519  -0.090001   0.102354  -0.163509   0.157387
   25  C  4  Z    0.012662  -0.086813   0.098567  -0.155626  -0.174322
   26  C  4  S    0.000185  -0.497493  -0.648507   0.236282   0.009467
   27  C  4  X    0.000088   0.226243   0.821608  -0.578157   0.005398
   28  C  4  Y   -0.050058   0.309302   0.155853   0.228594  -0.252612
   29  C  4  Z    0.051522   0.298372   0.151769   0.218329   0.277171
   30  S  5  S   -0.000072  -0.008393  -0.040814  -0.008223   0.000057
   31  S  5  S    0.000367   0.039358   0.192197   0.043823  -0.000297
   32  S  5  X   -0.000200   0.318633  -0.058369  -0.029274   0.000108
   33  S  5  Y    0.240880   0.029439   0.160325   0.052120   0.013435
   34  S  5  Z   -0.251211   0.027919   0.154237   0.049905  -0.013404
   35  S  5  S   -0.002304  -0.317285  -1.608420  -0.285772   0.002565
   36  S  5  X    0.000764  -1.152761   0.212605   0.109016   0.000357
   37  S  5  Y   -0.853512  -0.108002  -0.621000  -0.199557  -0.054191
   38  S  5  Z    0.890028  -0.102534  -0.597320  -0.191051   0.055481
   39  S  5  S    0.003141   0.610613   2.867932   0.187344  -0.000476
   40  S  5  X   -0.001826   1.545372  -0.295668  -0.251323   0.000551
   41  S  5  Y    0.833372   0.257768   1.423001   0.040735   0.086153
   42  S  5  Z   -0.867842   0.247562   1.367090   0.037656  -0.091019
   43  C  6  S   -0.000057   0.021213  -0.004034  -0.004499  -0.000023
   44  C  6  S    0.000323  -0.079391   0.116974  -0.013861  -0.000085
   45  C  6  X   -0.000051   0.006964   0.172797  -0.465515  -0.002883
   46  C  6  Y   -0.036026   0.001771   0.069526  -0.191443  -0.134899
   47  C  6  Z    0.037497   0.002662   0.068726  -0.186572   0.136708
   48  C  6  S   -0.001003   0.100243  -0.748859   0.003785   0.000399
   49  C  6  X   -0.000965  -0.025356  -0.876520   0.535171   0.005258
   50  C  6  Y    0.008821  -0.038433   0.218340   0.384644   0.202301
   51  C  6  Z   -0.008230  -0.037211   0.206255   0.372547  -0.204947
   52  H  7  S   -0.081325  -0.126180   0.019640  -0.050958   0.395811
   53  H  7  S   -0.119199  -0.124090  -0.035393   0.064116  -0.123610
   54  H  8  S    0.081897  -0.125883   0.019670  -0.050298  -0.394629
   55  H  8  S    0.118707  -0.122609  -0.035000   0.063968   0.120559
   56  H  9  S    0.101522   0.011986  -0.041131  -0.143792  -0.258744
   57  H  9  S    0.011538  -0.184083  -0.185928  -0.088615   0.025632
   58  H 10  S   -0.101511   0.011730  -0.040976  -0.144325   0.249628
   59  H 10  S   -0.010962  -0.184176  -0.185282  -0.088608  -0.028947
   60  H 11  S    0.103897  -0.063950  -0.048875  -0.194659   0.100688
   61  H 11  S    0.024382   0.086977  -0.226884  -0.049883   0.013489
   62  H 12  S   -0.103299  -0.065077  -0.048506  -0.195552  -0.102038
   63  H 12  S   -0.025250   0.087418  -0.225625  -0.050418  -0.013875
   64  H 13  S   -0.000711   0.065130  -0.087652   0.320407   0.001538
   65  H 13  S   -0.001018   0.170624  -0.223267  -0.063340   0.001007
   66  H 14  S    0.000331  -0.081729   0.051345  -0.175956   0.005552
   67  H 14  S    0.000024   0.032828  -0.069767   0.083104   0.000935
   68  H 15  S    0.008602  -0.019651  -0.019568   0.116312   0.374727
   69  H 15  S    0.028707  -0.004955   0.032929  -0.027979  -0.027087

                     46         47         48         49         50
                    0.6922     0.7495     0.7613     0.7766     0.7993
                     A          A          A          A          A   
    1  C  1  S   -0.008023  -0.000051  -0.032038  -0.007795   0.021912
    2  C  1  S    0.073586   0.000212   0.091994   0.033100  -0.001352
    3  C  1  X   -0.591841  -0.001961  -0.513840  -0.114052   0.161423
    4  C  1  Y    0.141225   0.231585  -0.497567  -0.004322   0.324097
    5  C  1  Z    0.128595  -0.242640  -0.475234  -0.003912   0.313730
    6  C  1  S   -0.228207   0.000385   0.056660  -0.120197  -0.277826
    7  C  1  X    0.940277   0.002946   0.701310   0.233551  -0.136480
    8  C  1  Y   -0.289186  -0.404610   0.741680  -0.016318  -0.657220
    9  C  1  Z   -0.266401   0.423188   0.708283  -0.015860  -0.635200
   10  H  2  S    0.158868  -0.186373  -0.259961  -0.018864   0.101013
   11  H  2  S    0.006950  -0.053816  -0.130464   0.015107   0.238900
   12  C  3  S   -0.013802   0.000051   0.056361   0.009151   0.004510
   13  C  3  S    0.000047  -0.000297  -0.164331  -0.025080  -0.006591
   14  C  3  X   -0.085353   0.001009   0.256796  -0.032025   0.522687
   15  C  3  Y   -0.030030   0.031693  -0.214405  -0.152672  -0.499024
   16  C  3  Z   -0.035713  -0.033730  -0.206566  -0.146893  -0.480846
   17  C  3  S    0.384039   0.001663   0.521956   0.069781  -0.285228
   18  C  3  X   -0.048087  -0.001641  -0.198780  -0.009382  -0.889114
   19  C  3  Y    0.386456   0.026815   0.422625   0.322328   0.976529
   20  C  3  Z    0.379676  -0.026007   0.406771   0.309508   0.941200
   21  C  4  S    0.036541   0.000042  -0.022246  -0.000756  -0.024471
   22  C  4  S    0.043493   0.000091   0.061093   0.033317   0.099382
   23  C  4  X    0.263585   0.000113   0.185587   0.000417   0.088754
   24  C  4  Y    0.355479  -0.194842  -0.032102  -0.010841   0.165344
   25  C  4  Z    0.336592   0.203539  -0.032833  -0.010469   0.157892
   26  C  4  S   -0.583449  -0.002255  -0.154498  -0.143610  -0.692172
   27  C  4  X   -0.402124  -0.000162  -0.292042  -0.089070  -0.493017
   28  C  4  Y   -0.507779   0.215216   0.001773  -0.035446  -0.235096
   29  C  4  Z   -0.479869  -0.224260   0.005044  -0.033016  -0.224601
   30  S  5  S   -0.003459  -0.000010   0.002208   0.002194  -0.001712
   31  S  5  S    0.018319   0.000047  -0.009793  -0.017811   0.013329
   32  S  5  X   -0.017099   0.000009  -0.032745  -0.007594   0.038271
   33  S  5  Y   -0.017300   0.016043   0.009842  -0.015004  -0.003061
   34  S  5  Z   -0.016967  -0.016604   0.009401  -0.014442  -0.002968
   35  S  5  S   -0.163308  -0.000636   0.077603   0.058867  -0.003210
   36  S  5  X    0.012295  -0.000090   0.137043  -0.045202  -0.141826
   37  S  5  Y    0.023323  -0.076393  -0.045057   0.109334   0.000837
   38  S  5  Z    0.023685   0.078869  -0.042999   0.104966   0.001043
   39  S  5  S    0.003472   0.000606  -0.243648   0.511097  -0.315536
   40  S  5  X   -0.086393   0.001212  -0.192813  -0.342219   0.091090
   41  S  5  Y    0.038450   0.247386  -0.032008   0.021153  -0.142329
   42  S  5  Z    0.034762  -0.255741  -0.031469   0.018168  -0.138120
   43  C  6  S    0.000173   0.000039   0.003495  -0.035438   0.009021
   44  C  6  S    0.008802   0.000059   0.003346   0.001776  -0.009125
   45  C  6  X    0.130249   0.002062  -0.132293   0.573837  -0.136011
   46  C  6  Y    0.117591   0.516297   0.046591  -0.533439   0.022545
   47  C  6  Z    0.118615  -0.535227   0.045729  -0.511646   0.020537
   48  C  6  S   -0.034820  -0.000652  -0.055527   0.285835   0.014126
   49  C  6  X   -0.266143  -0.004466   0.196199  -0.884407   0.286275
   50  C  6  Y   -0.177757  -0.960580  -0.065058   0.912692  -0.057164
   51  C  6  Z   -0.179670   0.996439  -0.064261   0.876104  -0.052102
   52  H  7  S   -0.058510   0.023161   0.185332   0.084643   0.187481
   53  H  7  S    0.110028  -0.059335   0.140910   0.087939   0.247083
   54  H  8  S   -0.070178  -0.023042   0.184418   0.084155   0.185665
   55  H  8  S    0.113269   0.059878   0.140467   0.088200   0.246484
[...]
   59  H 10  S   -0.405186   0.272893   0.031898  -0.521737   0.575530
   60  H 11  S   -0.034475  -0.035356  -0.076044   0.051425  -0.037667
   61  H 11  S   -0.360300  -0.462092  -1.172803   0.701892  -0.456227
   62  H 12  S   -0.034246  -0.036823   0.073171   0.052278  -0.034192
   63  H 12  S   -0.358773  -0.482551   1.134521   0.722305  -0.428334
   64  H 13  S    0.092797   0.057358   0.001216  -0.027525   0.004309
   65  H 13  S    1.378971   0.568683   0.008155  -0.206121  -0.280935
   66  H 14  S    0.033777  -0.050034  -0.000428   0.019716   0.095239
   67  H 14  S    0.794006  -0.603191  -0.017087   0.945329   1.236204
   68  H 15  S   -0.002971   0.037017  -0.050200   0.010049  -0.027071
   69  H 15  S    0.155734   0.745868  -0.701963   0.297352  -0.321899

     ---------------------------------------------------------------------
     PROPERTIES FOR THE B3LYP    DFT FUNCTIONAL (RHF  TYPE) DENSITY MATRIX
     ---------------------------------------------------------------------

          -----------------
          ENERGY COMPONENTS
          -----------------

         WAVEFUNCTION NORMALIZATION =       1.0000000000

                ONE ELECTRON ENERGY =   -1205.7389495292
                TWO ELECTRON ENERGY =     426.6748266801
           NUCLEAR REPULSION ENERGY =     225.4227325665
                                      ------------------
                       TOTAL ENERGY =    -553.6413902826

 ELECTRON-ELECTRON POTENTIAL ENERGY =     426.6748266801
  NUCLEUS-ELECTRON POTENTIAL ENERGY =   -1756.7530962805
   NUCLEUS-NUCLEUS POTENTIAL ENERGY =     225.4227325665
                                      ------------------
             TOTAL POTENTIAL ENERGY =   -1104.6555370339
               TOTAL KINETIC ENERGY =     551.0141467513
                 VIRIAL RATIO (V/T) =       2.0047680147

          ---------------------------------------
          MULLIKEN AND LOWDIN POPULATION ANALYSES
          ---------------------------------------

     ATOMIC MULLIKEN POPULATION IN EACH MOLECULAR ORBITAL

                      1          2          3          4          5

                  2.000000   2.000000   2.000000   2.000000   2.000000

    1            -0.000000   0.000140  -0.000001   0.007085   1.983774
    2            -0.000000  -0.000002  -0.000000   0.000005   0.003223
    3            -0.000004   0.005088   0.000027   1.980353   0.006422
    4            -0.000009   1.986209   0.000098   0.005989   0.000205
    5             2.000037   0.002288   0.002515   0.000001   0.000007
    6            -0.000017   0.000100   1.988487   0.000021   0.000000
    7            -0.000000   0.000010   0.000000   0.003245   0.000039
    8            -0.000000   0.000010   0.000000   0.003242   0.000039
    9            -0.000001   0.003080  -0.000005   0.000029  -0.000008
   10            -0.000001   0.003085  -0.000005   0.000029  -0.000008
   11            -0.000001   0.000000   0.002949  -0.000000   0.000000
   12            -0.000001  -0.000000   0.002952  -0.000000   0.000000
   13            -0.000002  -0.000002   0.002983   0.000001   0.000000
   14            -0.000000  -0.000003   0.000000  -0.000004   0.003085
   15            -0.000000  -0.000002  -0.000000   0.000005   0.003224

                      6          7          8          9         10

                  2.000000   2.000000   2.000000   2.000000   2.000000

    1             0.000000   0.000000  -0.000000  -0.000000   0.202195
    2            -0.000000  -0.000000  -0.000000  -0.000000   0.008908
    3             0.000228   0.000250   0.000013  -0.000002   0.556065
    4             0.001577  -0.000674  -0.000032   0.000029   0.677457
    5             1.995831   2.000095   1.999818   1.999880   0.305460
    6             0.001864   0.000131   0.000041   0.000049   0.136973
    7             0.000007   0.000007   0.000000   0.000003   0.018487
    8             0.000007   0.000007   0.000000   0.000003   0.018466
    9             0.000098   0.000014   0.000046   0.000011   0.024793
   10             0.000098   0.000014   0.000046   0.000011   0.024881
   11             0.000095   0.000031   0.000034   0.000009   0.004504
   12             0.000094   0.000031   0.000034   0.000008   0.004537
   13             0.000102   0.000094   0.000001   0.000000   0.002284
   14            -0.000000   0.000000   0.000000  -0.000000   0.006051
   15            -0.000000  -0.000000  -0.000000  -0.000000   0.008938

                     11         12         13         14         15

                  2.000000   2.000000   2.000000   2.000000   2.000000

    1             0.339060   0.569639   0.359515   0.104030   0.217464
    2             0.017589   0.042906   0.050393   0.024574   0.066354
    3             0.302083   0.075812   0.341327   0.400837   0.513818
    4             0.048478   0.469437   0.083881   0.527984   0.506630
    5             0.458274   0.057580   0.506054   0.351780   0.038604
    6             0.676844   0.487842   0.314950   0.091816   0.019656
    7             0.013175   0.000088   0.043159   0.085774   0.132975
    8             0.013211   0.000089   0.043320   0.085784   0.133178
    9            -0.000043   0.031468   0.000248   0.124356   0.145613
   10            -0.000043   0.031360   0.000244   0.124781   0.145088
   11             0.031831   0.041215   0.049456   0.020180   0.007349
   12             0.031912   0.041137   0.049452   0.020361   0.007393
   13             0.034108   0.052126   0.052332   0.009570   0.000000
   14             0.015904   0.056447   0.055249   0.003418   0.000000
   15             0.017619   0.042853   0.050419   0.024753   0.065879

                     16         17         18         19         20

                  2.000000   2.000000   2.000000   2.000000   2.000000

    1             0.277790   0.078104   0.402814   0.405443   0.529779
    2             0.014844   0.026554   0.066253   0.007049   0.194780
    3             0.206480   0.047087   0.214872   0.362721   0.024906
    4             0.195514   0.015452   0.297300   0.267294   0.478755
    5             0.162212   0.088731   0.084018   0.203942   0.012017
    6             0.563392   0.971039   0.345735   0.386244   0.120293
    7             0.025405   0.013242   0.008820   0.005807   0.007960
    8             0.025605   0.012999   0.008651   0.005342   0.008256
    9             0.002711   0.007598   0.059106   0.012493   0.171759
   10             0.002751   0.007589   0.058966   0.014098   0.170370
   11             0.076695   0.355583   0.058711   0.003512   0.044049
   12             0.081245   0.349919   0.059618   0.003168   0.044246
   13             0.205769   0.000013   0.127303   0.195422   0.000009
   14             0.144050   0.000007   0.141346   0.119474   0.000004
   15             0.015537   0.026084   0.066487   0.007991   0.192816

                     21         22         23         24         25

                  2.000000   2.000000   2.000000   2.000000   2.000000

    1             0.469697   0.259632   0.301936   0.039638   0.001008
    2             0.113189   0.172744   0.000384   0.001095   0.000269
    3             0.477418   0.519336   0.319889   0.032348   0.001401
    4             0.214468   0.112288   0.305889   0.374174   0.018811
    5             0.085134   0.005249   0.427619   1.186323   1.803904
    6             0.064326   0.004633   0.426692   0.172114   0.018048
    7             0.129374   0.292102   0.000407   0.009878   0.001857
    8             0.133706   0.287888   0.000648   0.009649   0.001810
    9             0.030078   0.087779   0.001531   0.043101   0.037077
   10             0.031374   0.086207   0.001850   0.043467   0.036762
   11             0.006290   0.001845   0.004570   0.031203   0.039658
   12             0.006476   0.001792   0.004399   0.031941   0.039124
   13             0.000176   0.000002   0.072510   0.014778   0.000002
   14             0.120151   0.000036   0.131080   0.009243   0.000000
   15             0.118142   0.168469   0.000595   0.001048   0.000268

               ----- POPULATIONS IN EACH AO -----
                             MULLIKEN      LOWDIN
              1  C  1  S      1.98639     1.97431
              2  C  1  S      0.36806     0.42227
              3  C  1  X      0.55246     0.52228
              4  C  1  Y      0.56159     0.52330
              5  C  1  Z      0.56204     0.52354
              6  C  1  S      1.10152     0.58081
              7  C  1  X      0.43039     0.55059
              8  C  1  Y      0.49187     0.57987
              9  C  1  Z      0.49442     0.58077
             10  H  2  S      0.47072     0.47062
             11  H  2  S      0.34039     0.44113
             12  C  3  S      1.98743     1.97406
             13  C  3  S      0.36238     0.41780
             14  C  3  X      0.53411     0.51131
             15  C  3  Y      0.56682     0.53102
             16  C  3  Z      0.56768     0.53161
             17  C  3  S      1.09062     0.56183
             18  C  3  X      0.31779     0.50702
             19  C  3  Y      0.47888     0.56285
             20  C  3  Z      0.48308     0.56401
             21  C  4  S      1.98703     1.97488
             22  C  4  S      0.36195     0.43823
             23  C  4  X      0.50058     0.48487
             24  C  4  Y      0.55322     0.51868
             25  C  4  Z      0.55571     0.52073
             26  C  4  S      1.16624     0.61088
             27  C  4  X      0.41906     0.54147
             28  C  4  Y      0.52072     0.58069
             29  C  4  Z      0.52270     0.58109
             30  S  5  S      1.99858     1.99854
             31  S  5  S      1.95904     1.95358
             32  S  5  X      1.95142     1.92422
             33  S  5  Y      1.96074     1.94069
             34  S  5  Z      1.96119     1.94151
             35  S  5  S      1.06225     0.95463
             36  S  5  X      0.64997     0.61216
             37  S  5  Y      0.88118     0.86654
             38  S  5  Z      0.89321     0.87964
             39  S  5  S      0.83297     0.81815
             40  S  5  X      0.22926     0.42092
             41  S  5  Y      0.68730     0.80133
             42  S  5  Z      0.71027     0.81616
             43  C  6  S      1.98609     1.97504
             44  C  6  S      0.36494     0.43772
             45  C  6  X      0.51102     0.48344
             46  C  6  Y      0.55743     0.52017
             47  C  6  Z      0.56040     0.52273
             48  C  6  S      1.19815     0.63201
             49  C  6  X      0.53160     0.59717
             50  C  6  Y      0.54036     0.59907
             51  C  6  Z      0.54127     0.59932
             52  H  7  S      0.47112     0.47668
             53  H  7  S      0.32070     0.43006
             54  H  8  S      0.47118     0.47669
             55  H  8  S      0.32073     0.43007
             56  H  9  S      0.47112     0.47395
             57  H  9  S      0.31181     0.43155
             58  H 10  S      0.47117     0.47396
             59  H 10  S      0.31184     0.43159
             60  H 11  S      0.46940     0.46600
             61  H 11  S      0.31037     0.43137
             62  H 12  S      0.46942     0.46598
             63  H 12  S      0.31042     0.43140
             64  H 13  S      0.46775     0.46220
             65  H 13  S      0.30183     0.42220
             66  H 14  S      0.47050     0.46969
             67  H 14  S      0.33503     0.43759
             68  H 15  S      0.47077     0.47065
             69  H 15  S      0.34036     0.44111

          ----- MULLIKEN ATOMIC OVERLAP POPULATIONS -----
          (OFF-DIAGONAL ELEMENTS NEED TO BE MULTIPLIED BY 2)

             1           2           3           4           5

    1    5.3154922
    2    0.3667264   0.5401854
    3    0.2772755  -0.0417431   5.3663779
    4   -0.0697257  -0.0022138   0.2463669   5.6190762
    5    0.0037208  -0.0000380  -0.0547426   0.2093667  15.6203459
    6   -0.0000305   0.0000003   0.0014143  -0.0224145   0.1986585
    7   -0.0387975   0.0034044   0.3729868  -0.0457980   0.0021311
    8   -0.0387506  -0.0026563   0.3730442  -0.0457203   0.0020957
    9   -0.0015878   0.0035657  -0.0373887   0.3498533  -0.0444035
   10   -0.0016585  -0.0001981  -0.0373035   0.3497775  -0.0443584
   11   -0.0000002  -0.0000000   0.0000037  -0.0020428  -0.0418368
   12   -0.0000002   0.0000000   0.0000056  -0.0021248  -0.0417256
   13    0.0000001   0.0000000  -0.0000200   0.0014809  -0.0317139
   14    0.3693340  -0.0269987  -0.0357560   0.0036004  -0.0000890
   15    0.3667449  -0.0289219  -0.0417472  -0.0022767  -0.0000370

             6           7           8           9          10

    6    5.5640734
    7   -0.0000045   0.5314936
    8   -0.0000050  -0.0296550   0.5314702
    9   -0.0013389   0.0038415  -0.0034492   0.5439201
   10   -0.0014115  -0.0034191   0.0038355  -0.0332277   0.5438854
   11    0.3491199   0.0000029  -0.0000035   0.0039014  -0.0005181
   12    0.3490294  -0.0000037   0.0000030  -0.0005191   0.0040186
   13    0.3541807   0.0000002   0.0000002  -0.0000135  -0.0000116
   14    0.0000001  -0.0017479  -0.0017022  -0.0000235  -0.0000218
   15    0.0000003  -0.0026165   0.0034019  -0.0001978   0.0036229

            11          12          13          14          15

   11    0.5238299
   12   -0.0302440   0.5237209
   13   -0.0224450  -0.0223212   0.4904444
   14    0.0000000   0.0000000  -0.0000000   0.5259311
   15    0.0000000  -0.0000000   0.0000000  -0.0269893   0.5401413

          TOTAL MULLIKEN AND LOWDIN ATOMIC POPULATIONS
       ATOM         MULL.POP.    CHARGE          LOW.POP.     CHARGE
    1 C             6.548743   -0.548743         6.257740   -0.257740
    2 H             0.811112    0.188888         0.911749    0.088251
    3 C             6.388774   -0.388774         6.161500   -0.161500
    4 C             6.587205   -0.587205         6.251518   -0.251518
    5 S            15.777374    0.222626        15.928083    0.071917
    6 C             6.791272   -0.791272         6.366677   -0.366677
    7 H             0.791818    0.208182         0.906739    0.093261
    8 H             0.791909    0.208091         0.906755    0.093245
    9 H             0.782932    0.217068         0.905498    0.094502
   10 H             0.783012    0.216988         0.905553    0.094447
   11 H             0.779767    0.220233         0.897372    0.102628
   12 H             0.779839    0.220161         0.897379    0.102621
   13 H             0.769581    0.230419         0.884400    0.115600
   14 H             0.805537    0.194463         0.907279    0.092721
   15 H             0.811125    0.188875         0.911758    0.088242

          -------------------------------
          BOND ORDER AND VALENCE ANALYSIS     BOND ORDER THRESHOLD=0.050
          -------------------------------

                   BOND                       BOND                       BOND
  ATOM PAIR DIST  ORDER      ATOM PAIR DIST  ORDER      ATOM PAIR DIST  ORDER
    1   2  1.096  0.922        1   3  1.546  0.941        1  14  1.096  0.924
    1  15  1.096  0.922        3   4  1.536  0.919        3   7  1.096  0.907
    3   8  1.096  0.907        4   5  1.910  0.929        4   9  1.094  0.892
    4  10  1.094  0.892        5   6  1.901  0.932        6  11  1.091  0.901
    6  12  1.091  0.901        6  13  1.091  0.906

                       TOTAL       BONDED        FREE
      ATOM            VALENCE     VALENCE     VALENCE
    1 C                 3.694       3.694       0.000
    2 H                 0.919       0.919       0.000
    3 C                 3.645       3.645      -0.000
    4 C                 3.628       3.628      -0.000
    5 S                 1.891       1.891      -0.000
    6 C                 3.666       3.666      -0.000
    7 H                 0.909       0.909      -0.000
    8 H                 0.909       0.909      -0.000
    9 H                 0.901       0.901       0.000
   10 H                 0.901       0.901       0.000
   11 H                 0.904       0.904       0.000
   12 H                 0.904       0.904       0.000
   13 H                 0.905       0.905       0.000
   14 H                 0.919       0.919       0.000
   15 H                 0.919       0.919       0.000

          ---------------------
          ELECTROSTATIC MOMENTS
          ---------------------

 POINT   1           X           Y           Z (BOHR)    CHARGE
                -3.119965   -0.170549    0.028319       -0.00 (A.U.)
         DX          DY          DZ         /D/  (DEBYE)
     0.353841    1.351734    1.292269    1.903246
 ...... END OF PROPERTY EVALUATION ......
 CPU     0: STEP CPU TIME=     0.02 TOTAL CPU TIME=         95.5 (      1.6 MIN)
 TOTAL WALL CLOCK TIME=         97.9 SECONDS, CPU UTILIZATION IS    97.63%
  $VIB   
          IVIB=   0 IATOM=   0 ICOORD=   0 E=     -553.6413902826
 -4.079964590E-05 5.386038702E-05 4.856013772E-05-1.802456991E-06 6.726025846E-07
 -2.094149426E-05 6.125171471E-05-7.664293778E-05-6.677468329E-05 2.946882006E-06
  7.630939335E-06 5.884569363E-06-9.624478634E-05 1.948411762E-05 2.022532585E-05
  8.320285869E-06-1.905555072E-05-3.698497071E-05 9.236583490E-06 3.256525165E-05
 -1.454957320E-05 9.685292925E-06-1.262196995E-05 3.170157335E-05-1.762826386E-05
  4.246887342E-05 1.531442283E-05-1.642944425E-05 1.822433111E-05 4.196464652E-05
  1.724191450E-05-1.375606344E-05-1.373489773E-05 2.178779876E-05-1.501681211E-05
 -6.889110177E-06 2.097757807E-05 5.641023611E-06 1.563373334E-05 2.316370876E-05
 -2.141753174E-05-2.142179714E-05-1.707161759E-06-2.203666062E-05 2.012117544E-06
  3.538407924E-01 1.351733965E+00 1.292268794E+00
 ......END OF GEOMETRY SEARCH......
 CPU     0: STEP CPU TIME=     0.01 TOTAL CPU TIME=         95.5 (      1.6 MIN)
 TOTAL WALL CLOCK TIME=         97.9 SECONDS, CPU UTILIZATION IS    97.64%
               582886  WORDS OF DYNAMIC MEMORY USED
 EXECUTION OF GAMESS TERMINATED NORMALLY Sun May 17 15:57:43 2020
 DDI: 263640 bytes (0.3 MB / 0 MWords) used by master data server.
Note: The following floating-point exceptions are signalling: IEEE_UNDERFLOW_FLAGNote: The following floating-point exceptions are signalling: IEEE_UNDERFLOW_FLAGNote: The following floating-point exceptions are signalling: IEEE_UNDERFLOW_FLAGNote: The following floating-point exceptions are signalling: IEEE_DENORMAL

 ----------------------------------------
 CPU timing information for all processes
 ========================================
 0: 93.922 + 1.638 = 95.561
 1: 94.332 + 0.661 = 94.994
 2: 93.819 + 0.517 = 94.336
 3: 94.91 + 0.497 = 94.588
 4: 93.938 + 0.449 = 94.388
 5: 93.429 + 0.499 = 93.928
 ----------------------------------------
 IEEE_DENORMAL
 IEEE_DENORMAL
 IEEE_UNDERFLOW_FLAG IEEE_DENORMALNote: The following floating-point exceptions are signalling: IEEE_UNDERFLOW_FLAGNote: The following floating-point exceptions are signalling:
 IEEE_DENORMAL
 IEEE_UNDERFLOW_FLAG IEEE_DENORMAL
 ddikick.x: exited gracefully.
unset echo
----- accounting info -----
Files used on the master node pietdev were:
-rwxr-xr-x 1 piet piet      774 mei 17 15:56 /home/piet/scr/methionine_geoopt.F05*
-rw-r--r-- 1 piet piet 57344000 mei 17 15:57 /home/piet/scr/methionine_geoopt.F10
-rw-r--r-- 1 piet piet  3984112 mei 17 15:57 /home/piet/scr/methionine_geoopt.F22
-rw-r--r-- 1 piet piet  3984112 mei 17 15:57 /home/piet/scr/methionine_geoopt.F22.001
-rw-r--r-- 1 piet piet  3984112 mei 17 15:57 /home/piet/scr/methionine_geoopt.F22.002
-rw-r--r-- 1 piet piet  3984112 mei 17 15:57 /home/piet/scr/methionine_geoopt.F22.003
-rw-r--r-- 1 piet piet  3984112 mei 17 15:57 /home/piet/scr/methionine_geoopt.F22.004
-rw-r--r-- 1 piet piet  3984112 mei 17 15:57 /home/piet/scr/methionine_geoopt.F22.005
ls: No match.
ls: No match.
ls: No match.
zo 17 mei 2020 15:57:46 CEST
0.091u 0.042s 1:41.00 0.1%	0+0k 0+8io 0pf+0w
