----- GAMESS execution script 'rungms' -----
This job is running on host pietdev
under operating system Linux at zo 17 mei 2020 16:00:17 CEST
Available scratch disk space (Kbyte units) at beginning of the job is
Filesystem     1K-blocks     Used Available Use% Mounted on
/dev/sda2      244568380 30382588 201692736  14% /
GAMESS temporary binary files will be written to /home/piet/scr
GAMESS supplementary output files will be written to /home/piet/gamess/scr
Copying input file methionine_fukui_acid.inp to your run's scratch directory...
cp methionine_fukui_acid.inp /home/piet/scr/methionine_fukui_acid.F05
unset echo
 
Assuming a single but multicore node.
 
/home/piet/gamess/ddikick.x /home/piet/gamess/gamess.03.x methionine_fukui_acid -ddi 1 6 pietdev:cpus=6 -scr /home/piet/scr

 Distributed Data Interface kickoff program.
 Initiating 6 compute processes on 1 nodes to run the following command:
 /home/piet/gamess/gamess.03.x methionine_fukui_acid 

          ******************************************************
          *         GAMESS VERSION = 30 SEP 2019 (R2)          *
          *             FROM IOWA STATE UNIVERSITY             *
          * M.W.SCHMIDT, K.K.BALDRIDGE, J.A.BOATZ, S.T.ELBERT, *
          *   M.S.GORDON, J.H.JENSEN, S.KOSEKI, N.MATSUNAGA,   *
          *          K.A.NGUYEN, S.J.SU, T.L.WINDUS,           *
          *       TOGETHER WITH M.DUPUIS, J.A.MONTGOMERY       *
          *         J.COMPUT.CHEM.  14, 1347-1363(1993)        *
          **************** 64 BIT LINUX VERSION ****************

  SINCE 1993, STUDENTS AND POSTDOCS WORKING AT IOWA STATE UNIVERSITY
  AND ALSO IN THEIR VARIOUS JOBS AFTER LEAVING ISU HAVE MADE IMPORTANT
  CONTRIBUTIONS TO THE CODE:
     IVANA ADAMOVIC, CHRISTINE AIKENS, YURI ALEXEEV, POOJA ARORA,
     ANDREY ASADCHEV, ROB BELL, PRADIPTA BANDYOPADHYAY, JONATHAN BENTZ,
     COLLEEN BERTONI, BRETT BODE, KURT BRORSEN, CALEB CARLIN, GALINA CHABAN,
     WEI CHEN, CHEOL HO CHOI, PAUL DAY, ALBERT DEFUSCO, NUWAN DESILVA,
     TIM DUDLEY, DMITRI FEDOROV, ALEX FINDLATER, GRAHAM FLETCHER, 
     MARK FREITAG, KURT GLAESEMANN, EMILIE B GUIDEZ, ANASTASIA GUNINA, 
     DAN KEMP, SAROM SOK LEANG, GRANT MERRILL,
     NORIYUKI MINEZAWA, JONATHAN MULLIN,
     TAKESHI NAGATA, SEAN NEDD, HEATHER NETZLOFF, BOSILJKA NJEGIC, RYAN OLSON,
     MIKE PAK, BUU PHAM, DAVID POOLE,
     SPENCER PRUITT, LUKE ROSKOP, TOSAPORN SATTASATHUCHANA,
     JIM SHOEMAKER, LYUDMILA SLIPCHENKO,
     TONY SMITH, JIE SONG, TETSUYA TAKETSUGU, SIMON WEBB,
     JORGE LUIS GALVEZ VALLEJO, PENG XU, SOOHAENG YOO,
     FEDERICO ZAHARIEV

  ADDITIONAL CODE HAS BEEN PROVIDED BY COLLABORATORS IN OTHER GROUPS:
     IOWA STATE UNIVERSITY:
          JOE IVANIC, AARON WEST, LAIMUTIS BYTAUTAS, KLAUS RUEDENBERG
     UNIVERSITY OF TOKYO: KIMIHIKO HIRAO, TAKAHITO NAKAJIMA,
          TAKAO TSUNEDA, MUNEAKI KAMIYA, SUSUMU YANAGISAWA,
          KIYOSHI YAGI, MAHITO CHIBA, SEIKEN TOKURA, NAOAKI KAWAKAMI
     UNIVERSITY OF AARHUS: FRANK JENSEN
     UNIVERSITY OF IOWA: VISVALDAS KAIRYS, HUI LI
     NATIONAL INST. OF STANDARDS AND TECHNOLOGY: WALT STEVENS, DAVID GARMER
     UNIVERSITY OF PISA: BENEDETTA MENNUCCI, JACOPO TOMASI
     UNIVERSITY OF MEMPHIS: HENRY KURTZ, PRAKASHAN KORAMBATH
     UNIVERSITY OF ALBERTA: TOBY ZENG, MARIUSZ KLOBUKOWSKI
     UNIVERSITY OF NEW ENGLAND: MARK SPACKMAN
     MIE UNIVERSITY: HIROAKI UMEDA
     NAT. INST. OF ADVANCED INDUSTRIAL SCIENCE AND TECHNOLOGY: KAZUO KITAURA
     MICHIGAN STATE UNIVERSITY:
          KAROL KOWALSKI, MARTA WLOCH, JEFFREY GOUR, JESSE LUTZ,
          WEI LI, JUN SHEN, J. EMILIANO DEUSTUA, PIOTR PIECUCH
     UNIVERSITY OF MINNESOTA:
          ANDREW SAND, PRACHI SHARMA, YINAN SHU
     UNIVERSITY OF SILESIA: MONIKA MUSIAL, STANISLAW KUCHARSKI
     FACULTES UNIVERSITAIRES NOTRE-DAME DE LA PAIX:
          OLIVIER QUINET, BENOIT CHAMPAGNE
     UNIVERSITY OF CALIFORNIA - SANTA BARBARA: BERNARD KIRTMAN
     INSTITUTE FOR MOLECULAR SCIENCE:
          KAZUYA ISHIMURA, MICHIO KATOUDA, AND SHIGERU NAGASE
     UNIVERSITY OF NOTRE DAME: ANNA POMOGAEVA, DAN CHIPMAN
     KYUSHU UNIVERSITY:
          HARUYUKI NAKANO,
          FENG LONG GU, JACEK KORCHOWIEC, MARCIN MAKOWSKI, AND YURIKO AOKI,
          HIROTOSHI MORI AND EISAKU MIYOSHI
     PENNSYLVANIA STATE UNIVERSITY:
          TZVETELIN IORDANOV, CHET SWALINA, JONATHAN SKONE,
          SHARON HAMMES-SCHIFFER
     WASEDA UNIVERSITY:
          MASATO KOBAYASHI, TOMOKO AKAMA, TSUGUKI TOUMA,
          TAKESHI YOSHIKAWA, YASUHIRO IKABATA, JUNJI SEINO,
          YUYA NAKAJIMA, HIROMI NAKAI
     NANJING UNIVERSITY: SHUHUA LI
     UNIVERSITY OF NEBRASKA:
          PEIFENG SU, DEJUN SI, NANDUN THELLAMUREGE, YALI WANG, HUI LI
     UNIVERSITY OF ZURICH: ROBERTO PEVERATI, KIM BALDRIDGE
     N. COPERNICUS UNIVERSITY AND JACKSON STATE UNIVERSITY:
          MARIA BARYSZ
     UNIVERSITY OF COPENHAGEN: Jimmy Kromann, CASPER STEINMANN
     TOKYO INSTITUTE OF TECHNOLOGY: HIROYA NAKATA
     NAGOYA UNIVERSITY: YOSHIO NISHIMOTO, STEPHAN IRLE
     MOSCOW STATE UNIVERSITY: VLADIMIR MIRONOV
     A.N.NESMEYANOV INSTITUTE OF ORGANOELEMENT COMPOUNDS OF RUSSIAN ACADEMY OF SCIENCES:
          IGOR S. GERASIMOV
     JOHANNES KEPLER UNIVERSITY LINZ:
          CHRISTIAN FRIEDL


 PARALLEL VERSION RUNNING ON        6 PROCESSORS IN        1 NODES.

 EXECUTION OF GAMESS BEGUN Sun May 17 16:00:17 2020

            ECHO OF THE FIRST FEW INPUT CARDS -
 INPUT CARD> $BASIS GBASIS=N21 NGAUSS=3 $END                                                
 INPUT CARD> $CONTRL SCFTYP=UHF MAXIT=60 MULT=2 ICHARG=-1 $END                              
 INPUT CARD> $SYSTEM MEMDDI=1000 MWORDS=30 $END                                             
 INPUT CARD> $SCF DIRSCF=.TRUE. $END                                                        
 INPUT CARD> $STATPT OPTTOL=0.0001 NSTEP=999 $END                                           
 INPUT CARD> $DATA                                                                          
 INPUT CARD>                                                                                
 INPUT CARD>C1                                                                              
 INPUT CARD>C 6.0000000 1.2559275202 0.4049895258 0.4899875722                              
 INPUT CARD>H 1.0000000 1.2462235900 0.2509630068 1.5754082660                              
 INPUT CARD>C 6.0000000 0.0417600911 -0.2870381482 -0.1705289928                            
 INPUT CARD>C 6.0000000 -1.2796644704 0.2773771722 0.3723063952                             
 INPUT CARD>S 16.0000000 -2.7385408658 -0.6101986552 -0.4831132453                          
 INPUT CARD>C 6.0000000 -4.1686074470 0.2978351437 0.3788096246                             
 INPUT CARD>H 1.0000000 0.0762350908 -0.1411579279 -1.2566488938                            
 INPUT CARD>H 1.0000000 0.0785277554 -1.3659205164 0.0207509206                             
 INPUT CARD>H 1.0000000 -1.3669356482 0.1059555619 1.4489446085                             
 INPUT CARD>H 1.0000000 -1.3664269382 1.3466808266 0.1600345845                             
 INPUT CARD>H 1.0000000 -4.1252716277 0.1162871966 1.4541840042                             
 INPUT CARD>H 1.0000000 -4.1115284473 1.3655966410 0.1602787749                             
 INPUT CARD>H 1.0000000 -5.0873270456 -0.1205328552 -0.0346818941                           
 INPUT CARD>H 1.0000000 2.1937352463 -0.0010783804 0.0945821675                             
 INPUT CARD>H 1.0000000 1.2400431964 1.4836814087 0.2951761079                              
 INPUT CARD> $END                                                                           
   30000000 WORDS OF MEMORY AVAILABLE

     BASIS OPTIONS
     -------------
     GBASIS=N21          IGAUSS=       3      POLAR=NONE    
     NDFUNC=       0     NFFUNC=       0     DIFFSP=       F
     NPFUNC=       0      DIFFS=       F     BASNAM=        


     RUN TITLE
     ---------
                                                                                 

 THE POINT GROUP OF THE MOLECULE IS C1      
 THE ORDER OF THE PRINCIPAL AXIS IS     0

 ATOM      ATOMIC                      COORDINATES (BOHR)
           CHARGE         X                   Y                   Z
 C           6.0     2.3733588736        0.7653192317        0.9259422488
 H           1.0     2.3550211045        0.4742513159        2.9770899415
 C           6.0     0.0789151294       -0.5424234481       -0.3222530694
 C           6.0    -2.4182152053        0.5241668507        0.7035570704
 S          16.0    -5.1750918425       -1.1531082564       -0.9129516547
 C           6.0    -7.8775258252        0.5628268111        0.7158463920
 H           1.0     0.1440634323       -0.2667498047       -2.3747220721
 H           1.0     0.1483959401       -2.5812154970        0.0392135539
 H           1.0    -2.5831338179        0.2002269789        2.7381082815
 H           1.0    -2.5821724954        2.5448577552        0.3024215133
 H           1.0    -7.7956330013        0.2197509375        2.7480093037
 H           1.0    -7.7696621561        2.5806034612        0.3028829662
 H           1.0    -9.6136541261       -0.2277740688       -0.0655392766
 H           1.0     4.1455585051       -0.0020378435        0.1787343799
 H           1.0     2.3433418541        2.8037513155        0.5578019621

          INTERNUCLEAR DISTANCES (ANGS.)
          ------------------------------

                1 C          2 H          3 C          4 C          5 S     

   1 C       0.0000000    1.0963377 *  1.5457642 *  2.5415272 *  4.2347739  
   2 H       1.0963377 *  0.0000000    2.1882583 *  2.7979032 *  4.5669966  
   3 C       1.5457642 *  2.1882583 *  0.0000000    1.5360331 *  2.8164188 *
   4 C       2.5415272 *  2.7979032 *  1.5360331 *  0.0000000    1.9099356 *
   5 S       4.2347739    4.5669966    2.8164188 *  1.9099356 *  0.0000000  
   6 C       5.4267322    5.5456686    4.2861456    2.8890227 *  1.9006648 *
   7 H       2.1773126 *  3.0892037    1.0964151 *  2.1603543 *  2.9565724 *
   8 H       2.1777455 *  2.5287913 *  1.0963243 *  2.1607186 *  2.9598767 *
   9 H       2.8086351 *  2.6202331 *  2.1821005 *  1.0936871 *  2.4752829 *
  10 H       2.8057787 *  3.1669896    2.1820405 *  1.0936166 *  2.4750178 *
  11 H       5.4745162    5.3745506    4.4907145    3.0485881    2.4907679 *
  12 H       5.4626969    5.6524779    4.4822362    3.0411562    2.4905452 *
  13 H       6.3865742    6.5455529    5.1335868    3.8499696    2.4408318 *
  14 H       1.0957737 *  1.7759924 *  2.1870194 *  3.4955935    5.0032097  
  15 H       1.0962573 *  1.7772527 *  2.1881982 *  2.7946459 *  4.5628061  

                6 C          7 H          8 H          9 H         10 H     

   1 C       5.4267322    2.1773126 *  2.1777455 *  2.8086351 *  2.8057787 *
   2 H       5.5456686    3.0892037    2.5287913 *  2.6202331 *  3.1669896  
   3 C       4.2861456    1.0964151 *  1.0963243 *  2.1821005 *  2.1820405 *
   4 C       2.8890227 *  2.1603543 *  2.1607186 *  1.0936871 *  1.0936166 *
   5 S       1.9006648 *  2.9565724 *  2.9598767 *  2.4752829 *  2.4750178 *
   6 C       0.0000000    4.5701343    4.5754176    3.0052240    3.0000259  
   7 H       4.5701343    0.0000000    1.7696889 *  3.0763685    2.5103645 *
   8 H       4.5754176    1.7696889 *  0.0000000    2.5090877 *  3.0766053  
   9 H       3.0052240    3.0763685    2.5090877 *  0.0000000    1.7890468 *
  10 H       3.0000259    2.5103645 *  3.0766053    1.7890468 *  0.0000000  
  11 H       1.0914521 *  5.0067506    4.6822643    2.7583603 *  3.2863224  
  12 H       1.0913883 *  4.6706913    5.0037211    3.2833131    2.7451667 *
  13 H       1.0908954 *  5.3062230    5.3141433    4.0117025    4.0044635  
  14 H       6.3756991    2.5158010 *  2.5184018 *  3.8110538    3.8072948  
  15 H       5.5377548    2.5303583 *  3.0894431    3.1663305    2.6135644 *

               11 H         12 H         13 H         14 H         15 H     

   1 C       5.4745162    5.4626969    6.3865742    1.0957737 *  1.0962573 *
   2 H       5.3745506    5.6524779    6.5455529    1.7759924 *  1.7772527 *
   3 C       4.4907145    4.4822362    5.1335868    2.1870194 *  2.1881982 *
   4 C       3.0485881    3.0411562    3.8499696    3.4955935    2.7946459 *
   5 S       2.4907679 *  2.4905452 *  2.4408318 *  5.0032097    4.5628061  
   6 C       1.0914521 *  1.0913883 *  1.0908954 *  6.3756991    5.5377548  
   7 H       5.0067506    4.6706913    5.3062230    2.5158010 *  2.5303583 *
   8 H       4.6822643    5.0037211    5.3141433    2.5184018 *  3.0894431  
   9 H       2.7583603 *  3.2833131    4.0117025    3.8110538    3.1663305  
  10 H       3.2863224    2.7451667 *  4.0044635    3.8072948    2.6135644 *
  11 H       0.0000000    1.7986533 *  1.7883948 *  6.4646840    5.6568250  
  12 H       1.7986533 *  0.0000000    1.7885115 *  6.4520126    5.3545738  
  13 H       1.7883948 *  1.7885115 *  0.0000000    7.2831893    6.5358950  
  14 H       6.4646840    6.4520126    7.2831893    0.0000000    1.7760287 *
  15 H       5.6568250    5.3545738    6.5358950    1.7760287 *  0.0000000  

  * ... LESS THAN  3.000


     ATOMIC BASIS SET
     ----------------
 THE CONTRACTED PRIMITIVE FUNCTIONS HAVE BEEN UNNORMALIZED
 THE CONTRACTED BASIS FUNCTIONS ARE NOW NORMALIZED TO UNITY

  SHELL TYPE  PRIMITIVE        EXPONENT          CONTRACTION COEFFICIENT(S)

 C         

      1   S       1           172.2560000    0.061766907377
      1   S       2            25.9109000    0.358794042852
      1   S       3             5.5333500    0.700713083689

      2   L       4             3.6649800   -0.395895162119    0.236459946619
      2   L       5             0.7705450    1.215834355681    0.860618805716

      3   L       6             0.1958570    1.000000000000    1.000000000000

 H         

      4   S       7             5.4471780    0.156284978695
      4   S       8             0.8245472    0.904690876670

      5   S       9             0.1831916    1.000000000000

 C         

      6   S      10           172.2560000    0.061766907377
      6   S      11            25.9109000    0.358794042852
      6   S      12             5.5333500    0.700713083689

      7   L      13             3.6649800   -0.395895162119    0.236459946619
      7   L      14             0.7705450    1.215834355681    0.860618805716

      8   L      15             0.1958570    1.000000000000    1.000000000000

 C         

      9   S      16           172.2560000    0.061766907377
      9   S      17            25.9109000    0.358794042852
      9   S      18             5.5333500    0.700713083689

     10   L      19             3.6649800   -0.395895162119    0.236459946619
     10   L      20             0.7705450    1.215834355681    0.860618805716

     11   L      21             0.1958570    1.000000000000    1.000000000000

 S         

     12   S      22          1210.6200000    0.065007081871
     12   S      23           182.7470000    0.382039893458
     12   S      24            39.6673000    0.676544811328

     13   L      25            52.2236000   -0.100309939876    0.109645970225
     13   L      26            11.9629000    0.065087660988    0.457648875721
     13   L      27             3.2891100    0.981454411734    0.604260835908

     14   L      28             1.2238400   -0.286088853728    0.164776994741
     14   L      29             0.4573030    1.228059372117    0.870854972204

     15   L      30             0.1422690    1.000000000000    1.000000000000

 C         

     16   S      31           172.2560000    0.061766907377
     16   S      32            25.9109000    0.358794042852
     16   S      33             5.5333500    0.700713083689

     17   L      34             3.6649800   -0.395895162119    0.236459946619
     17   L      35             0.7705450    1.215834355681    0.860618805716

     18   L      36             0.1958570    1.000000000000    1.000000000000

 H         

     19   S      37             5.4471780    0.156284978695
     19   S      38             0.8245472    0.904690876670

     20   S      39             0.1831916    1.000000000000

 H         

     21   S      40             5.4471780    0.156284978695
     21   S      41             0.8245472    0.904690876670

     22   S      42             0.1831916    1.000000000000

 H         

     23   S      43             5.4471780    0.156284978695
     23   S      44             0.8245472    0.904690876670

     24   S      45             0.1831916    1.000000000000

 H         

     25   S      46             5.4471780    0.156284978695
     25   S      47             0.8245472    0.904690876670

     26   S      48             0.1831916    1.000000000000

 H         

     27   S      49             5.4471780    0.156284978695
     27   S      50             0.8245472    0.904690876670

     28   S      51             0.1831916    1.000000000000

 H         

     29   S      52             5.4471780    0.156284978695
     29   S      53             0.8245472    0.904690876670

     30   S      54             0.1831916    1.000000000000

 H         

     31   S      55             5.4471780    0.156284978695
     31   S      56             0.8245472    0.904690876670

     32   S      57             0.1831916    1.000000000000

 H         

     33   S      58             5.4471780    0.156284978695
     33   S      59             0.8245472    0.904690876670

     34   S      60             0.1831916    1.000000000000

 H         

     35   S      61             5.4471780    0.156284978695
     35   S      62             0.8245472    0.904690876670

     36   S      63             0.1831916    1.000000000000

 TOTAL NUMBER OF BASIS SET SHELLS             =   36
 NUMBER OF CARTESIAN GAUSSIAN BASIS FUNCTIONS =   69
 NUMBER OF ELECTRONS                          =   51
 CHARGE OF MOLECULE                           =   -1
 SPIN MULTIPLICITY                            =    2
 NUMBER OF OCCUPIED ORBITALS (ALPHA)          =   26
 NUMBER OF OCCUPIED ORBITALS (BETA )          =   25
 TOTAL NUMBER OF ATOMS                        =   15
 THE NUCLEAR REPULSION ENERGY IS      225.4227325684

     $CONTRL OPTIONS
     ---------------
 SCFTYP=UHF          RUNTYP=ENERGY       EXETYP=RUN     
 MPLEVL=       0     CITYP =NONE         CCTYP =NONE         VBTYP =NONE    
 DFTTYP=NONE         TDDFT =NONE    
 MULT  =       2     ICHARG=      -1     NZVAR =       0     COORD =UNIQUE  
 PP    =NONE         RELWFN=NONE         LOCAL =NONE         NUMGRD=       F
 ISPHER=      -1     NOSYM =       0     MAXIT =      60     UNITS =ANGS    
 PLTORB=       F     MOLPLT=       F     AIMPAC=       F     FRIEND=        
 NPRINT=       7     IREST =       0     GEOM  =INPUT   
 NORMF =       0     NORMP =       0     ITOL  =      20     ICUT  =       9
 INTTYP=BEST         GRDTYP=BEST         QMTTOL= 1.0E-06

     $SYSTEM OPTIONS
     ---------------
  REPLICATED MEMORY=    30000000 WORDS (ON EVERY NODE).
 DISTRIBUTED MEMDDI=        1000 MILLION WORDS IN AGGREGATE,
 MEMDDI DISTRIBUTED OVER   6 PROCESSORS IS   166666666 WORDS/PROCESSOR.
 TOTAL MEMORY REQUESTED ON EACH PROCESSOR=   196666666 WORDS.
 TIMLIM=      525600.00 MINUTES, OR     365.0 DAYS.
 PARALL= T  BALTYP=  DLB     KDIAG=    0  COREFL= F
 MXSEQ2=     300 MXSEQ3=     150  mem10=         0

          ----------------
          PROPERTIES INPUT
          ----------------

     MOMENTS            FIELD           POTENTIAL          DENSITY
 IEMOM =       1   IEFLD =       0   IEPOT =       0   IEDEN =       0
 WHERE =COMASS     WHERE =NUCLEI     WHERE =NUCLEI     WHERE =NUCLEI  
 OUTPUT=BOTH       OUTPUT=BOTH       OUTPUT=BOTH       OUTPUT=BOTH    
 IEMINT=       0   IEFINT=       0                     IEDINT=       0
                                                       MORB  =       0
          EXTRAPOLATION IN EFFECT
          SOSCF IN EFFECT
          DIIS or SOSCF will be reset if energy rises
 ORBITAL PRINTING OPTION: NPREO=     1    69     2     1

     -------------------------------
     INTEGRAL TRANSFORMATION OPTIONS
     -------------------------------
     NWORD  =            0
     CUTOFF = 1.0E-09     MPTRAN =       0
     DIRTRF =       T     AOINTS =DUP     

          ----------------------
          INTEGRAL INPUT OPTIONS
          ----------------------
 NOPK  =       1 NORDER=       0 SCHWRZ=       T

     ------------------------------------------
     THE POINT GROUP IS C1 , NAXIS= 0, ORDER= 1
     ------------------------------------------

     DIMENSIONS OF THE SYMMETRY SUBSPACES ARE
 A   =   69

 ..... DONE SETTING UP THE RUN .....
 CPU     0: STEP CPU TIME=     0.02 TOTAL CPU TIME=          0.0 (      0.0 MIN)
 TOTAL WALL CLOCK TIME=          0.0 SECONDS, CPU UTILIZATION IS    50.00%

          ********************
          1 ELECTRON INTEGRALS
          ********************
 ...... END OF ONE-ELECTRON INTEGRALS ......
 CPU     0: STEP CPU TIME=     0.01 TOTAL CPU TIME=          0.0 (      0.0 MIN)
 TOTAL WALL CLOCK TIME=          0.0 SECONDS, CPU UTILIZATION IS    75.00%

          -------------
          GUESS OPTIONS
          -------------
          GUESS =HUCKEL            NORB  =       0          NORDER=       0
          MIX   =       F          PRTMO =       F          PUNMO =       F
          TOLZ  = 1.0E-08          TOLE  = 1.0E-05
          SYMDEN=       F          PURIFY=       F

 INITIAL GUESS ORBITALS GENERATED BY HUCKEL   ROUTINE.
 HUCKEL GUESS REQUIRES     51510 WORDS.

 SYMMETRIES FOR INITIAL GUESS ORBITALS FOLLOW.  ALPHA SET(S).
    26 ORBITALS ARE OCCUPIED (    9 CORE ORBITALS).
    10=A       11=A       12=A       13=A       14=A       15=A       16=A   
    17=A       18=A       19=A       20=A       21=A       22=A       23=A   
    24=A       25=A       26=A       27=A       28=A       29=A       30=A   
    31=A       32=A       33=A       34=A       35=A       36=A   

 SYMMETRIES FOR INITIAL GUESS ORBITALS FOLLOW.   BETA SET(S).
    25 ORBITALS ARE OCCUPIED (    9 CORE ORBITALS).
    10=A       11=A       12=A       13=A       14=A       15=A       16=A   
    17=A       18=A       19=A       20=A       21=A       22=A       23=A   
    24=A       25=A       26=A       27=A       28=A       29=A       30=A   
    31=A       32=A       33=A       34=A       35=A   
 ...... END OF INITIAL ORBITAL SELECTION ......
 CPU     0: STEP CPU TIME=     0.03 TOTAL CPU TIME=          0.1 (      0.0 MIN)
 TOTAL WALL CLOCK TIME=          0.1 SECONDS, CPU UTILIZATION IS    85.71%

                    ----------------------
                    AO INTEGRAL TECHNOLOGY
                    ----------------------
     S,P,L SHELL ROTATED AXIS INTEGRALS, REPROGRAMMED BY
        KAZUYA ISHIMURA (IMS) AND JOSE SIERRA (SYNSTAR).
     S,P,D,L SHELL ROTATED AXIS INTEGRALS PROGRAMMED BY
        KAZUYA ISHIMURA (INSTITUTE FOR MOLECULAR SCIENCE).
     S,P,D,F,G SHELL TO TOTAL QUARTET ANGULAR MOMENTUM SUM 5,
        ERIC PROGRAM BY GRAHAM FLETCHER (ELORET AND NASA ADVANCED
        SUPERCOMPUTING DIVISION, AMES RESEARCH CENTER).
     S,P,D,F,G,L SHELL GENERAL RYS QUADRATURE PROGRAMMED BY
        MICHEL DUPUIS (PACIFIC NORTHWEST NATIONAL LABORATORY).

          --------------------
          2 ELECTRON INTEGRALS
          --------------------

 DIRECT SCF METHOD SKIPS INTEGRAL STORAGE ON DISK.
 DIRECT TRANSFORMATION SKIPS AO INTEGRAL STORAGE ON DISK.
  ...... END OF TWO-ELECTRON INTEGRALS .....
 CPU     0: STEP CPU TIME=     0.02 TOTAL CPU TIME=          0.1 (      0.0 MIN)
 TOTAL WALL CLOCK TIME=          0.1 SECONDS, CPU UTILIZATION IS    88.89%

          ---------------------------
                  UHF SCF CALCULATION
          ---------------------------

     NUCLEAR ENERGY =       225.4227325684
     MAXIT = 60     NPUNCH=  2     MULT=  2
     EXTRAP=T  DAMP=F  SHIFT=F  RSTRCT=F  DIIS=F  SOSCF=T
     DENSITY MATRIX CONV=  2.00E-05
     SOSCF WILL OPTIMIZE    1118 ALPHA AND    1100 BETA ROTATION ANGLES.
     SOGTOL= 2.500E-01
     MEMORY REQUIRED FOR UHF/ROHF ITERS=    109928 WORDS.

 DIRECT SCF CALCULATION, SCHWRZ=T   FDIFF=T
 SCHWARZ INEQUALITY OVERHEAD:      2285 INTEGRALS, T=        0.00

                                                                                NONZERO     BLOCKS
 ITER EX      TOTAL ENERGY        E CHANGE  DENSITY CHANGE    ORB. GRAD       INTEGRALS    SKIPPED
   1  0     -551.2752432643  -551.2752432643   0.790666537   0.000000000        2104875      79800
          ---------------START SECOND ORDER SCF---------------
   2  1     -551.7919082852    -0.5166650209   0.355114804   0.028830901        2099117      82724
   3  2     -551.8222809590    -0.0303726737   0.241625186   0.011588024        2086334      86595
   4  3     -551.8269572187    -0.0046762597   0.032501407   0.004243069        2077462      88190
   5  4     -551.8274225925    -0.0004653738   0.022768503   0.001369386        2030482      96465
   6  5     -551.8275453008    -0.0001227083   0.006695381   0.000583285        2016389      97442
   7  6     -551.8275613935    -0.0000160927   0.010439631   0.000492882        1968165     103416
   8  7     -551.8275747631    -0.0000133696   0.019461206   0.000466313        1973356     103784
   9  8     -551.8275899865    -0.0000152234   0.042636230   0.000506843        1988044     102611
  10  9     -551.8276167521    -0.0000267656   0.055290481   0.000731458        2019591      98966
  11 10     -551.8276475178    -0.0000307657   0.043600860   0.000703421        2030516      97630
  12 11     -551.8276744179    -0.0000269000   0.014273781   0.000599768        2024381      98560
  13 12     -551.8276903394    -0.0000159216   0.003342170   0.000341440        1985634     102847
  14 13     -551.8276941869    -0.0000038475   0.001514957   0.000146370        1900225     109896
  15 14     -551.8276952285    -0.0000010416   0.000910581   0.000082401        1880591     111703
  16 15     -551.8276954900    -0.0000002615   0.000520997   0.000037034        1845406     115244
  17 16     -551.8276955386    -0.0000000486   0.000266336   0.000016974        1775788     120857
  18 17     -551.8276955513    -0.0000000127   0.000061976   0.000011525        1695490     125865
  19 18     -551.8276955536    -0.0000000023   0.000039037   0.000003245        1642377     130810
  20 19     -551.8276955545    -0.0000000009   0.000019811   0.000001188        1595138     135147
  21 20     -551.8276955547    -0.0000000002   0.000008255   0.000000721        1517362     140990

          -----------------
          DENSITY CONVERGED
          -----------------
     TIME TO FORM FOCK OPERATORS=       0.7 SECONDS (       0.0 SEC/ITER)
     FOCK TIME ON FIRST ITERATION=       0.0, LAST ITERATION=       0.0
     TIME TO SOLVE SCF EQUATIONS=       0.1 SECONDS (       0.0 SEC/ITER)

 FINAL UHF ENERGY IS     -551.8276955547 AFTER  21 ITERATIONS

          --------------------
          SPIN SZ   =    0.500
          S-SQUARED =    0.767
          --------------------

  ----- ALPHA SET ----- 

          ------------
          EIGENVECTORS
          ------------

                      1          2          3          4          5
                  -91.0418   -11.0162   -10.9947   -10.9775   -10.9550
                     A          A          A          A          A   
    1  C  1  S    0.000019   0.987516   0.003975   0.000082   0.002981
    2  C  1  S    0.000127   0.101550  -0.001907  -0.000034  -0.001196
    3  C  1  X    0.000042   0.000101  -0.000586  -0.000024   0.001132
    4  C  1  Y    0.000001   0.000130  -0.000139   0.000042  -0.000124
    5  C  1  Z    0.000001   0.000126  -0.000130   0.000040  -0.000125
    6  C  1  S   -0.000893  -0.080273   0.021131   0.000749   0.002295
    7  C  1  X    0.000093   0.003857  -0.009859  -0.000074  -0.002892
    8  C  1  Y    0.000268   0.001707  -0.005304  -0.000689   0.000737
    9  C  1  Z    0.000254   0.001626  -0.005078  -0.000658   0.000732
   10  H  2  S   -0.000005   0.000257  -0.001326  -0.000009  -0.000337
   11  H  2  S    0.000076   0.014366   0.000658   0.000281  -0.001054
   12  C  3  S    0.000051  -0.004716   0.987973   0.003343   0.002373
   13  C  3  S    0.000345  -0.002290   0.104285  -0.000334  -0.001650
   14  C  3  X   -0.000218   0.000160   0.000321   0.000296  -0.000287
   15  C  3  Y   -0.000061  -0.000029   0.000239   0.000069  -0.000058
   16  C  3  Z   -0.000058  -0.000026   0.000226   0.000066  -0.000054
   17  C  3  S   -0.001033   0.017447  -0.091860   0.002450   0.017344
   18  C  3  X    0.001762   0.009970   0.001059  -0.003204  -0.010439
   19  C  3  Y    0.000073   0.004853  -0.005112  -0.000102   0.003540
   20  C  3  Z    0.000068   0.004621  -0.004867  -0.000097   0.003392
   21  C  4  S   -0.000072  -0.003244  -0.003089  -0.001385   0.987526
   22  C  4  S   -0.000644  -0.001733  -0.002689   0.000200   0.102350
   23  C  4  X    0.000101  -0.001070   0.000428   0.000452   0.000299
   24  C  4  Y    0.000071  -0.000309   0.000075  -0.000279  -0.000073
   25  C  4  Z    0.000068  -0.000297   0.000074  -0.000267  -0.000073
   26  C  4  S    0.001117   0.002874   0.022225  -0.003375  -0.078876
   27  C  4  X    0.001118   0.002489   0.011901  -0.000387  -0.003841
   28  C  4  Y   -0.000148   0.001325  -0.004850   0.002662   0.001956
   29  C  4  Z   -0.000137   0.001281  -0.004686   0.002562   0.001902
   30  S  5  S    0.986434  -0.000001  -0.000004   0.000017   0.000016
   31  S  5  S    0.051209  -0.000013   0.000091  -0.000388  -0.000397
   32  S  5  X    0.000029   0.000022   0.000119   0.000230  -0.000337
   33  S  5  Y    0.000146  -0.000006   0.000039  -0.000138  -0.000147
   34  S  5  Z    0.000139  -0.000006   0.000038  -0.000131  -0.000142
   35  S  5  S   -0.017454  -0.000949  -0.000199  -0.002322  -0.002208
   36  S  5  X   -0.000233  -0.000223  -0.000721  -0.001554   0.002184
   37  S  5  Y   -0.000441   0.000031  -0.000200   0.000770   0.000822
   38  S  5  Z   -0.000422   0.000028  -0.000194   0.000729   0.000795
   39  S  5  S    0.009980   0.002438  -0.001191   0.014030   0.013564
   40  S  5  X    0.000375   0.001989   0.000227  -0.004622   0.004173
   41  S  5  Y    0.001249   0.000489  -0.000189   0.005331   0.004839
   42  S  5  Z    0.001193   0.000475  -0.000171   0.005078   0.004641
   43  C  6  S   -0.000054  -0.000075  -0.003514   0.987280   0.001578
   44  C  6  S   -0.000516  -0.000009  -0.000902   0.099901   0.000385
   45  C  6  X   -0.000032  -0.000056  -0.000427   0.000230  -0.000277
   46  C  6  Y    0.000026   0.000037  -0.000073  -0.000133  -0.000101
   47  C  6  Z    0.000023   0.000034  -0.000074  -0.000126  -0.000101
   48  C  6  S    0.000438  -0.000187   0.001263  -0.071192  -0.002079
   49  C  6  X   -0.000730   0.000069   0.001910  -0.001267  -0.001256
   50  C  6  Y    0.000234  -0.000215   0.000387   0.000771   0.001337
   51  C  6  Z    0.000226  -0.000199   0.000388   0.000741   0.001289
   52  H  7  S    0.000262  -0.001051   0.000954  -0.000356  -0.001102
   53  H  7  S   -0.000259   0.000684   0.014372   0.000185   0.000613
   54  H  8  S    0.000260  -0.001050   0.000947  -0.000358  -0.001101
   55  H  8  S   -0.000254   0.000691   0.014359   0.000191   0.000626
   56  H  9  S    0.000102  -0.000256  -0.001250   0.000194   0.000228
   57  H  9  S   -0.000773  -0.001514   0.000777  -0.001666   0.013794
   58  H 10  S    0.000102  -0.000255  -0.001250   0.000196   0.000227
   59  H 10  S   -0.000769  -0.001515   0.000759  -0.001678   0.013813
   60  H 11  S    0.000105  -0.000011  -0.000277  -0.000307   0.000377
   61  H 11  S   -0.000790   0.000175  -0.000139   0.013323  -0.001503
   62  H 12  S    0.000104  -0.000012  -0.000279  -0.000309   0.000379
   63  H 12  S   -0.000783   0.000185  -0.000136   0.013336  -0.001505
   64  H 13  S    0.000023  -0.000075   0.000066  -0.000339  -0.000121
   65  H 13  S   -0.000796   0.000250   0.000950   0.013452   0.001099
   66  H 14  S    0.000086   0.000176  -0.001115  -0.000129  -0.000122
   67  H 14  S    0.000065   0.013821   0.000045  -0.000120   0.002435
   68  H 15  S   -0.000005   0.000256  -0.001326  -0.000010  -0.000336
   69  H 15  S    0.000074   0.014368   0.000643   0.000287  -0.001050

                      6          7          8          9         10
                   -8.6334    -6.3146    -6.3047    -6.3043    -0.8916
                     A          A          A          A          A   
    1  C  1  S   -0.000107  -0.000100   0.000043  -0.000000  -0.127962
    2  C  1  S   -0.000809  -0.000478   0.000225  -0.000002   0.127870
    3  C  1  X   -0.000124  -0.000547  -0.000082   0.000003  -0.037398
    4  C  1  Y   -0.000044   0.000018   0.000103  -0.000125  -0.018087
    5  C  1  Z   -0.000045   0.000017   0.000099   0.000131  -0.017269
    6  C  1  S    0.005115   0.006186  -0.001541  -0.000005   0.315174
    7  C  1  X   -0.001168  -0.000137   0.001441  -0.000010   0.005580
    8  C  1  Y   -0.001217  -0.002530   0.000184   0.000371   0.000392
    9  C  1  Z   -0.001147  -0.002407   0.000174  -0.000379   0.000350
   10  H  2  S   -0.000067   0.000068   0.000217   0.000170   0.064897
   11  H  2  S   -0.000491  -0.000049  -0.000185  -0.000049   0.005560
   12  C  3  S   -0.000160  -0.000298  -0.000131   0.000001  -0.146922
   13  C  3  S   -0.001386  -0.001827  -0.000807   0.000004   0.140446
   14  C  3  X    0.001121   0.001269  -0.000329  -0.000003   0.006713
   15  C  3  Y    0.000309   0.000414  -0.000061  -0.000019   0.025731
   16  C  3  Z    0.000297   0.000397  -0.000055   0.000022   0.024598
   17  C  3  S    0.003709   0.004678   0.005448  -0.000006   0.372125
   18  C  3  X   -0.008695  -0.012237   0.000093   0.000023   0.009568
   19  C  3  Y   -0.000365  -0.001861   0.001053   0.000676   0.010471
   20  C  3  Z   -0.000330  -0.001790   0.000992  -0.000721   0.009994
   21  C  4  S    0.000181   0.000700   0.000387  -0.000001  -0.102151
   22  C  4  S    0.001915   0.004232   0.002179  -0.000008   0.101838
   23  C  4  X   -0.000043  -0.000386   0.000237   0.000002   0.036781
   24  C  4  Y   -0.000040  -0.000136   0.000243  -0.000038  -0.016700
   25  C  4  Z   -0.000035  -0.000133   0.000235   0.000041  -0.016115
   26  C  4  S   -0.001134  -0.010700  -0.003879   0.000021   0.246673
   27  C  4  X   -0.008069   0.000353  -0.002255  -0.000003  -0.010934
   28  C  4  Y   -0.000874   0.002929   0.000023  -0.000605  -0.004707
   29  C  4  Z   -0.000879   0.002837   0.000017   0.000612  -0.004560
   30  S  5  S   -0.301242  -0.000012   0.004202  -0.000008   0.012441
   31  S  5  S    0.988484  -0.000026  -0.014536   0.000027  -0.069910
   32  S  5  X   -0.001075   0.971215  -0.061113  -0.003331  -0.010819
   33  S  5  Y    0.008761   0.042011   0.700479  -0.674910  -0.009334
   34  S  5  Z    0.008381   0.044963   0.672603   0.702585  -0.008963
   35  S  5  S    0.134816   0.000335   0.004262  -0.000008   0.089839
   36  S  5  X    0.000830   0.085994  -0.005937  -0.000283   0.019795
   37  S  5  Y    0.004283   0.003268   0.061379  -0.056367   0.016367
   38  S  5  Z    0.004097   0.003540   0.058925   0.058669   0.015719
   39  S  5  S   -0.066400   0.002519  -0.006103  -0.000000   0.036858
   40  S  5  X   -0.001823  -0.031223   0.002566   0.000096  -0.006887
   41  S  5  Y   -0.010334   0.000838  -0.021359   0.017624  -0.005741
   42  S  5  Z   -0.009878   0.000663  -0.020497  -0.018352  -0.005537
   43  C  6  S    0.000101  -0.000420   0.000402  -0.000001  -0.018579
   44  C  6  S    0.001389  -0.002350   0.002203  -0.000006   0.017679
   45  C  6  X   -0.000148   0.000441  -0.000349   0.000001   0.008513
   46  C  6  Y    0.000119  -0.000467   0.000324   0.000065  -0.002828
   47  C  6  Z    0.000121  -0.000442   0.000310  -0.000066  -0.002673
   48  C  6  S    0.001846   0.003205  -0.002137   0.000012   0.054217
   49  C  6  X    0.006146  -0.001140   0.001635  -0.000006   0.004113
   50  C  6  Y   -0.002525   0.001976  -0.000285  -0.001056  -0.002954
   51  C  6  Z   -0.002425   0.001867  -0.000272   0.001089  -0.002846
   52  H  7  S   -0.001207  -0.001612   0.000172   0.000558   0.068897
   53  H  7  S    0.001643   0.001905  -0.001417  -0.002386  -0.000883
   54  H  8  S   -0.001198  -0.001608   0.000173  -0.000549   0.068904
   55  H  8  S    0.001610   0.001906  -0.001400   0.002351  -0.000864
   56  H  9  S   -0.000840   0.000524  -0.000067  -0.000470   0.046799
   57  H  9  S    0.004681   0.002137   0.003776   0.002015   0.000793
   58  H 10  S   -0.000838   0.000528  -0.000063   0.000465   0.046838
   59  H 10  S    0.004649   0.002138   0.003768  -0.002012   0.000824
   60  H 11  S   -0.000860  -0.000297  -0.000111  -0.000534   0.008844
   61  H 11  S    0.004727  -0.003012   0.003772   0.001618   0.001251
   62  H 12  S   -0.000858  -0.000305  -0.000109   0.000527   0.008869
   63  H 12  S    0.004677  -0.003009   0.003760  -0.001608   0.001252
   64  H 13  S   -0.000339   0.000487   0.000647   0.000002   0.008178
   65  H 13  S    0.004347  -0.005641   0.001103  -0.000019  -0.003766
   66  H 14  S   -0.000387  -0.000589  -0.000049   0.000001   0.062787
   67  H 14  S   -0.000069  -0.001128  -0.000249   0.000005   0.001817
   68  H 15  S   -0.000064   0.000072   0.000220  -0.000172   0.064923
   69  H 15  S   -0.000483  -0.000036  -0.000189   0.000053   0.005577

                     11         12         13         14         15
                   -0.8088    -0.7500    -0.6454    -0.5835    -0.4654
                     A          A          A          A          A   
    1  C  1  S    0.091344  -0.114073   0.072634   0.004375  -0.000018
    2  C  1  S   -0.085612   0.103883  -0.062859  -0.004871   0.000013
    3  C  1  X   -0.004123   0.041160  -0.079942   0.011113   0.000713
    4  C  1  Y    0.002823   0.012459  -0.061539  -0.038257  -0.164110
    5  C  1  Z    0.002713   0.011852  -0.058756  -0.036667   0.171118
    6  C  1  S   -0.272944   0.372075  -0.283606  -0.021933   0.000086
    7  C  1  X   -0.004060   0.013922  -0.026385   0.010200   0.000583
    8  C  1  Y    0.004195   0.001780  -0.027825  -0.022171  -0.129931
    9  C  1  Z    0.004000   0.001688  -0.026578  -0.021249   0.135412
   10  H  2  S   -0.051614   0.072940  -0.073620  -0.022423   0.132475
   11  H  2  S   -0.008581   0.018241  -0.039441  -0.020138   0.118368
   12  C  3  S    0.020070   0.047536  -0.131605  -0.040300   0.000041
   13  C  3  S   -0.016311  -0.043218   0.114040   0.036637  -0.000031
   14  C  3  X   -0.062724   0.092747   0.012905   0.052938   0.000303
   15  C  3  Y   -0.007044   0.006935  -0.056019  -0.069945  -0.167002
   16  C  3  Z   -0.006668   0.006477  -0.053614  -0.067229   0.173921
   17  C  3  S   -0.064745  -0.149370   0.482925   0.154438  -0.000192
   18  C  3  X    0.003805   0.015889   0.014908   0.030449   0.000206
   19  C  3  Y   -0.001147  -0.002701  -0.015977  -0.040464  -0.126647
   20  C  3  Z   -0.001061  -0.002622  -0.015382  -0.038942   0.131994
   21  C  4  S   -0.078111   0.116391   0.065758   0.094777  -0.000055
   22  C  4  S    0.070109  -0.107487  -0.054795  -0.087710   0.000050
   23  C  4  X   -0.045711  -0.015309   0.094096  -0.048981  -0.000121
   24  C  4  Y   -0.010672   0.009093  -0.027268  -0.077714  -0.101811
   25  C  4  Z   -0.010329   0.008675  -0.026125  -0.074750   0.106068
   26  C  4  S    0.249666  -0.350843  -0.263555  -0.322223   0.000212
   27  C  4  X   -0.015407  -0.000579   0.034898  -0.038348  -0.000086
   28  C  4  Y   -0.013228   0.002573  -0.002496  -0.056568  -0.067917
   29  C  4  Z   -0.012805   0.002473  -0.002285  -0.054335   0.070761
   30  S  5  S    0.037536   0.002780  -0.028073   0.050607   0.000011
   31  S  5  S   -0.212891  -0.015859   0.161591  -0.293299  -0.000065
   32  S  5  X    0.007167   0.039714   0.020335   0.001484   0.000061
   33  S  5  Y   -0.025748  -0.002627   0.009984   0.004919   0.011135
   34  S  5  Z   -0.024594  -0.002340   0.009679   0.004729  -0.011605
   35  S  5  S    0.258056   0.019097  -0.186915   0.333792   0.000084
   36  S  5  X   -0.012552  -0.071848  -0.037295  -0.000564  -0.000120
   37  S  5  Y    0.046141   0.005163  -0.018345  -0.008278  -0.022229
   38  S  5  Z    0.044077   0.004628  -0.017790  -0.007951   0.023173
   39  S  5  S    0.178180   0.015502  -0.201246   0.425728   0.000083
   40  S  5  X    0.004455   0.004794   0.003066   0.004217  -0.000084
   41  S  5  Y   -0.001244  -0.000140  -0.007438  -0.000162  -0.013980
   42  S  5  Z   -0.001164  -0.000108  -0.007156  -0.000173   0.014559
   43  C  6  S   -0.136277  -0.129034  -0.068464   0.056996  -0.000015
   44  C  6  S    0.127956   0.121228   0.065623  -0.057833   0.000010
   45  C  6  X    0.019430  -0.014947  -0.052469   0.074750  -0.000144
   46  C  6  Y   -0.010058   0.002357   0.022735  -0.052983  -0.012068
   47  C  6  Z   -0.009582   0.002155   0.021503  -0.050304   0.012477
   48  C  6  S    0.404565   0.393643   0.216750  -0.175771   0.000061
   49  C  6  X    0.020760  -0.000489  -0.032875   0.048076  -0.000097
   50  C  6  Y   -0.008532  -0.000525   0.013839  -0.041619  -0.008704
   51  C  6  Z   -0.008105  -0.000531   0.013069  -0.039563   0.009011
   52  H  7  S   -0.008113  -0.028502   0.106396   0.061812  -0.127151
   53  H  7  S   -0.000612  -0.007440   0.042724   0.038045  -0.103768
   54  H  8  S   -0.008140  -0.028522   0.106534   0.061768   0.127253
   55  H  8  S   -0.000652  -0.007453   0.042875   0.038022   0.103980
   56  H  9  S    0.038959  -0.061541  -0.053833  -0.094894   0.077013
   57  H  9  S    0.002444  -0.004835  -0.019774  -0.056060   0.069805
   58  H 10  S    0.038987  -0.061491  -0.053890  -0.094992  -0.076815
   59  H 10  S    0.002454  -0.004748  -0.019775  -0.056120  -0.069654
   60  H 11  S    0.072615   0.076396   0.052746  -0.062591   0.009948
   61  H 11  S    0.009364   0.015101   0.023606  -0.043963   0.009864
   62  H 12  S    0.072655   0.076360   0.052667  -0.062687  -0.009965
   63  H 12  S    0.009379   0.015013   0.023521  -0.044061  -0.009904
   64  H 13  S    0.072942   0.081111   0.058873  -0.053671   0.000025
   65  H 13  S    0.008388   0.022086   0.027264  -0.033205   0.000028
   66  H 14  S   -0.054642   0.081202  -0.061717   0.018041  -0.000211
   67  H 14  S   -0.011809   0.028162  -0.032208   0.015359  -0.000230
   68  H 15  S   -0.051602   0.072909  -0.073700  -0.022602  -0.132068
   69  H 15  S   -0.008573   0.018179  -0.039487  -0.020289  -0.117926

                     16         17         18         19         20
                   -0.4269    -0.3849    -0.3800    -0.3687    -0.3647
                     A          A          A          A          A   
    1  C  1  S    0.002865   0.000006   0.003691  -0.013788   0.000241
    2  C  1  S   -0.003467  -0.000002  -0.003128   0.011933  -0.000213
    3  C  1  X    0.242486   0.000311   0.033455  -0.194824   0.003585
    4  C  1  Y   -0.146497   0.109265   0.129773  -0.116397  -0.143143
    5  C  1  Z   -0.141455  -0.114659   0.123291  -0.107651   0.152005
    6  C  1  S   -0.014652  -0.000007  -0.014421   0.056439  -0.001023
    7  C  1  X    0.184498   0.000216   0.036538  -0.171330   0.003137
    8  C  1  Y   -0.117716   0.095640   0.110999  -0.100130  -0.129479
    9  C  1  Z   -0.113623  -0.100316   0.105341  -0.092404   0.137331
   10  H  2  S   -0.090916  -0.096976   0.073870  -0.052663   0.132509
   11  H  2  S   -0.082880  -0.095857   0.075942  -0.061478   0.136022
   12  C  3  S    0.020664   0.000045   0.000681  -0.010169   0.000162
   13  C  3  S   -0.016310  -0.000032  -0.000783   0.007371  -0.000119
   14  C  3  X    0.041976  -0.000237  -0.105912   0.215435  -0.003453
   15  C  3  Y   -0.096314  -0.018585  -0.068995   0.093615   0.076197
   16  C  3  Z   -0.092689   0.019606  -0.065745   0.087778  -0.081938
   17  C  3  S   -0.079887  -0.000290   0.020740   0.026035  -0.000451
   18  C  3  X    0.041480  -0.000161  -0.072452   0.152136  -0.002529
   19  C  3  Y   -0.072890  -0.017860  -0.049696   0.070492   0.076481
   20  C  3  Z   -0.070108   0.018746  -0.047298   0.065646  -0.081617
   21  C  4  S   -0.030584  -0.000196   0.008976   0.025710  -0.000513
   22  C  4  S    0.023872   0.000149  -0.005631  -0.019927   0.000403
   23  C  4  X   -0.118588   0.000392  -0.032185  -0.029818   0.000571
   24  C  4  Y    0.026545  -0.106818  -0.087035   0.094968   0.129152
   25  C  4  Z    0.025774   0.111450  -0.082573   0.087818  -0.137232
   26  C  4  S    0.152903   0.000775  -0.032990  -0.113174   0.002215
   27  C  4  X   -0.090724   0.000480  -0.044909  -0.016407   0.000316
   28  C  4  Y    0.014748  -0.088029  -0.071118   0.080169   0.101214
   29  C  4  Z    0.014294   0.091880  -0.067533   0.074440  -0.107716
   30  S  5  S   -0.010299   0.000018  -0.003482   0.005907  -0.000102
   31  S  5  S    0.060458  -0.000105   0.020509  -0.034829   0.000602
   32  S  5  X   -0.031957   0.000449  -0.069201   0.043703  -0.000668
   33  S  5  Y   -0.016641   0.035746  -0.014327  -0.013211   0.001853
   34  S  5  Z   -0.016112  -0.036888  -0.014540  -0.012994  -0.001535
   35  S  5  S   -0.067143   0.000099  -0.019927   0.034132  -0.000605
   36  S  5  X    0.062383  -0.000903   0.139333  -0.088135   0.001342
   37  S  5  Y    0.031552  -0.071889   0.028217   0.025574  -0.003891
   38  S  5  Z    0.030561   0.074216   0.028673   0.025189   0.003282
   39  S  5  S   -0.116488   0.000354  -0.046758   0.069198  -0.001173
   40  S  5  X    0.028538  -0.000661   0.085779  -0.040364   0.000576
   41  S  5  Y    0.016350  -0.048729   0.017077   0.017025  -0.000184
   42  S  5  Z    0.015821   0.050438   0.017434   0.016818  -0.000310
   43  C  6  S   -0.001760  -0.000014  -0.003523   0.002979  -0.000012
   44  C  6  S    0.003578   0.000034   0.003279  -0.007575   0.000100
   45  C  6  X    0.018507  -0.003142   0.131497   0.199016  -0.004397
   46  C  6  Y    0.054873  -0.196350   0.176745   0.078324  -0.156382
   47  C  6  Z    0.052513   0.201790   0.173437   0.083030   0.160247
   48  C  6  S   -0.000389  -0.000028   0.009511   0.004237  -0.000262
   49  C  6  X    0.013901  -0.002546   0.099315   0.177625  -0.003835
   50  C  6  Y    0.046655  -0.156235   0.144332   0.057120  -0.126520
   51  C  6  Z    0.044674   0.160673   0.141511   0.061310   0.129853
   52  H  7  S    0.037183  -0.016407   0.037358  -0.040767   0.067849
   53  H  7  S    0.038238  -0.014660   0.036852  -0.044100   0.061878
   54  H  8  S    0.036964   0.016186   0.037560  -0.042136  -0.066834
   55  H  8  S    0.037988   0.014464   0.037057  -0.045269  -0.060794
   56  H  9  S    0.040582   0.087832  -0.048316   0.031814  -0.105227
   57  H  9  S    0.025264   0.086534  -0.044241   0.042582  -0.100067
   58  H 10  S    0.040348  -0.087409  -0.049253   0.034724   0.104203
   59  H 10  S    0.025012  -0.086295  -0.045185   0.045359   0.098569
   60  H 11  S    0.032368   0.166851   0.109065   0.053594   0.134191
   61  H 11  S    0.034863   0.169449   0.110925   0.052716   0.135883
   62  H 12  S    0.032953  -0.167826   0.107879   0.049041  -0.135302
   63  H 12  S    0.035455  -0.170521   0.109692   0.048099  -0.136897
   64  H 13  S   -0.036505   0.001059  -0.173643  -0.170185   0.002168
   65  H 13  S   -0.030862   0.001053  -0.168351  -0.167366   0.002154
   66  H 14  S    0.228107   0.000906  -0.056045  -0.053162   0.000763
   67  H 14  S    0.237202   0.001004  -0.061724  -0.065529   0.000985
   68  H 15  S   -0.091551   0.096175   0.075171  -0.055781  -0.130940
   69  H 15  S   -0.083453   0.094998   0.077165  -0.064566  -0.134042

                     21         22         23         24         25
                   -0.3082    -0.2985    -0.2584    -0.2015    -0.1008
                     A          A          A          A          A   
    1  C  1  S   -0.011735  -0.000018  -0.027026   0.012301   0.000059
    2  C  1  S    0.009409   0.000019   0.020125  -0.012609  -0.000037
    3  C  1  X    0.015849  -0.000901  -0.164277   0.042530   0.000242
    4  C  1  Y   -0.112228  -0.072850  -0.041467   0.010043  -0.006784
    5  C  1  Z   -0.106413   0.077690  -0.039764   0.009646   0.007193
    6  C  1  S    0.061514  -0.000014   0.138249  -0.043621  -0.000437
    7  C  1  X    0.020519  -0.000888  -0.165731   0.016213   0.000337
    8  C  1  Y   -0.106591  -0.063101  -0.044144   0.006147  -0.013066
    9  C  1  Z   -0.101125   0.067545  -0.042287   0.006095   0.013827
   10  H  2  S   -0.068005   0.081708  -0.000523  -0.003191   0.006424
   11  H  2  S   -0.094437   0.114117  -0.015461   0.014207   0.000254
   12  C  3  S   -0.012893   0.000137   0.017738   0.011402  -0.000129
   13  C  3  S    0.012343  -0.000152  -0.013389  -0.006391   0.000082
   14  C  3  X   -0.130197   0.001705   0.201397   0.004733  -0.000420
   15  C  3  Y    0.194354   0.177163   0.009902  -0.026674   0.007679
   16  C  3  Z    0.183546  -0.187940   0.010228  -0.025660  -0.007976
   17  C  3  S    0.031428  -0.000290  -0.094413  -0.103492   0.000932
   18  C  3  X   -0.134202   0.001573   0.167408  -0.013454  -0.000415
   19  C  3  Y    0.171150   0.170682   0.000762  -0.047027   0.035172
   20  C  3  Z    0.161496  -0.180860   0.001568  -0.045293  -0.036501
   21  C  4  S   -0.015233   0.000175  -0.002277   0.023989   0.000006
   22  C  4  S    0.013558  -0.000128  -0.001939  -0.024667   0.000002
   23  C  4  X    0.173793  -0.002281  -0.229769   0.119297   0.000248
   24  C  4  Y   -0.150577  -0.155630  -0.034452   0.130723   0.049657
   25  C  4  Z   -0.141626   0.164535  -0.034119   0.125571  -0.051914
   26  C  4  S    0.035573  -0.000476   0.058588  -0.153023  -0.000107
   27  C  4  X    0.129221  -0.001898  -0.244178   0.200506   0.000046
   28  C  4  Y   -0.128802  -0.149300  -0.058133   0.132930   0.017619
   29  C  4  Z   -0.120837   0.157611  -0.056922   0.128029  -0.018523
   30  S  5  S    0.005516  -0.000051   0.003450   0.021873  -0.000005
   31  S  5  S   -0.032558   0.000299  -0.020411  -0.132137   0.000033
   32  S  5  X   -0.047050   0.000163  -0.157930   0.000142   0.000827
   33  S  5  Y    0.018846   0.015493   0.002384   0.129579   0.171311
   34  S  5  Z    0.017679  -0.016499   0.001525   0.123972  -0.179037
   35  S  5  S    0.039051  -0.000379   0.025591   0.122576  -0.000014
   36  S  5  X    0.095879  -0.000336   0.319064   0.001951  -0.001707
   37  S  5  Y   -0.036766  -0.031739  -0.004380  -0.255067  -0.354215
   38  S  5  Z   -0.034457   0.033768  -0.002655  -0.244022   0.370196
   39  S  5  S    0.068959  -0.000545   0.035053   0.455982  -0.000159
   40  S  5  X    0.050844  -0.000112   0.222989  -0.021132  -0.001989
   41  S  5  Y   -0.018453  -0.019712   0.000463  -0.197511  -0.423057
   42  S  5  Z   -0.017258   0.020992   0.001557  -0.189093   0.442045
   43  C  6  S   -0.000155  -0.000014   0.018119   0.030421  -0.000004
   44  C  6  S    0.002629   0.000012  -0.005517  -0.017535  -0.000007
   45  C  6  X   -0.026447   0.000255  -0.211260  -0.122270   0.000206
   46  C  6  Y    0.058095   0.036788   0.049957   0.126568   0.045476
   47  C  6  Z    0.054464  -0.038865   0.046704   0.120452  -0.047664
   48  C  6  S   -0.015937   0.000130  -0.117933  -0.222957   0.000062
   49  C  6  X   -0.045474   0.000312  -0.234040  -0.186095   0.000015
   50  C  6  Y    0.054042   0.028649   0.065232   0.133760   0.014414
   51  C  6  Z    0.050621  -0.030222   0.061165   0.127227  -0.015399
   52  H  7  S   -0.113911   0.173400  -0.017061   0.018906  -0.001110
   53  H  7  S   -0.133858   0.195415  -0.013307   0.053224  -0.037378
   54  H  8  S   -0.116846  -0.171573  -0.015966   0.018749   0.001172
   55  H  8  S   -0.137184  -0.193224  -0.011979   0.052967   0.037101
   56  H  9  S   -0.085751   0.147840  -0.010004   0.059719  -0.063193
   57  H  9  S   -0.108980   0.167528  -0.024703   0.112823  -0.122429
   58  H 10  S   -0.088788  -0.146159  -0.009204   0.060110   0.062926
   59  H 10  S   -0.112339  -0.165439  -0.023757   0.113477   0.121990
   60  H 11  S    0.032990  -0.033517   0.010075   0.058937  -0.064821
   61  H 11  S    0.035485  -0.033773   0.029730   0.112247  -0.128980
   62  H 12  S    0.034150   0.033015   0.009484   0.059552   0.064333
   63  H 12  S    0.036706   0.033172   0.029095   0.113494   0.128206
   64  H 13  S   -0.016952   0.000352   0.101728  -0.022867   0.000495
   65  H 13  S   -0.020124   0.000426   0.127059  -0.009970   0.000835
   66  H 14  S    0.097233  -0.001625  -0.078659   0.017896   0.000077
   67  H 14  S    0.113831  -0.001998  -0.118487   0.041509   0.000186
   68  H 15  S   -0.069872  -0.080178   0.000168  -0.003328  -0.006417
   69  H 15  S   -0.096892  -0.112204  -0.014443   0.014095  -0.000177

                     26         27         28         29         30
                    0.1242     0.4089     0.4402     0.4564     0.4628
                     A          A          A          A          A   
    1  C  1  S    0.016731  -0.119154  -0.055425   0.060638   0.000808
    2  C  1  S   -0.013633   0.025732   0.002506  -0.014567  -0.000168
    3  C  1  X    0.010003   0.058491   0.066618  -0.065279  -0.000711
    4  C  1  Y   -0.006160   0.012493   0.100498   0.041224  -0.154396
    5  C  1  Z   -0.005836   0.012049   0.096765   0.037758   0.161448
    6  C  1  S   -0.114232   1.643820   0.902950  -0.833956  -0.011302
    7  C  1  X   -0.085837   0.293261   0.163485  -0.276241  -0.003449
    8  C  1  Y   -0.015370   0.077388   0.536424   0.212322  -0.670801
    9  C  1  Z   -0.014083   0.074776   0.516502   0.196106   0.703434
   10  H  2  S   -0.017928   0.007808  -0.025323   0.000697  -0.036759
   11  H  2  S    0.034228  -0.662323  -0.830889   0.137176  -1.064109
   12  C  3  S    0.027909  -0.020799  -0.059231   0.006250  -0.000334
   13  C  3  S   -0.009587  -0.002219   0.021675   0.002733   0.000115
   14  C  3  X    0.005008   0.008209  -0.006860   0.052446   0.000756
   15  C  3  Y    0.020523  -0.042523  -0.012007   0.004405  -0.097202
   16  C  3  Z    0.019789  -0.040881  -0.010810   0.003087   0.100406
   17  C  3  S   -0.331852   0.419664   0.751928  -0.102046   0.004578
   18  C  3  X   -0.047318  -0.204525   0.089431   0.377290   0.004774
   19  C  3  Y    0.003028  -0.217864  -0.144763  -0.075476  -0.315271
   20  C  3  Z    0.003199  -0.209540  -0.135982  -0.075960   0.320460
   21  C  4  S    0.085880  -0.048112   0.032752  -0.083772  -0.000690
   22  C  4  S   -0.045810   0.025505  -0.030569  -0.000546  -0.000057
   23  C  4  X    0.191822  -0.048559   0.105735  -0.023243  -0.000394
   24  C  4  Y    0.110252   0.019324   0.111952   0.056016  -0.086138
   25  C  4  Z    0.106076   0.018605   0.107082   0.051812   0.089484
   26  C  4  S   -0.811681   0.506273  -0.172551   1.257237   0.010945
   27  C  4  X    0.553929  -0.287625   0.325978   0.097433   0.000966
   28  C  4  Y    0.273676   0.153021   0.378301   0.220418  -0.333363
   29  C  4  Z    0.263816   0.147668   0.361021   0.203904   0.347849
   30  S  5  S    0.005284  -0.014625   0.023834   0.008611   0.000026
   31  S  5  S   -0.033420   0.093393  -0.149430  -0.048900  -0.000117
   32  S  5  X   -0.168097  -0.027670   0.000361   0.014748  -0.000013
   33  S  5  Y   -0.026049   0.068709  -0.075586  -0.004009   0.005427
   34  S  5  Z   -0.025752   0.065697  -0.072446  -0.003815  -0.005505
   35  S  5  S    0.027000  -0.041724   0.132749   0.142513   0.001031
   36  S  5  X    0.352498   0.053479   0.000228  -0.034357   0.000089
   37  S  5  Y    0.056098  -0.134106   0.146560   0.012974  -0.020212
   38  S  5  Z    0.055425  -0.128245   0.140507   0.012252   0.020863
   39  S  5  S    0.185321  -0.557458   0.758830   0.001969  -0.001646
   40  S  5  X    1.006797   0.274113   0.005964  -0.098318  -0.000441
   41  S  5  Y    0.143286  -0.460338   0.562552   0.000065   0.064263
   42  S  5  Z    0.141927  -0.439668   0.538997   0.001174  -0.068450
   43  C  6  S   -0.066930  -0.087163   0.071167  -0.102309  -0.000691
   44  C  6  S    0.027607   0.029150  -0.033870   0.009770   0.000145
   45  C  6  X    0.098553   0.090887  -0.097037  -0.081432  -0.000710
   46  C  6  Y   -0.078664  -0.042564   0.057270   0.078700  -0.034030
   47  C  6  Z   -0.074951  -0.040012   0.053432   0.073767   0.035634
   48  C  6  S    0.661344   0.984877  -0.737439   1.490729   0.009490
   49  C  6  X    0.251662   0.357880  -0.376840  -0.350343  -0.003794
   50  C  6  Y   -0.194852  -0.142419   0.209064   0.294441  -0.173376
   51  C  6  Z   -0.186542  -0.133009   0.193885   0.274839   0.180962
   52  H  7  S    0.001890  -0.009962   0.033710   0.005694   0.051042
   53  H  7  S    0.139573  -0.328673  -0.308273   0.018227   0.682261
   54  H  8  S    0.001656  -0.009898   0.033514   0.006441  -0.051408
   55  H  8  S    0.139020  -0.327504  -0.313216   0.026094  -0.692815
   56  H  9  S    0.016665   0.027262  -0.004736  -0.005621  -0.002910
   57  H  9  S    0.148078  -0.264590  -0.265179  -0.689238  -0.541870
   58  H 10  S    0.016963   0.027456  -0.004666  -0.005616   0.002635
   59  H 10  S    0.148853  -0.262756  -0.269502  -0.701431   0.532455
   60  H 11  S   -0.023313   0.005115  -0.014827   0.004718  -0.000358
   61  H 11  S   -0.160122  -0.259218   0.096307  -0.824086  -0.242893
   62  H 12  S   -0.023826   0.005148  -0.015091   0.004797   0.000600
   63  H 12  S   -0.162748  -0.257789   0.089949  -0.831801   0.234349
   64  H 13  S    0.035099   0.004182   0.008018  -0.016869  -0.000139
   65  H 13  S   -0.043778  -0.181919   0.182353  -0.670427  -0.005244
   66  H 14  S    0.027824  -0.011002   0.034429  -0.007063   0.000057
   67  H 14  S    0.154962  -0.871415  -0.019983   0.757792   0.013640
   68  H 15  S   -0.017996   0.007826  -0.025165   0.000427   0.036776
   69  H 15  S    0.034327  -0.660016  -0.829060   0.122797   1.066731

                     31         32         33         34         35
                    0.4768     0.4965     0.5048     0.5092     0.5321
                     A          A          A          A          A   
    1  C  1  S   -0.023035   0.076028   0.000164  -0.001187   0.001134
    2  C  1  S    0.007499  -0.013058  -0.000019  -0.003446  -0.000570
    3  C  1  X   -0.187738  -0.061640  -0.000690   0.104062   0.001906
    4  C  1  Y    0.119024  -0.001980   0.108451  -0.034057   0.059827
    5  C  1  Z    0.113935  -0.003284  -0.112746  -0.034255  -0.064676
    6  C  1  S    0.271392  -1.060192  -0.001726   0.025406  -0.014206
    7  C  1  X   -0.857047  -0.231235  -0.004634   0.567916   0.011248
    8  C  1  Y    0.496962   0.154742   0.644395  -0.239984   0.493678
    9  C  1  Z    0.473579   0.142163  -0.666988  -0.241960  -0.526437
   10  H  2  S   -0.010754  -0.001750   0.031518  -0.000055   0.010575
   11  H  2  S   -0.670826   0.338623   0.866495   0.206272   0.575947
   12  C  3  S    0.056024  -0.119747  -0.000796   0.023641   0.000917
   13  C  3  S   -0.011897   0.016830   0.000227  -0.009419  -0.000377
   14  C  3  X   -0.053302   0.028302   0.000542  -0.024786   0.002879
   15  C  3  Y    0.059075  -0.071924  -0.070259   0.075283  -0.145036
   16  C  3  Z    0.057621  -0.069390   0.071346   0.075248   0.153518
   17  C  3  S   -0.749893   1.750859   0.011132  -0.339654  -0.010899
   18  C  3  X   -0.227353   0.082817   0.002434  -0.121045   0.012868
   19  C  3  Y    0.134207  -0.423106  -0.391345   0.479155  -0.774258
   20  C  3  Z    0.134564  -0.406736   0.397281   0.474874   0.812697
   21  C  4  S   -0.012657   0.008479   0.000285  -0.008833  -0.004034
   22  C  4  S   -0.005096  -0.018166  -0.000078  -0.010155   0.001072
   23  C  4  X   -0.101986  -0.008830  -0.000021   0.047479   0.001386
   24  C  4  Y   -0.015809   0.010167  -0.072246   0.048720   0.004210
   25  C  4  Z   -0.015211   0.009340   0.075313   0.048123   0.002372
   26  C  4  S    0.241495   0.032596  -0.003088   0.149592   0.055404
   27  C  4  X   -0.391403  -0.189550   0.002946  -0.197000   0.004447
   28  C  4  Y    0.007764   0.150106  -0.293402   0.170990   0.060156
   29  C  4  Z    0.007377   0.142986   0.305343   0.168589  -0.033521
   30  S  5  S   -0.014417  -0.002159   0.000144   0.002764  -0.000169
   31  S  5  S    0.088518   0.015853  -0.000861  -0.016666   0.001050
   32  S  5  X    0.003007  -0.049758  -0.000170   0.002816  -0.001332
   33  S  5  Y    0.024724   0.024724  -0.002052  -0.016120   0.018310
   34  S  5  Z    0.023585   0.023660   0.001738  -0.015631  -0.018266
   35  S  5  S   -0.123377   0.037540   0.001796   0.026020  -0.001407
   36  S  5  X   -0.007036   0.127895   0.000301  -0.003994   0.002998
   37  S  5  Y   -0.038772  -0.046000  -0.006997   0.047213  -0.041167
   38  S  5  Z   -0.036827  -0.044033   0.007812   0.046135   0.041306
   39  S  5  S   -0.342244  -0.234187   0.001854   0.047006  -0.004537
   40  S  5  X   -0.025629   0.131116   0.002653  -0.109132   0.009873
   41  S  5  Y   -0.306026  -0.212035   0.138227  -0.059352  -0.105605
   42  S  5  Z   -0.293829  -0.202304  -0.137442  -0.061403   0.103320
   43  C  6  S    0.022475   0.018082  -0.000409   0.019984   0.002136
   44  C  6  S   -0.001664   0.001841   0.000059  -0.017329  -0.000058
   45  C  6  X    0.091889   0.127071  -0.003523   0.121771   0.003227
   46  C  6  Y   -0.022498   0.012276  -0.138930   0.130782   0.131392
   47  C  6  Z   -0.019952   0.012047   0.142043   0.130200  -0.145452
   48  C  6  S   -0.393356  -0.341339   0.006300  -0.202389  -0.034503
   49  C  6  X    0.464181   0.668822  -0.017476   0.695416   0.008113
   50  C  6  Y   -0.059666   0.146734  -0.683121   0.644974   0.641366
   51  C  6  Z   -0.048281   0.141881   0.697410   0.643892  -0.708353
   52  H  7  S    0.006071  -0.018043  -0.000123   0.015855   0.017449
   53  H  7  S    0.529902  -1.061102   0.480961   0.587279   1.043101
   54  H  8  S    0.005983  -0.017614   0.000046   0.015410  -0.017761
   55  H  8  S    0.523512  -1.058349  -0.499862   0.565983  -1.027936
   56  H  9  S   -0.024958  -0.016791  -0.017048  -0.019158  -0.056604
   57  H  9  S   -0.128769  -0.067464  -0.497515  -0.282851  -0.147260
   58  H 10  S   -0.024589  -0.016436   0.017492  -0.018683   0.055748
   59  H 10  S   -0.127638  -0.069747   0.500531  -0.274531   0.075066
   60  H 11  S    0.000249  -0.011312  -0.016176  -0.026856   0.028667
   61  H 11  S    0.193468  -0.039563  -0.978679  -0.602405   1.008253
   62  H 12  S    0.000562  -0.011694   0.016499  -0.026328  -0.026282
   63  H 12  S    0.200128  -0.049329   0.984278  -0.582595  -0.938341
   64  H 13  S    0.010507   0.041928  -0.000354   0.042817  -0.000845
   65  H 13  S    0.542564   0.948919  -0.017377   1.430204  -0.005301
   66  H 14  S    0.037464   0.001592   0.000150  -0.017472  -0.001498
   67  H 14  S    1.299129   0.737331   0.002480  -0.742174  -0.015135
   68  H 15  S   -0.011121  -0.002040  -0.031619  -0.000288  -0.009732
   69  H 15  S   -0.682924   0.327087  -0.866076   0.197337  -0.549555

                     36         37         38         39         40
                    0.5393     0.5568     0.5969     0.6239     0.9441
                     A          A          A          A          A   
    1  C  1  S    0.037047  -0.001086   0.081995  -0.001578   0.009625
    2  C  1  S   -0.017936   0.000389  -0.000762  -0.004172  -0.033955
    3  C  1  X    0.050963  -0.001356   0.077526   0.057745   0.044701
    4  C  1  Y   -0.021358   0.010985   0.094164   0.074281  -0.061261
    5  C  1  Z   -0.016887  -0.011180   0.090531   0.070232  -0.059591
    6  C  1  S   -0.472787   0.014691  -1.300686  -0.010727   0.038112
    7  C  1  X    0.338987  -0.010489   1.221273   0.093614   0.044263
    8  C  1  Y   -0.101934  -0.027491   0.688662   0.499969   0.144382
    9  C  1  Z   -0.061581   0.027475   0.658829   0.474715   0.138965
   10  H  2  S    0.008985   0.044688  -0.053596  -0.002387  -0.061229
   11  H  2  S    0.282661   0.091420  -0.156334  -0.389584  -0.000566
   12  C  3  S    0.018593   0.000256  -0.113990   0.068365  -0.011953
   13  C  3  S   -0.008779   0.000183  -0.001736  -0.008444  -0.006597
   14  C  3  X    0.081063  -0.002597   0.160519   0.221203   0.159800
   15  C  3  Y    0.040833   0.090880   0.159940  -0.047203   0.042623
   16  C  3  Z    0.024710  -0.096528   0.152368  -0.045302   0.040319
   17  C  3  S   -0.208149  -0.005383   1.763380  -1.083407   0.240192
   18  C  3  X    0.385479  -0.011982   0.691384   1.657449   0.005852
   19  C  3  Y    0.095302   0.647774   1.044327  -0.405857  -0.173928
   20  C  3  Z    0.009668  -0.680959   0.994214  -0.390032  -0.167826
   21  C  4  S   -0.107926   0.001681   0.045809  -0.073757   0.009230
   22  C  4  S    0.021841  -0.000507   0.012383  -0.007304  -0.015593
   23  C  4  X    0.056550  -0.000774  -0.083285   0.163362   0.034673
   24  C  4  Y    0.095189  -0.176675  -0.002674  -0.130166  -0.009877
   25  C  4  Z    0.098008   0.181093  -0.000960  -0.124826  -0.009095
   26  C  4  S    1.539296  -0.023345  -0.786745   1.168378  -0.107186
   27  C  4  X    0.171485  -0.001667  -0.730051   1.185774   0.269175
   28  C  4  Y    0.404438  -1.006354  -0.174788  -0.846290   0.226867
   29  C  4  Z    0.427388   1.035728  -0.158473  -0.811100   0.219128
   30  S  5  S   -0.001836   0.000127  -0.003732  -0.002018  -0.052796
   31  S  5  S    0.012152  -0.000801   0.026134   0.013496   0.278892
   32  S  5  X   -0.044589   0.001162  -0.037086  -0.030101  -0.008519
   33  S  5  Y    0.005176  -0.009986   0.031240   0.012089  -0.154411
   34  S  5  Z    0.006394   0.009569   0.029857   0.011356  -0.147150
   35  S  5  S   -0.000362   0.000820   0.009290  -0.000088  -1.597671
   36  S  5  X    0.100720  -0.002685   0.078370   0.102155   0.037206
   37  S  5  Y   -0.008029   0.019791  -0.071769  -0.033051   0.514575
   38  S  5  Z   -0.010840  -0.018852  -0.068540  -0.030989   0.490309
   39  S  5  S   -0.100479   0.004677  -0.364266  -0.110179   1.982405
   40  S  5  X    0.312573  -0.006833   0.107943  -0.252852  -0.053896
   41  S  5  Y   -0.059932   0.091829  -0.253581   0.013855  -0.159805
   42  S  5  Z   -0.066495  -0.089448  -0.243408   0.012822  -0.151330
   43  C  6  S    0.060654  -0.000866  -0.030022  -0.000793   0.005118
   44  C  6  S   -0.005085  -0.000105   0.012343   0.041218  -0.011003
   45  C  6  X    0.064057  -0.000660  -0.043719   0.144242  -0.042496
   46  C  6  Y   -0.116060   0.048375  -0.055403   0.037137   0.020808
   47  C  6  Z   -0.102631  -0.044442  -0.054215   0.036981   0.020204
   48  C  6  S   -0.966622   0.015819   0.393024  -0.214609  -0.060272
   49  C  6  X    0.092660   0.001452   0.035571   0.275597  -0.323894
   50  C  6  Y   -0.547852   0.337923  -0.178517   0.130699   0.180205
   51  C  6  Z   -0.487814  -0.325172  -0.176163   0.127177   0.170846
   52  H  7  S   -0.005871   0.001110   0.029310  -0.037305  -0.069916
   53  H  7  S    0.116968  -0.728690   0.235301  -0.021541  -0.137584
   54  H  8  S   -0.004676  -0.000828   0.029131  -0.037195  -0.070026
   55  H  8  S    0.220275   0.727365   0.240979  -0.023925  -0.136148
   56  H  9  S   -0.013902  -0.023749   0.002115   0.028353  -0.065888
   57  H  9  S   -1.036407  -1.312820   0.309927   0.404468  -0.066585
   58  H 10  S   -0.017715   0.024318   0.002216   0.028701  -0.065528
   59  H 10  S   -0.999235   1.341624   0.323041   0.408903  -0.065160
   60  H 11  S    0.031222   0.045074  -0.008690   0.038176  -0.057472
   61  H 11  S    0.856281   0.465335   0.051511  -0.110380  -0.092186
   62  H 12  S    0.032077  -0.046275  -0.009524   0.038134  -0.057175
   63  H 12  S    0.915312  -0.502230   0.045401  -0.112299  -0.090819
   64  H 13  S   -0.020227   0.000187   0.035788  -0.032655  -0.087557
   65  H 13  S    0.018255   0.003070  -0.354764   0.497282  -0.151038
   66  H 14  S   -0.041619   0.000992  -0.057883  -0.055227   0.025029
   67  H 14  S   -0.261911   0.004654   0.037710   0.096006  -0.028745
   68  H 15  S    0.008516  -0.044655  -0.054098  -0.002457  -0.061113
   69  H 15  S    0.321156  -0.103780  -0.155132  -0.397646  -0.001107

                     41         42         43         44         45
                    0.9843     0.9864     1.0354     1.0646     1.0714
                     A          A          A          A          A   
    1  C  1  S    0.011170   0.000176   0.005101   0.000034  -0.002690
    2  C  1  S   -0.014068  -0.000150  -0.026373  -0.000284   0.016787
    3  C  1  X   -0.161879  -0.002852   0.135057   0.002121  -0.112656
    4  C  1  Y   -0.066253   0.025322  -0.075985   0.349035   0.211416
    5  C  1  Z   -0.063644  -0.029196  -0.073515  -0.365990   0.198085
    6  C  1  S   -0.060032  -0.001081   0.092569   0.000800  -0.090174
    7  C  1  X    0.372009   0.006193  -0.175757  -0.002788   0.176394
    8  C  1  Y    0.190580  -0.072508   0.077786  -0.560812  -0.352019
    9  C  1  Z    0.181125   0.082254   0.076199   0.588855  -0.330071
   10  H  2  S   -0.046453  -0.013529  -0.089882  -0.458822   0.201296
   11  H  2  S   -0.020636  -0.027560   0.041617   0.060418  -0.020025
   12  C  3  S   -0.004405  -0.000127  -0.001096  -0.000045   0.008064
   13  C  3  S   -0.041030  -0.000560   0.021144   0.000325  -0.042968
   14  C  3  X    0.231514   0.003949   0.065058  -0.000104  -0.234178
   15  C  3  Y    0.099620  -0.008920  -0.030336   0.216423   0.029496
   16  C  3  Z    0.094702   0.011628  -0.028671  -0.225515   0.026708
   17  C  3  S    0.397428   0.007256  -0.259553  -0.002366   0.110919
   18  C  3  X    0.081146   0.000353  -0.093356   0.000682   0.196405
   19  C  3  Y   -0.143406   0.139762  -0.052718  -0.239470  -0.063813
   20  C  3  Z   -0.133402  -0.149981  -0.052805   0.248469  -0.060135
   21  C  4  S   -0.014147  -0.000130   0.004882  -0.000054  -0.005636
   22  C  4  S    0.149399   0.002319   0.069960  -0.001011   0.054594
   23  C  4  X   -0.044893  -0.001354  -0.318962  -0.003635   0.483993
   24  C  4  Y   -0.099443  -0.015663   0.043709   0.087086  -0.050644
   25  C  4  Z   -0.096842   0.013472   0.042631  -0.092584  -0.048152
   26  C  4  S   -0.468038  -0.008835  -0.504717   0.003839  -0.044344
   27  C  4  X    0.316869   0.005896   0.787519   0.001484  -0.241413
   28  C  4  Y    0.295739  -0.024961   0.168999  -0.156315   0.165394
   29  C  4  Z    0.284262   0.036247   0.164777   0.162407   0.160171
   30  S  5  S   -0.003584  -0.000169  -0.029336   0.000156  -0.019158
   31  S  5  S    0.013922   0.000787   0.138283  -0.000788   0.096758
   32  S  5  X    0.317877   0.005502  -0.054536  -0.000177  -0.035029
   33  S  5  Y    0.041177   0.243679   0.187985   0.011981   0.087327
   34  S  5  Z    0.047771  -0.253059   0.180613  -0.013410   0.083215
   35  S  5  S   -0.195075  -0.006957  -1.187498   0.005881  -0.715132
   36  S  5  X   -1.152447  -0.019866   0.196680   0.000861   0.118526
   37  S  5  Y   -0.149914  -0.864837  -0.695318  -0.048241  -0.331206
   38  S  5  Z   -0.173270   0.897897  -0.668001   0.054134  -0.315568
   39  S  5  S    0.461560   0.013171   2.144289  -0.008082   0.980526
   40  S  5  X    1.493107   0.024546  -0.216881  -0.000451  -0.255780
   41  S  5  Y    0.284733   0.807106   1.277169   0.074442   0.419791
   42  S  5  Z    0.302017  -0.830731   1.224660  -0.084539   0.398709
   43  C  6  S    0.016100   0.000232  -0.005088  -0.000019  -0.004620
   44  C  6  S   -0.086032  -0.000944   0.122449  -0.000019   0.024078
   45  C  6  X    0.014866   0.000530   0.280149   0.000003  -0.271360
   46  C  6  Y    0.014376  -0.042368   0.037080  -0.054093  -0.170688
   47  C  6  Z    0.014025   0.044563   0.039059   0.057428  -0.164826
   48  C  6  S    0.112304   0.000237  -0.587085   0.001080  -0.157920
   49  C  6  X    0.011950  -0.001596  -0.814818   0.001801   0.125464
   50  C  6  Y   -0.059215   0.031849   0.163799   0.073968   0.439709
   51  C  6  Z   -0.055869  -0.033969   0.152296  -0.080822   0.422054
   52  H  7  S   -0.138215  -0.084447   0.076425   0.384835  -0.099253
   53  H  7  S   -0.100232  -0.111391  -0.023179  -0.139823   0.024953
   54  H  8  S   -0.141608   0.080284   0.076966  -0.383530  -0.102830
   55  H  8  S   -0.102496   0.106677  -0.022065   0.139625   0.027036
   56  H  9  S    0.014609   0.100921  -0.041938  -0.193193  -0.080764
   57  H  9  S   -0.142122   0.014897  -0.166941   0.006396  -0.081203
   58  H 10  S    0.018498  -0.100031  -0.041845   0.191270  -0.079640
   59  H 10  S   -0.141989  -0.019420  -0.164939  -0.004854  -0.080561
   60  H 11  S   -0.056278   0.109124  -0.009625   0.057841  -0.213889
   61  H 11  S    0.070978   0.024161  -0.186916  -0.009292  -0.089236
   62  H 12  S   -0.054303  -0.109864  -0.008505  -0.055513  -0.216632
   63  H 12  S    0.072914  -0.022712  -0.184581   0.010250  -0.089159
   64  H 13  S    0.047256  -0.000457  -0.142577  -0.001178   0.278397
   65  H 13  S    0.183789   0.001864  -0.124016   0.000798  -0.157058
   66  H 14  S   -0.111820  -0.001358   0.192310   0.004221  -0.311458
   67  H 14  S    0.010406   0.000184  -0.101992  -0.000723   0.077695
   68  H 15  S   -0.045276   0.011656  -0.090308   0.454700   0.208306
   69  H 15  S   -0.022159   0.027028   0.042118  -0.059804  -0.020604

                     46         47         48         49         50
                    1.0950     1.1678     1.1715     1.2149     1.2260
                     A          A          A          A          A   
    1  C  1  S   -0.007509  -0.001314  -0.048092   0.002746   0.012872
    2  C  1  S    0.052248   0.002612   0.096025   0.039037   0.024958
    3  C  1  X   -0.524404  -0.018660  -0.599802  -0.069678  -0.012558
    4  C  1  Y    0.115832   0.186056  -0.538680   0.092017   0.141690
    5  C  1  Z    0.111126  -0.222924  -0.503324   0.090859   0.136982
    6  C  1  S   -0.086052   0.006585   0.194709  -0.224383  -0.244121
    7  C  1  X    0.822237   0.021818   0.671166   0.163662   0.076692
    8  C  1  Y   -0.320917  -0.348578   0.782787  -0.209577  -0.307475
    9  C  1  Z   -0.307337   0.404653   0.727373  -0.205317  -0.296311
   10  H  2  S    0.144722  -0.148903  -0.268649   0.024185   0.055947
   11  H  2  S    0.018236  -0.054151  -0.153929   0.085379   0.118768
   12  C  3  S   -0.018151   0.001629   0.061274   0.020083   0.023631
   13  C  3  S    0.017134  -0.004710  -0.168984  -0.036145  -0.047951
   14  C  3  X   -0.005153   0.002098   0.001816   0.260125   0.475963
   15  C  3  Y   -0.038659  -0.050561  -0.083856  -0.357126  -0.429548
   16  C  3  Z   -0.038297   0.048432  -0.084304  -0.345067  -0.414010
   17  C  3  S    0.258809   0.012227   0.396039  -0.081724  -0.131384
   18  C  3  X   -0.275842  -0.000332   0.121657  -0.346798  -0.568388
   19  C  3  Y    0.325439   0.166222   0.056955   0.668155   0.769510
   20  C  3  Z    0.314720  -0.169958   0.065212   0.645050   0.742345
   21  C  4  S    0.039500  -0.000389  -0.018534  -0.019063  -0.029502
   22  C  4  S    0.070396   0.000553   0.017936   0.083065   0.102719
   23  C  4  X    0.053933   0.006952   0.252766   0.045081   0.180360
   24  C  4  Y    0.355270  -0.195525  -0.040983   0.036013   0.109509
   25  C  4  Z    0.339686   0.201657  -0.051572   0.033338   0.106374
   26  C  4  S   -0.753095   0.001419   0.179142  -0.316807  -0.502934
   27  C  4  X   -0.077970  -0.004169  -0.163870  -0.236316  -0.296606
   28  C  4  Y   -0.370720   0.194985  -0.029977  -0.145375  -0.151282
   29  C  4  Z   -0.352758  -0.203674  -0.015298  -0.136745  -0.148312
   30  S  5  S   -0.007399   0.000049   0.002042   0.004313  -0.007736
   31  S  5  S    0.036038  -0.000264  -0.010236  -0.025276   0.046102
   32  S  5  X   -0.018038  -0.001695  -0.064740   0.028298   0.036727
   33  S  5  Y   -0.006624   0.016234   0.018015  -0.026379   0.012567
   34  S  5  Z   -0.006234  -0.015833   0.017910  -0.025388   0.012218
   35  S  5  S   -0.318232   0.000992   0.059520   0.163265  -0.229859
   36  S  5  X    0.029848   0.006489   0.251710  -0.151638  -0.108896
   37  S  5  Y   -0.014912  -0.075041  -0.069294   0.139403  -0.081993
   38  S  5  Z   -0.014861   0.073749  -0.069445   0.133939  -0.079120
   39  S  5  S    0.436775  -0.001798  -0.122324   0.043555  -0.119874
   40  S  5  X   -0.050462  -0.009398  -0.409543  -0.126688   0.214312
   41  S  5  Y    0.247640   0.209523   0.016021  -0.155635  -0.026238
   42  S  5  Z    0.238001  -0.214502   0.024284  -0.152620  -0.023097
   43  C  6  S    0.000293  -0.000004  -0.000720  -0.029702   0.030676
   44  C  6  S    0.019071   0.000553   0.017821  -0.049172   0.026036
   45  C  6  X    0.289409   0.000282  -0.137874   0.416291  -0.457817
   46  C  6  Y    0.154895   0.484439  -0.055638  -0.464722   0.254815
   47  C  6  Z    0.152975  -0.505182  -0.027963  -0.444879   0.242697
   48  C  6  S   -0.120704  -0.002569  -0.081039   0.364079  -0.266171
   49  C  6  X   -0.559865  -0.003359   0.170880  -0.454032   0.663595
   50  C  6  Y   -0.208128  -0.878524   0.153692   0.703670  -0.361211
   51  C  6  Z   -0.206519   0.920401   0.100557   0.676219  -0.344099
   52  H  7  S   -0.028037  -0.070895   0.072285   0.195208   0.203641
   53  H  7  S    0.061806  -0.051538   0.098376   0.140918   0.156259
   54  H  8  S   -0.031596   0.073933   0.067159   0.193188   0.202440
   55  H  8  S    0.062884   0.056751   0.094896   0.141007   0.155611
   56  H  9  S    0.314012   0.147837  -0.012086   0.045588  -0.021537
   57  H  9  S    0.054826  -0.075951  -0.016051   0.020224   0.005063
   58  H 10  S    0.317568  -0.146465  -0.001907   0.048300  -0.022370
   59  H 10  S    0.055432   0.075333  -0.020374   0.020217   0.004121
   60  H 11  S    0.098449  -0.465774  -0.029847  -0.324082   0.182749
   61  H 11  S   -0.028800  -0.059011  -0.022711  -0.081523   0.081828
   62  H 12  S    0.098503   0.461794  -0.055588  -0.323292   0.181989
   63  H 12  S   -0.027904   0.057157  -0.026222  -0.081168   0.081261
   64  H 13  S   -0.280249   0.004684   0.107528  -0.037894   0.259316
   65  H 13  S   -0.034032  -0.001056  -0.027755  -0.031543   0.056269
   66  H 14  S   -0.375949  -0.001037  -0.033369   0.123938   0.186279
   67  H 14  S   -0.047632  -0.002167  -0.066161  -0.128009  -0.130876
   68  H 15  S    0.148655   0.133344  -0.277024   0.023753   0.056684
   69  H 15  S    0.018629   0.045476  -0.157316   0.084928   0.118616

                     51         52         53         54         55
                    1.2308     1.3330     1.3864     1.4138     1.4762
                     A          A          A          A          A   
    1  C  1  S   -0.000149  -0.054945  -0.020949  -0.000094   0.055428
    2  C  1  S    0.000613   0.051606  -0.001421  -0.000145  -0.046945
    3  C  1  X   -0.003268  -0.040025  -0.195842  -0.000883  -0.211259
    4  C  1  Y    0.335136   0.086103   0.195260  -0.379222  -0.095962
    5  C  1  Z   -0.350303   0.085248   0.181402   0.397812  -0.092835
    6  C  1  S   -0.001768  -0.446690   0.190377   0.003731  -0.501716
    7  C  1  X    0.005516   0.574382   0.485542   0.001150   0.382196
    8  C  1  Y   -0.650254   0.096835  -0.494614   0.767122   0.195502
    9  C  1  Z    0.680034   0.085684  -0.461254  -0.808140   0.187507
   10  H  2  S   -0.181676  -0.295854  -0.055006  -0.274050   0.397512
   11  H  2  S   -0.146423   0.063160   0.162531   0.687835  -0.237762
   12  C  3  S    0.000220  -0.006793   0.020841   0.000168   0.032760
   13  C  3  S   -0.000300  -0.064365  -0.098723  -0.000745  -0.009116
   14  C  3  X   -0.001308  -0.691502   0.123727   0.000375  -0.456028
   15  C  3  Y   -0.238321  -0.412244  -0.120051   0.521100   0.069678
   16  C  3  Z    0.245189  -0.396796  -0.105867  -0.542218   0.065790
   17  C  3  S   -0.000412   0.014578   0.610198   0.005385   0.281675
   18  C  3  X    0.001680   1.169527  -0.805027  -0.005754   0.987951
   19  C  3  Y    0.386000   0.580986   0.304523  -1.207133   0.222630
   20  C  3  Z   -0.395058   0.560076   0.270177   1.256907   0.212194
   21  C  4  S    0.000012  -0.000156  -0.018216  -0.000025   0.023119
   22  C  4  S    0.000186  -0.020558   0.097244   0.000903   0.095330
[...]
    2             0.023762   0.032377   0.000366   0.000282   0.000082
    3             0.295089   0.227031   0.115018   0.004911   0.000708
    4             0.249824   0.190033   0.206104   0.181812   0.007478
    5             0.037419   0.007374   0.279391   0.524241   0.919414
    6             0.030787   0.009046   0.215883   0.191467   0.005951
    7             0.060887   0.130521   0.000862   0.004055   0.000895
    8             0.063962   0.127630   0.000739   0.004006   0.000872
    9             0.040072   0.102474   0.000757   0.020980   0.015782
   10             0.042739   0.099992   0.000667   0.021216   0.015657
   11             0.004329   0.004243   0.001147   0.019337   0.016542
   12             0.004636   0.004105   0.001076   0.019724   0.016320
   13             0.001253   0.000001   0.045766   0.000786   0.000001
   14             0.039171   0.000011   0.030056   0.002120   0.000000
   15             0.025039   0.031235   0.000326   0.000281   0.000081

                     26

                  1.000000

    1             0.003359
    2             0.001366
    3            -0.003287
    4             0.234703
    5             0.582561
    6             0.087104
    7             0.011991
    8             0.011888
    9             0.013844
   10             0.013936
   11             0.013565
   12             0.013903
   13             0.004615
   14             0.009073
   15             0.001377

     ATOMIC MULLIKEN POPULATION IN EACH MOLECULAR ORBITAL
         BETA ORBITALS

                      1          2          3          4          5

                  1.000000   1.000000   1.000000   1.000000   1.000000

    1            -0.000000   0.993614   0.002332   0.000000   0.000048
    2             0.000000   0.001429   0.000007   0.000000  -0.000002
    3            -0.000002   0.002097   0.992207   0.000006   0.002092
    4            -0.000005   0.000046   0.002529  -0.000001   0.994105
    5             1.000018  -0.000000  -0.000001   0.001082   0.000990
    6            -0.000008   0.000000   0.000006   0.994941  -0.000006
    7            -0.000000   0.000007   0.001449   0.000000   0.000007
    8            -0.000000   0.000007   0.001448   0.000000   0.000007
    9            -0.000001  -0.000002   0.000008  -0.000001   0.001381
   10            -0.000001  -0.000002   0.000008  -0.000001   0.001382
   11            -0.000001  -0.000000   0.000000   0.001320  -0.000001
   12            -0.000001  -0.000000   0.000000   0.001321  -0.000001
   13            -0.000001  -0.000000  -0.000000   0.001332   0.000000
   14            -0.000000   0.001374   0.000000  -0.000000   0.000001
   15             0.000000   0.001429   0.000007   0.000000  -0.000002

                      6          7          8          9         10

                  1.000000   1.000000   1.000000   1.000000   1.000000

    1             0.000000  -0.000000  -0.000000   0.000000   0.339351
    2            -0.000000  -0.000000  -0.000000  -0.000000   0.019514
    3             0.000095   0.000001  -0.000001   0.000114   0.413667
    4             0.000675   0.000028   0.000012  -0.000326   0.126545
    5             0.998222   0.999864   0.999949   1.000073   0.012691
    6             0.000798   0.000031   0.000021   0.000058   0.003814
    7             0.000003   0.000000   0.000001   0.000003   0.016775
    8             0.000003   0.000000   0.000001   0.000003   0.016791
    9             0.000041   0.000016   0.000005   0.000010   0.006857
   10             0.000041   0.000016   0.000005   0.000010   0.006878
   11             0.000040   0.000020   0.000004   0.000008   0.000191
   12             0.000040   0.000020   0.000004   0.000008   0.000192
   13             0.000043   0.000004   0.000000   0.000038  -0.000020
   14            -0.000000   0.000000  -0.000000   0.000000   0.017221
   15            -0.000000  -0.000000  -0.000000  -0.000000   0.019531

                     11         12         13         14         15

                  1.000000   1.000000   1.000000   1.000000   1.000000

    1             0.108075   0.235996   0.108835   0.016591   0.260867
    2             0.008985   0.026609   0.022883   0.002801   0.089289
    3             0.007433   0.109019   0.257661   0.077798   0.265115
    4             0.124192   0.194360   0.147433   0.191834   0.077956
    5             0.244940   0.008118   0.137434   0.411692   0.004310
    6             0.385579   0.240657   0.094837   0.102007   0.001106
    7             0.000001   0.008301   0.049382   0.016879   0.077110
    8             0.000001   0.008317   0.049541   0.016837   0.077264
    9             0.008080   0.015147   0.024751   0.050038   0.028743
   10             0.008096   0.015095   0.024781   0.050127   0.028588
   11             0.028540   0.024038   0.014447   0.020756   0.000477
   12             0.028556   0.023980   0.014371   0.020813   0.000481
   13             0.027100   0.028014   0.019177   0.014689   0.000000
   14             0.011447   0.035786   0.011504   0.004283   0.000000
   15             0.008976   0.026563   0.022961   0.002856   0.088694

                     16         17         18         19         20

                  1.000000   1.000000   1.000000   1.000000   1.000000

    1             0.424824   0.090729   0.029663   0.168676   0.360241
    2             0.044839   0.039412   0.006612   0.056442   0.050941
    3             0.070703   0.006640   0.010558   0.080915   0.330748
    4             0.060960   0.093753   0.014370   0.116477   0.074641
    5             0.022433   0.045765   0.020463   0.001042   0.024833
    6             0.017841   0.320279   0.475146   0.180845   0.047141
    7             0.004738   0.002470   0.002810   0.016918   0.034270
    8             0.004681   0.002480   0.002817   0.036544   0.014547
    9             0.015513   0.039882   0.001363   0.038793   0.013079
   10             0.015376   0.039886   0.001339   0.050845   0.000943
   11             0.003410   0.139385   0.071287   0.079768   0.002198
   12             0.003542   0.140103   0.069941   0.078221   0.003964
   13             0.004227   0.000002   0.274537   0.000691   0.018481
   14             0.261503   0.000002   0.012393   0.000388   0.010160
   15             0.045409   0.039211   0.006702   0.093438   0.013813

                     21         22         23         24         25

                  1.000000   1.000000   1.000000   1.000000   1.000000

    1             0.059179   0.027109   0.043235   0.009037   0.000198
    2             0.017728   0.027957   0.000134   0.000268   0.000075
    3             0.317237   0.207615   0.061158   0.002571   0.000602
    4             0.274065   0.205236   0.139250   0.239701   0.006755
    5             0.022011   0.008793   0.324105   0.636729   0.918323
    6             0.024867   0.010828   0.378497   0.043778   0.005589
    7             0.050576   0.120455   0.000268   0.002131   0.000882
    8             0.055824   0.115292   0.000245   0.002091   0.000859
    9             0.048070   0.122898   0.000059   0.016781   0.016953
   10             0.053752   0.117422   0.000046   0.016938   0.016800
   11             0.004153   0.005194   0.007099   0.009464   0.016555
   12             0.004626   0.004914   0.007019   0.009713   0.016333
   13             0.003939   0.000001   0.027317   0.007486   0.000001
   14             0.044489   0.000023   0.011444   0.003047   0.000000
   15             0.019485   0.026264   0.000124   0.000265   0.000075

     ATOMIC SPIN POPULATION (ALPHA MINUS BETA)
       ATOM         MULL.POP.                    LOW.POP.
    1 C            -0.000189                     0.003389
    2 H             0.000604                     0.000639
    3 C            -0.051017                    -0.008372
    4 C             0.406206                     0.415940
    5 S             0.521702                     0.427068
    6 C             0.115529                     0.160356
    7 H             0.016859                     0.009790
    8 H             0.016694                     0.009673
    9 H            -0.021767                    -0.014478
   10 H            -0.021579                    -0.014368
   11 H             0.007059                     0.002414
   12 H             0.007594                     0.002761
   13 H            -0.012983                    -0.006134
   14 H             0.014679                     0.010675
   15 H             0.000608                     0.000647


          ********* ALL ELECTRONS ********

               ----- POPULATIONS IN EACH AO -----
                             MULLIKEN      LOWDIN
              1  C  1  S      1.98834     1.97663
              2  C  1  S      0.35375     0.41848
              3  C  1  X      0.53251     0.50796
              4  C  1  Y      0.53234     0.50044
              5  C  1  Z      0.53220     0.50008
              6  C  1  S      1.10787     0.58477
              7  C  1  X      0.46267     0.57285
              8  C  1  Y      0.52272     0.59767
              9  C  1  Z      0.52462     0.59808
             10  H  2  S      0.46978     0.47412
             11  H  2  S      0.36267     0.45658
             12  C  3  S      1.98931     1.97638
             13  C  3  S      0.34585     0.41705
             14  C  3  X      0.52168     0.50586
             15  C  3  Y      0.53263     0.50377
             16  C  3  Z      0.53331     0.50423
             17  C  3  S      1.10343     0.57182
             18  C  3  X      0.35239     0.52777
             19  C  3  Y      0.49875     0.57563
             20  C  3  Z      0.50372     0.57688
             21  C  4  S      1.98938     1.97758
             22  C  4  S      0.34382     0.46248
             23  C  4  X      0.51490     0.52714
             24  C  4  Y      0.50822     0.48671
             25  C  4  Z      0.50890     0.48647
             26  C  4  S      1.13646     0.63868
             27  C  4  X      0.53006     0.63145
             28  C  4  Y      0.52185     0.60543
             29  C  4  Z      0.52180     0.60448
             30  S  5  S      1.99863     1.99861
             31  S  5  S      1.96263     1.95293
             32  S  5  X      1.96032     1.93634
             33  S  5  Y      1.96291     1.94007
             34  S  5  Z      1.96335     1.94093
             35  S  5  S      0.93678     0.89406
             36  S  5  X      0.72689     0.72840
             37  S  5  Y      0.77638     0.78964
             38  S  5  Z      0.78932     0.80359
             39  S  5  S      0.95709     0.86426
             40  S  5  X      0.64535     0.70588
             41  S  5  Y      0.75150     0.85072
             42  S  5  Z      0.77830     0.86785
             43  C  6  S      1.98840     1.97765
             44  C  6  S      0.34786     0.45173
             45  C  6  X      0.49945     0.48672
             46  C  6  Y      0.51948     0.49108
             47  C  6  Z      0.52049     0.49128
             48  C  6  S      1.18533     0.65449
             49  C  6  X      0.62457     0.66928
             50  C  6  Y      0.54460     0.61915
             51  C  6  Z      0.54266     0.61755
             52  H  7  S      0.46852     0.47949
             53  H  7  S      0.35921     0.45398
             54  H  8  S      0.46861     0.47952
             55  H  8  S      0.35929     0.45398
             56  H  9  S      0.46966     0.48052
             57  H  9  S      0.40550     0.47979
             58  H 10  S      0.46969     0.48054
             59  H 10  S      0.40547     0.47979
             60  H 11  S      0.47158     0.47463
             61  H 11  S      0.39218     0.47414
             62  H 12  S      0.47157     0.47461
             63  H 12  S      0.39234     0.47427
             64  H 13  S      0.47175     0.47474
             65  H 13  S      0.36937     0.45718
             66  H 14  S      0.47423     0.48080
             67  H 14  S      0.39058     0.47182
             68  H 15  S      0.46979     0.47412
             69  H 15  S      0.36242     0.45645

          ----- MULLIKEN ATOMIC OVERLAP POPULATIONS -----
          (OFF-DIAGONAL ELEMENTS NEED TO BE MULTIPLIED BY 2)

             1           2           3           4           5

    1    5.3940050
    2    0.3712006   0.5569387
    3    0.2471898  -0.0443234   5.5101639
    4   -0.0829289   0.0006876   0.3079851   6.7036535
    5    0.0064540   0.0002548  -0.1274952  -0.6950512  17.1765920
    6   -0.0000130   0.0000019   0.0009301  -0.1744981  -0.1393890
    7   -0.0482009   0.0034132   0.3523402  -0.0617320   0.0309797
    8   -0.0481270  -0.0013092   0.3525527  -0.0614976   0.0307361
    9   -0.0009927   0.0032150  -0.0584352   0.3045700  -0.0015388
   10   -0.0010765   0.0002372  -0.0583993   0.3040850  -0.0013143
   11   -0.0000013  -0.0000005   0.0000171   0.0106960  -0.0240157
   12   -0.0000015  -0.0000001   0.0000199   0.0109740  -0.0237771
   13    0.0000001  -0.0000000  -0.0000161   0.0022884  -0.0236573
   14    0.3482298  -0.0293549  -0.0571366   0.0055100   0.0004210
   15    0.3712779  -0.0285099  -0.0443124   0.0006463   0.0002592

             6           7           8           9          10

    6    6.1312159
    7    0.0001957   0.5662633
    8    0.0001913  -0.0207986   0.5662403
    9    0.0056445   0.0047346   0.0001986   0.6460242
   10    0.0056748   0.0002532   0.0047281  -0.0292120   0.6461797
   11    0.2938642  -0.0000031  -0.0000184   0.0016227  -0.0010271
   12    0.2925719  -0.0000194  -0.0000033  -0.0010389   0.0016296
   13    0.3564460  -0.0000006  -0.0000005  -0.0000551  -0.0000541
   14    0.0000004   0.0015762   0.0015908   0.0001875   0.0001924
   15    0.0000019  -0.0012742   0.0034090   0.0002360   0.0032644

            11          12          13          14          15

   11    0.6354437
   12   -0.0255840   0.6361951
   13   -0.0272269  -0.0270530   0.5604563
   14   -0.0000000  -0.0000000  -0.0000000   0.6229289
   15   -0.0000001  -0.0000005  -0.0000000  -0.0293343   0.5565463

          TOTAL MULLIKEN AND LOWDIN ATOMIC POPULATIONS
       ATOM         MULL.POP.    CHARGE          LOW.POP.     CHARGE
    1 C             6.557015   -0.557015         6.256945   -0.256945
    2 H             0.832451    0.167549         0.930699    0.069301
    3 C             6.381081   -0.381081         6.159391   -0.159391
    4 C             6.575388   -0.575388         6.420421   -0.420421
    5 S            16.209458   -0.209458        16.273253   -0.273253
    6 C             6.772839   -0.772839         6.458926   -0.458926
    7 H             0.827727    0.172273         0.933470    0.066530
    8 H             0.827892    0.172108         0.933501    0.066499
    9 H             0.875160    0.124840         0.960309    0.039691
   10 H             0.875161    0.124839         0.960328    0.039672
   11 H             0.863766    0.136234         0.948772    0.051228
   12 H             0.863913    0.136087         0.948876    0.051124
   13 H             0.841127    0.158873         0.931920    0.068080
   14 H             0.864811    0.135189         0.952613    0.047387
   15 H             0.832210    0.167790         0.930575    0.069425

          -------------------------------
          BOND ORDER AND VALENCE ANALYSIS     BOND ORDER THRESHOLD=0.050
          -------------------------------

                   BOND                       BOND                       BOND
  ATOM PAIR DIST  ORDER      ATOM PAIR DIST  ORDER      ATOM PAIR DIST  ORDER
    1   2  1.096  0.937        1   3  1.546  0.908        1  14  1.096  0.933
    1  15  1.096  0.937        3   4  1.536  0.918        3   7  1.096  0.922
    3   8  1.096  0.922        4   5  1.910  0.463        4   9  1.094  0.935
    4  10  1.094  0.935        5   6  1.901  0.720        6  11  1.091  0.929
    6  12  1.091  0.928        6  13  1.091  0.944

                       TOTAL       BONDED        FREE
      ATOM            VALENCE     VALENCE     VALENCE
    1 C                 3.695       3.695       0.000
    2 H                 0.929       0.929       0.000
    3 C                 3.606       3.605       0.002
    4 C                 3.414       3.281       0.134
    5 S                 1.626       1.212       0.414
    6 C                 3.585       3.568       0.017
    7 H                 0.933       0.932       0.000
    8 H                 0.933       0.932       0.000
    9 H                 0.934       0.934       0.001
   10 H                 0.934       0.934       0.001
   11 H                 0.930       0.930       0.000
   12 H                 0.930       0.930       0.000
   13 H                 0.937       0.937       0.000
   14 H                 0.931       0.931       0.000
   15 H                 0.929       0.929       0.000

          -----------------------------------------
          ATOMIC SPIN DENSITY AT THE NUCLEUS (A.U.)
          -----------------------------------------
                            SPIN DENS    ALPHA DENS     BETA DENS
    1  C            6.0     0.0099377      47.00562      46.99568
    2  H            1.0     0.0002038       0.18438       0.18418
    3  C            6.0     0.0116447      47.04468      47.03304
    4  C            6.0     0.3837973      47.31010      46.92630
    5  S           16.0     0.0774116     995.77431     995.69689
    6  C            6.0     0.2030252      47.15785      46.95483
    7  H            1.0     0.0003735       0.18451       0.18413
    8  H            1.0     0.0003660       0.18454       0.18417
    9  H            1.0    -0.0090871       0.18051       0.18960
   10  H            1.0    -0.0090563       0.18054       0.18960
   11  H            1.0    -0.0017169       0.18428       0.18600
   12  H            1.0    -0.0016468       0.18432       0.18596
   13  H            1.0    -0.0015703       0.18424       0.18581
   14  H            1.0     0.0021526       0.18740       0.18524
   15  H            1.0     0.0002056       0.18439       0.18418

          ---------------------
          ELECTROSTATIC MOMENTS
          ---------------------

 POINT   1           X           Y           Z (BOHR)    CHARGE
                -3.119965   -0.170549    0.028319       -1.00 (A.U.)
         DX          DY          DZ         /D/  (DEBYE)
     3.331159    1.768291    1.693592    4.134214
 ...... END OF PROPERTY EVALUATION ......
 CPU     0: STEP CPU TIME=     0.02 TOTAL CPU TIME=          0.9 (      0.0 MIN)
 TOTAL WALL CLOCK TIME=          1.1 SECONDS, CPU UTILIZATION IS    81.48%
               580000  WORDS OF DYNAMIC MEMORY USED
 EXECUTION OF GAMESS TERMINATED NORMALLY Sun May 17 16:00:18 2020
 DDI: 263640 bytes (0.3 MB / 0 MWords) used by master data server.
Note: The following floating-point exceptions are signalling: IEEE_DENORMALNote: The following floating-point exceptions are signalling: IEEE_DENORMALNote: The following floating-point exceptions are signalling: IEEE_DENORMALNote: The following floating-point exceptions are signalling:
 ----------------------------------------
 CPU timing information for all processes
 ========================================
 0: 0.774 + 0.115 = 0.889
 1: 0.734 + 0.08 = 0.742
 2: 0.735 + 0.16 = 0.752
 3: 0.781 + 0.05 = 0.786
 4: 0.744 + 0.12 = 0.756
 5: 0.733 + 0.20 = 0.753
 ----------------------------------------



 IEEE_DENORMALNote: The following floating-point exceptions are signalling: IEEE_DENORMALNote: The following floating-point exceptions are signalling: IEEE_DENORMAL


 ddikick.x: exited gracefully.
unset echo
----- accounting info -----
Files used on the master node pietdev were:
-rwxr-xr-x 1 piet piet      984 mei 17 16:00 /home/piet/scr/methionine_fukui_acid.F05*
-rw-r--r-- 1 piet piet 68812800 mei 17 16:00 /home/piet/scr/methionine_fukui_acid.F10
ls: No match.
ls: No match.
ls: No match.
zo 17 mei 2020 16:00:21 CEST
0.110u 0.035s 0:04.23 3.3%	0+0k 0+8io 0pf+0w
