----- GAMESS execution script 'rungms' -----
This job is running on host pietdev
under operating system Linux at zo 17 mei 2020 15:40:12 CEST
Available scratch disk space (Kbyte units) at beginning of the job is
Filesystem     1K-blocks     Used Available Use% Mounted on
/dev/sda2      244568380 30380208 201695116  14% /
GAMESS temporary binary files will be written to /home/piet/scr
GAMESS supplementary output files will be written to /home/piet/gamess/scr
Copying input file lysine_1__fukui_base.inp to your run's scratch directory...
cp lysine_1__fukui_base.inp /home/piet/scr/lysine_1__fukui_base.F05
unset echo
 
Assuming a single but multicore node.
 
/home/piet/gamess/ddikick.x /home/piet/gamess/gamess.03.x lysine_1__fukui_base -ddi 1 6 pietdev:cpus=6 -scr /home/piet/scr

 Distributed Data Interface kickoff program.
 Initiating 6 compute processes on 1 nodes to run the following command:
 /home/piet/gamess/gamess.03.x lysine_1__fukui_base 

          ******************************************************
          *         GAMESS VERSION = 30 SEP 2019 (R2)          *
          *             FROM IOWA STATE UNIVERSITY             *
          * M.W.SCHMIDT, K.K.BALDRIDGE, J.A.BOATZ, S.T.ELBERT, *
          *   M.S.GORDON, J.H.JENSEN, S.KOSEKI, N.MATSUNAGA,   *
          *          K.A.NGUYEN, S.J.SU, T.L.WINDUS,           *
          *       TOGETHER WITH M.DUPUIS, J.A.MONTGOMERY       *
          *         J.COMPUT.CHEM.  14, 1347-1363(1993)        *
          **************** 64 BIT LINUX VERSION ****************

  SINCE 1993, STUDENTS AND POSTDOCS WORKING AT IOWA STATE UNIVERSITY
  AND ALSO IN THEIR VARIOUS JOBS AFTER LEAVING ISU HAVE MADE IMPORTANT
  CONTRIBUTIONS TO THE CODE:
     IVANA ADAMOVIC, CHRISTINE AIKENS, YURI ALEXEEV, POOJA ARORA,
     ANDREY ASADCHEV, ROB BELL, PRADIPTA BANDYOPADHYAY, JONATHAN BENTZ,
     COLLEEN BERTONI, BRETT BODE, KURT BRORSEN, CALEB CARLIN, GALINA CHABAN,
     WEI CHEN, CHEOL HO CHOI, PAUL DAY, ALBERT DEFUSCO, NUWAN DESILVA,
     TIM DUDLEY, DMITRI FEDOROV, ALEX FINDLATER, GRAHAM FLETCHER, 
     MARK FREITAG, KURT GLAESEMANN, EMILIE B GUIDEZ, ANASTASIA GUNINA, 
     DAN KEMP, SAROM SOK LEANG, GRANT MERRILL,
     NORIYUKI MINEZAWA, JONATHAN MULLIN,
     TAKESHI NAGATA, SEAN NEDD, HEATHER NETZLOFF, BOSILJKA NJEGIC, RYAN OLSON,
     MIKE PAK, BUU PHAM, DAVID POOLE,
     SPENCER PRUITT, LUKE ROSKOP, TOSAPORN SATTASATHUCHANA,
     JIM SHOEMAKER, LYUDMILA SLIPCHENKO,
     TONY SMITH, JIE SONG, TETSUYA TAKETSUGU, SIMON WEBB,
     JORGE LUIS GALVEZ VALLEJO, PENG XU, SOOHAENG YOO,
     FEDERICO ZAHARIEV

  ADDITIONAL CODE HAS BEEN PROVIDED BY COLLABORATORS IN OTHER GROUPS:
     IOWA STATE UNIVERSITY:
          JOE IVANIC, AARON WEST, LAIMUTIS BYTAUTAS, KLAUS RUEDENBERG
     UNIVERSITY OF TOKYO: KIMIHIKO HIRAO, TAKAHITO NAKAJIMA,
          TAKAO TSUNEDA, MUNEAKI KAMIYA, SUSUMU YANAGISAWA,
          KIYOSHI YAGI, MAHITO CHIBA, SEIKEN TOKURA, NAOAKI KAWAKAMI
     UNIVERSITY OF AARHUS: FRANK JENSEN
     UNIVERSITY OF IOWA: VISVALDAS KAIRYS, HUI LI
     NATIONAL INST. OF STANDARDS AND TECHNOLOGY: WALT STEVENS, DAVID GARMER
     UNIVERSITY OF PISA: BENEDETTA MENNUCCI, JACOPO TOMASI
     UNIVERSITY OF MEMPHIS: HENRY KURTZ, PRAKASHAN KORAMBATH
     UNIVERSITY OF ALBERTA: TOBY ZENG, MARIUSZ KLOBUKOWSKI
     UNIVERSITY OF NEW ENGLAND: MARK SPACKMAN
     MIE UNIVERSITY: HIROAKI UMEDA
     NAT. INST. OF ADVANCED INDUSTRIAL SCIENCE AND TECHNOLOGY: KAZUO KITAURA
     MICHIGAN STATE UNIVERSITY:
          KAROL KOWALSKI, MARTA WLOCH, JEFFREY GOUR, JESSE LUTZ,
          WEI LI, JUN SHEN, J. EMILIANO DEUSTUA, PIOTR PIECUCH
     UNIVERSITY OF MINNESOTA:
          ANDREW SAND, PRACHI SHARMA, YINAN SHU
     UNIVERSITY OF SILESIA: MONIKA MUSIAL, STANISLAW KUCHARSKI
     FACULTES UNIVERSITAIRES NOTRE-DAME DE LA PAIX:
          OLIVIER QUINET, BENOIT CHAMPAGNE
     UNIVERSITY OF CALIFORNIA - SANTA BARBARA: BERNARD KIRTMAN
     INSTITUTE FOR MOLECULAR SCIENCE:
          KAZUYA ISHIMURA, MICHIO KATOUDA, AND SHIGERU NAGASE
     UNIVERSITY OF NOTRE DAME: ANNA POMOGAEVA, DAN CHIPMAN
     KYUSHU UNIVERSITY:
          HARUYUKI NAKANO,
          FENG LONG GU, JACEK KORCHOWIEC, MARCIN MAKOWSKI, AND YURIKO AOKI,
          HIROTOSHI MORI AND EISAKU MIYOSHI
     PENNSYLVANIA STATE UNIVERSITY:
          TZVETELIN IORDANOV, CHET SWALINA, JONATHAN SKONE,
          SHARON HAMMES-SCHIFFER
     WASEDA UNIVERSITY:
          MASATO KOBAYASHI, TOMOKO AKAMA, TSUGUKI TOUMA,
          TAKESHI YOSHIKAWA, YASUHIRO IKABATA, JUNJI SEINO,
          YUYA NAKAJIMA, HIROMI NAKAI
     NANJING UNIVERSITY: SHUHUA LI
     UNIVERSITY OF NEBRASKA:
          PEIFENG SU, DEJUN SI, NANDUN THELLAMUREGE, YALI WANG, HUI LI
     UNIVERSITY OF ZURICH: ROBERTO PEVERATI, KIM BALDRIDGE
     N. COPERNICUS UNIVERSITY AND JACKSON STATE UNIVERSITY:
          MARIA BARYSZ
     UNIVERSITY OF COPENHAGEN: Jimmy Kromann, CASPER STEINMANN
     TOKYO INSTITUTE OF TECHNOLOGY: HIROYA NAKATA
     NAGOYA UNIVERSITY: YOSHIO NISHIMOTO, STEPHAN IRLE
     MOSCOW STATE UNIVERSITY: VLADIMIR MIRONOV
     A.N.NESMEYANOV INSTITUTE OF ORGANOELEMENT COMPOUNDS OF RUSSIAN ACADEMY OF SCIENCES:
          IGOR S. GERASIMOV
     JOHANNES KEPLER UNIVERSITY LINZ:
          CHRISTIAN FRIEDL


 PARALLEL VERSION RUNNING ON        6 PROCESSORS IN        1 NODES.

 EXECUTION OF GAMESS BEGUN Sun May 17 15:40:12 2020

            ECHO OF THE FIRST FEW INPUT CARDS -
 INPUT CARD> $BASIS GBASIS=N21 NGAUSS=3 $END                                                
 INPUT CARD> $CONTRL SCFTYP=UHF MAXIT=60 MULT=2 ICHARG=2 $END                               
 INPUT CARD> $SYSTEM MEMDDI=1000 MWORDS=30 $END                                             
 INPUT CARD> $SCF DIRSCF=.TRUE. $END                                                        
 INPUT CARD> $STATPT OPTTOL=0.0001 NSTEP=999 $END                                           
 INPUT CARD> $DATA                                                                          
 INPUT CARD>                                                                                
 INPUT CARD>C1                                                                              
 INPUT CARD>C 6.0000000 1.4302548261 0.3465941159 0.4864169698                              
 INPUT CARD>H 1.0000000 1.4274969012 0.1269457544 1.5600891405                              
 INPUT CARD>C 6.0000000 0.1946842985 -0.2702266925 -0.2033685064                            
 INPUT CARD>C 6.0000000 -1.1226340326 0.2845924342 0.3879248189                             
 INPUT CARD>C 6.0000000 -2.3653644185 -0.3381220063 -0.3041232568                           
 INPUT CARD>C 6.0000000 -3.6505743017 0.2300821800 0.3020105082                             
 INPUT CARD>N 7.0000000 -4.9055442154 -0.4033282294 -0.3955462017                           
 INPUT CARD>H 1.0000000 0.2266070533 -0.0554917720 -1.2793869893                            
 INPUT CARD>H 1.0000000 0.2123994890 -1.3614872991 -0.0840426590                            
 INPUT CARD>H 1.0000000 -1.1551902733 0.0682582759 1.4636946693                             
 INPUT CARD>H 1.0000000 -1.1426074255 1.3754204585 0.2641513706                             
 INPUT CARD>H 1.0000000 -2.3245535679 -0.1157130838 -1.3786374727                           
 INPUT CARD>H 1.0000000 -2.3368678058 -1.4282018417 -0.1732325174                           
 INPUT CARD>H 1.0000000 -3.7494021656 -0.0092730957 1.3629788190                            
 INPUT CARD>H 1.0000000 -3.7394443179 1.3077444403 0.1483328381                             
 INPUT CARD>H 1.0000000 -4.8959109311 -1.4307782086 -0.2677967092                           
 INPUT CARD>H 1.0000000 -5.7868391912 -0.0268782456 -0.0041316680                           
 INPUT CARD>H 1.0000000 2.3511909737 -0.0612426536 0.0581417834                             
 INPUT CARD>H 1.0000000 1.4466833811 1.4346548756 0.3552893150                              
 INPUT CARD>H 1.0000000 -4.8797042763 -0.2044794066 -1.4112242522                           
 INPUT CARD> $END                                                                           
   30000000 WORDS OF MEMORY AVAILABLE

     BASIS OPTIONS
     -------------
     GBASIS=N21          IGAUSS=       3      POLAR=NONE    
     NDFUNC=       0     NFFUNC=       0     DIFFSP=       F
     NPFUNC=       0      DIFFS=       F     BASNAM=        


     RUN TITLE
     ---------
                                                                                 

 THE POINT GROUP OF THE MOLECULE IS C1      
 THE ORDER OF THE PRINCIPAL AXIS IS     0

 ATOM      ATOMIC                      COORDINATES (BOHR)
           CHARGE         X                   Y                   Z
 C           6.0     2.7027897139        0.6549679080        0.9191947887
 H           1.0     2.6975779916        0.2398926911        2.9481409920
 C           6.0     0.3678999783       -0.5106544034       -0.3843107516
 C           6.0    -2.1214707061        0.5378017188        0.7330716116
 C           6.0    -4.4698906121       -0.6389579423       -0.5747096218
 C           6.0    -6.8985851280        0.4347922749        0.5707171059
 N           7.0    -9.2701343878       -0.7621798367       -0.7474739367
 H           1.0     0.4282252376       -0.1048642437       -2.4176908420
 H           1.0     0.4013768341       -2.5728379311       -0.1588175968
 H           1.0    -2.1829930802        0.1289894378        2.7659818547
 H           1.0    -2.1592149457        2.5991677845        0.4991737097
 H           1.0    -4.3927692871       -0.2186660216       -2.6052470598
 H           1.0    -4.4160398225       -2.6989101360       -0.3273619900
 H           1.0    -7.0853427108       -0.0175236099        2.5756564950
 H           1.0    -7.0665251072        2.4712786541        0.2803084190
 H           1.0    -9.2519301201       -2.7037787635       -0.5060624008
 H           1.0   -10.9355404064       -0.0507925192       -0.0078077204
 H           1.0     4.4431066851       -0.1157318341        0.1098720391
 H           1.0     2.7338351813        2.7111046018        0.6713994517
 H           1.0    -9.2213039833       -0.3864100486       -2.6668271439

          INTERNUCLEAR DISTANCES (ANGS.)
          ------------------------------

                1 C          2 H          3 C          4 C          5 C     

   1 C       0.0000000    1.0959128 *  1.5436666 *  2.5555403 *  3.9370694  
   2 H       1.0959128 *  0.0000000    2.1880027 *  2.8110477 *  4.2517494  
   3 C       1.5436666 *  2.1880027 *  0.0000000    1.5468612 *  2.5629301 *
   4 C       2.5555403 *  2.8110477 *  1.5468612 *  0.0000000    1.5527661 *
   5 C       3.9370694    4.2517494    2.5629301 *  1.5527661 *  0.0000000  
   6 C       5.0855094    5.2326099    3.9104642    2.5299871 *  1.5303655 *
   7 N       6.4406981    6.6492939    5.1055831    3.9239612    2.5426607 *
   8 H       2.1745125 *  3.0883725    1.0977003 *  2.1716439 *  2.7837628 *
   9 H       2.1739682 *  2.5288464 *  1.0979081 *  2.1713236 *  2.7821896 *
  10 H       2.7779613 *  2.5851517 *  2.1715969 *  1.0977892 *  2.1805611 *
  11 H       2.7798392 *  3.1374480    2.1714232 *  1.0980094 *  2.1804354 *
  12 H       4.2179073    4.7720939    2.7841859 *  2.1738439 *  1.0980492 *
  13 H       4.2161892    4.4264353    2.7839847 *  2.1732293 *  1.0982798 *
  14 H       5.2653441    5.1824407    4.2517477    2.8172678 *  2.1915591 *
  15 H       5.2691460    5.4849451    4.2533581    2.8199185 *  2.1912755 *
  16 H       6.6142470    6.7641080    5.2216080    4.1964373    2.7566071 *
  17 H       7.2433808    7.3835692    5.9897861    4.6910054    3.4486747  
  18 H       1.0944742 *  1.7732658 *  2.1823343 *  3.5065395    4.7385433  
  19 H       1.0960568 *  1.7782052 *  2.1877435 *  2.8151555 *  4.2554989  
  20 H       6.6121334    6.9799235    5.2165753    4.1942467    2.7505341 *

                6 C          7 N          8 H          9 H         10 H     

   1 C       5.0855094    6.4406981    2.1745125 *  2.1739682 *  2.7779613 *
   2 H       5.2326099    6.6492939    3.0883725    2.5288464 *  2.5851517 *
   3 C       3.9104642    5.1055831    1.0977003 *  1.0979081 *  2.1715969 *
   4 C       2.5299871 *  3.9239612    2.1716439 *  2.1713236 *  1.0977892 *
   5 C       1.5303655 *  2.5426607 *  2.7837628 *  2.7821896 *  2.1805611 *
   6 C       0.0000000    1.5693131 *  4.1970115    4.1957952    2.7572883 *
   7 N       1.5693131 *  0.0000000    5.2193047    5.2161721    4.2124014  
   8 H       4.1970115    5.2193047    0.0000000    1.7705011 *  3.0739510  
   9 H       4.1957952    5.2161721    1.7705011 *  0.0000000    2.5119644 *
  10 H       2.7572883 *  4.2124014    3.0739510    2.5119644 *  0.0000000  
  11 H       2.7573775 *  4.2141240    2.5109299 *  3.0737513    1.7741858 *
  12 H       2.1685209 *  2.7768154 *  2.5538007 *  3.1087071    3.0789784  
  13 H       2.1683142 *  2.7745068 *  3.1111596    2.5516993 *  2.5130231 *
  14 H       1.0921134 *  2.1411105 *  4.7741892    4.4292467    2.5973236 *
  15 H       1.0921862 *  2.1408790 *  4.4301648    4.7745016    3.1535491  
  16 H       2.1526729 *  1.0354063 *  5.3995294    5.1120839    4.3861331  
  17 H       2.1733337 *  1.0351815 *  6.1472458    6.1464162    4.8596025  
  18 H       6.0137782    7.2789464    2.5105524 *  2.5070464 *  3.7798226  
  19 H       5.2379261    6.6552785    2.5261215 *  3.0878602    3.1409153  
  20 H       2.1528534 *  1.0352828 *  5.1101853    5.3879123    4.7129130  

               11 H         12 H         13 H         14 H         15 H     

   1 C       2.7798392 *  4.2179073    4.2161892    5.2653441    5.2691460  
   2 H       3.1374480    4.7720939    4.4264353    5.1824407    5.4849451  
   3 C       2.1714232 *  2.7841859 *  2.7839847 *  4.2517477    4.2533581  
   4 C       1.0980094 *  2.1738439 *  2.1732293 *  2.8172678 *  2.8199185 *
   5 C       2.1804354 *  1.0980492 *  1.0982798 *  2.1915591 *  2.1912755 *
   6 C       2.7573775 *  2.1685209 *  2.1683142 *  1.0921134 *  1.0921862 *
   7 N       4.2141240    2.7768154 *  2.7745068 *  2.1411105 *  2.1408790 *
   8 H       2.5109299 *  2.5538007 *  3.1111596    4.7741892    4.4301648  
   9 H       3.0737513    3.1087071    2.5516993 *  4.4292467    4.7745016  
  10 H       1.7741858 *  3.0789784    2.5130231 *  2.5973236 *  3.1535491  
  11 H       0.0000000    2.5138081 *  3.0786134    3.1496312    2.6002992 *
  12 H       2.5138081 *  0.0000000    1.7820717 *  3.0915988    2.5218615 *
  13 H       3.0786134    1.7820717 *  0.0000000    2.5236001 *  3.0912825  
  14 H       3.1496312    3.0915988    2.5236001 *  0.0000000    1.7916471 *
  15 H       2.6002992 *  2.5218615 *  3.0912825    1.7916471 *  0.0000000  
  16 H       4.7164613    3.0943888    2.5607910 *  2.4483848 *  3.0016804  
  17 H       4.8587350    3.7262018    3.7275468    2.4536607 *  2.4487321 *
  18 H       3.7832616    4.8918185    4.8887633    6.2387929    6.2432442  
  19 H       2.5915713 *  4.4308432    4.7739442    5.4863167    5.1918068  
  20 H       4.3896310    2.5568998 *  3.0815803    3.0019812    2.4534123 *

               16 H         17 H         18 H         19 H         20 H     

   1 C       6.6142470    7.2433808    1.0944742 *  1.0960568 *  6.6121334  
   2 H       6.7641080    7.3835692    1.7732658 *  1.7782052 *  6.9799235  
   3 C       5.2216080    5.9897861    2.1823343 *  2.1877435 *  5.2165753  
   4 C       4.1964373    4.6910054    3.5065395    2.8151555 *  4.1942467  
   5 C       2.7566071 *  3.4486747    4.7385433    4.2554989    2.7505341 *
   6 C       2.1526729 *  2.1733337 *  6.0137782    5.2379261    2.1528534 *
   7 N       1.0354063 *  1.0351815 *  7.2789464    6.6552785    1.0352828 *
   8 H       5.3995294    6.1472458    2.5105524 *  2.5261215 *  5.1101853  
   9 H       5.1120839    6.1464162    2.5070464 *  3.0878602    5.3879123  
  10 H       4.3861331    4.8596025    3.7798226    3.1409153    4.7129130  
  11 H       4.7164613    4.8587350    3.7832616    2.5915713 *  4.3896310  
  12 H       3.0943888    3.7262018    4.8918185    4.4308432    2.5568998 *
  13 H       2.5607910 *  3.7275468    4.8887633    4.7739442    3.0815803  
  14 H       2.4483848 *  2.4536607 *  6.2387929    5.4863167    3.0019812  
  15 H       3.0016804    2.4487321 *  6.2432442    5.1918068    2.4534123 *
  16 H       0.0000000    1.6835105 *  7.3825707    6.9876638    1.6767522 *
  17 H       1.6835105 *  0.0000000    8.1383410    7.3884444    1.6835514 *
  18 H       7.3825707    8.1383410    0.0000000    1.7731723 *  7.3800677  
  19 H       6.9876638    7.3884444    1.7731723 *  0.0000000    6.7698236  
  20 H       1.6767522 *  1.6835514 *  7.3800677    6.7698236    0.0000000  

  * ... LESS THAN  3.000


     ATOMIC BASIS SET
     ----------------
 THE CONTRACTED PRIMITIVE FUNCTIONS HAVE BEEN UNNORMALIZED
 THE CONTRACTED BASIS FUNCTIONS ARE NOW NORMALIZED TO UNITY

  SHELL TYPE  PRIMITIVE        EXPONENT          CONTRACTION COEFFICIENT(S)

 C         

      1   S       1           172.2560000    0.061766907377
      1   S       2            25.9109000    0.358794042852
      1   S       3             5.5333500    0.700713083689

      2   L       4             3.6649800   -0.395895162119    0.236459946619
      2   L       5             0.7705450    1.215834355681    0.860618805716

      3   L       6             0.1958570    1.000000000000    1.000000000000

 H         

      4   S       7             5.4471780    0.156284978695
      4   S       8             0.8245472    0.904690876670

      5   S       9             0.1831916    1.000000000000

 C         

      6   S      10           172.2560000    0.061766907377
      6   S      11            25.9109000    0.358794042852
      6   S      12             5.5333500    0.700713083689

      7   L      13             3.6649800   -0.395895162119    0.236459946619
      7   L      14             0.7705450    1.215834355681    0.860618805716

      8   L      15             0.1958570    1.000000000000    1.000000000000

 C         

      9   S      16           172.2560000    0.061766907377
      9   S      17            25.9109000    0.358794042852
      9   S      18             5.5333500    0.700713083689

     10   L      19             3.6649800   -0.395895162119    0.236459946619
     10   L      20             0.7705450    1.215834355681    0.860618805716

     11   L      21             0.1958570    1.000000000000    1.000000000000

 C         

     12   S      22           172.2560000    0.061766907377
     12   S      23            25.9109000    0.358794042852
     12   S      24             5.5333500    0.700713083689

     13   L      25             3.6649800   -0.395895162119    0.236459946619
     13   L      26             0.7705450    1.215834355681    0.860618805716

     14   L      27             0.1958570    1.000000000000    1.000000000000

 C         

     15   S      28           172.2560000    0.061766907377
     15   S      29            25.9109000    0.358794042852
     15   S      30             5.5333500    0.700713083689

     16   L      31             3.6649800   -0.395895162119    0.236459946619
     16   L      32             0.7705450    1.215834355681    0.860618805716

     17   L      33             0.1958570    1.000000000000    1.000000000000

 N         

     18   S      34           242.7660000    0.059865700508
     18   S      35            36.4851000    0.352955002994
     18   S      36             7.8144900    0.706513005993

     19   L      37             5.4252200   -0.413300077430    0.237972016222
     19   L      38             1.1491500    1.224417266851    0.858953058551

     20   L      39             0.2832050    1.000000000000    1.000000000000

 H         

     21   S      40             5.4471780    0.156284978695
     21   S      41             0.8245472    0.904690876670

     22   S      42             0.1831916    1.000000000000

 H         

     23   S      43             5.4471780    0.156284978695
     23   S      44             0.8245472    0.904690876670

     24   S      45             0.1831916    1.000000000000

 H         

     25   S      46             5.4471780    0.156284978695
     25   S      47             0.8245472    0.904690876670

     26   S      48             0.1831916    1.000000000000

 H         

     27   S      49             5.4471780    0.156284978695
     27   S      50             0.8245472    0.904690876670

     28   S      51             0.1831916    1.000000000000

 H         

     29   S      52             5.4471780    0.156284978695
     29   S      53             0.8245472    0.904690876670

     30   S      54             0.1831916    1.000000000000

 H         

     31   S      55             5.4471780    0.156284978695
     31   S      56             0.8245472    0.904690876670

     32   S      57             0.1831916    1.000000000000

 H         

     33   S      58             5.4471780    0.156284978695
     33   S      59             0.8245472    0.904690876670

     34   S      60             0.1831916    1.000000000000

 H         

     35   S      61             5.4471780    0.156284978695
     35   S      62             0.8245472    0.904690876670

     36   S      63             0.1831916    1.000000000000

 H         

     37   S      64             5.4471780    0.156284978695
     37   S      65             0.8245472    0.904690876670

     38   S      66             0.1831916    1.000000000000

 H         

     39   S      67             5.4471780    0.156284978695
     39   S      68             0.8245472    0.904690876670

     40   S      69             0.1831916    1.000000000000

 H         

     41   S      70             5.4471780    0.156284978695
     41   S      71             0.8245472    0.904690876670

     42   S      72             0.1831916    1.000000000000

 H         

     43   S      73             5.4471780    0.156284978695
     43   S      74             0.8245472    0.904690876670

     44   S      75             0.1831916    1.000000000000

 H         

     45   S      76             5.4471780    0.156284978695
     45   S      77             0.8245472    0.904690876670

     46   S      78             0.1831916    1.000000000000

 TOTAL NUMBER OF BASIS SET SHELLS             =   46
 NUMBER OF CARTESIAN GAUSSIAN BASIS FUNCTIONS =   82
 NUMBER OF ELECTRONS                          =   49
 CHARGE OF MOLECULE                           =    2
 SPIN MULTIPLICITY                            =    2
 NUMBER OF OCCUPIED ORBITALS (ALPHA)          =   25
 NUMBER OF OCCUPIED ORBITALS (BETA )          =   24
 TOTAL NUMBER OF ATOMS                        =   20
 THE NUCLEAR REPULSION ENERGY IS      251.9981774827

     $CONTRL OPTIONS
     ---------------
 SCFTYP=UHF          RUNTYP=ENERGY       EXETYP=RUN     
 MPLEVL=       0     CITYP =NONE         CCTYP =NONE         VBTYP =NONE    
 DFTTYP=NONE         TDDFT =NONE    
 MULT  =       2     ICHARG=       2     NZVAR =       0     COORD =UNIQUE  
 PP    =NONE         RELWFN=NONE         LOCAL =NONE         NUMGRD=       F
 ISPHER=      -1     NOSYM =       0     MAXIT =      60     UNITS =ANGS    
 PLTORB=       F     MOLPLT=       F     AIMPAC=       F     FRIEND=        
 NPRINT=       7     IREST =       0     GEOM  =INPUT   
 NORMF =       0     NORMP =       0     ITOL  =      20     ICUT  =       9
 INTTYP=BEST         GRDTYP=BEST         QMTTOL= 1.0E-06

     $SYSTEM OPTIONS
     ---------------
  REPLICATED MEMORY=    30000000 WORDS (ON EVERY NODE).
 DISTRIBUTED MEMDDI=        1000 MILLION WORDS IN AGGREGATE,
 MEMDDI DISTRIBUTED OVER   6 PROCESSORS IS   166666666 WORDS/PROCESSOR.
 TOTAL MEMORY REQUESTED ON EACH PROCESSOR=   196666666 WORDS.
 TIMLIM=      525600.00 MINUTES, OR     365.0 DAYS.
 PARALL= T  BALTYP=  DLB     KDIAG=    0  COREFL= F
 MXSEQ2=     300 MXSEQ3=     150  mem10=         0

          ----------------
          PROPERTIES INPUT
          ----------------

     MOMENTS            FIELD           POTENTIAL          DENSITY
 IEMOM =       1   IEFLD =       0   IEPOT =       0   IEDEN =       0
 WHERE =COMASS     WHERE =NUCLEI     WHERE =NUCLEI     WHERE =NUCLEI  
 OUTPUT=BOTH       OUTPUT=BOTH       OUTPUT=BOTH       OUTPUT=BOTH    
 IEMINT=       0   IEFINT=       0                     IEDINT=       0
                                                       MORB  =       0
          EXTRAPOLATION IN EFFECT
          SOSCF IN EFFECT
          DIIS or SOSCF will be reset if energy rises
 ORBITAL PRINTING OPTION: NPREO=     1    82     2     1

     -------------------------------
     INTEGRAL TRANSFORMATION OPTIONS
     -------------------------------
     NWORD  =            0
     CUTOFF = 1.0E-09     MPTRAN =       0
     DIRTRF =       T     AOINTS =DUP     

          ----------------------
          INTEGRAL INPUT OPTIONS
          ----------------------
 NOPK  =       1 NORDER=       0 SCHWRZ=       T

     ------------------------------------------
     THE POINT GROUP IS C1 , NAXIS= 0, ORDER= 1
     ------------------------------------------

     DIMENSIONS OF THE SYMMETRY SUBSPACES ARE
 A   =   82

 ..... DONE SETTING UP THE RUN .....
 CPU     0: STEP CPU TIME=     0.03 TOTAL CPU TIME=          0.0 (      0.0 MIN)
 TOTAL WALL CLOCK TIME=          0.0 SECONDS, CPU UTILIZATION IS   150.00%

          ********************
          1 ELECTRON INTEGRALS
          ********************
 ...... END OF ONE-ELECTRON INTEGRALS ......
 CPU     0: STEP CPU TIME=     0.00 TOTAL CPU TIME=          0.0 (      0.0 MIN)
 TOTAL WALL CLOCK TIME=          0.0 SECONDS, CPU UTILIZATION IS   100.00%

          -------------
          GUESS OPTIONS
          -------------
          GUESS =HUCKEL            NORB  =       0          NORDER=       0
          MIX   =       F          PRTMO =       F          PUNMO =       F
          TOLZ  = 1.0E-08          TOLE  = 1.0E-05
          SYMDEN=       F          PURIFY=       F

 INITIAL GUESS ORBITALS GENERATED BY HUCKEL   ROUTINE.
 HUCKEL GUESS REQUIRES     70820 WORDS.

 SYMMETRIES FOR INITIAL GUESS ORBITALS FOLLOW.  ALPHA SET(S).
    25 ORBITALS ARE OCCUPIED (    6 CORE ORBITALS).
     7=A        8=A        9=A       10=A       11=A       12=A       13=A   
    14=A       15=A       16=A       17=A       18=A       19=A       20=A   
    21=A       22=A       23=A       24=A       25=A       26=A       27=A   
    28=A       29=A       30=A       31=A       32=A       33=A       34=A   
    35=A   

 SYMMETRIES FOR INITIAL GUESS ORBITALS FOLLOW.   BETA SET(S).
    24 ORBITALS ARE OCCUPIED (    6 CORE ORBITALS).
     7=A        8=A        9=A       10=A       11=A       12=A       13=A   
    14=A       15=A       16=A       17=A       18=A       19=A       20=A   
    21=A       22=A       23=A       24=A       25=A       26=A       27=A   
    28=A       29=A       30=A       31=A       32=A       33=A       34=A   
 ...... END OF INITIAL ORBITAL SELECTION ......
 CPU     0: STEP CPU TIME=     0.02 TOTAL CPU TIME=          0.1 (      0.0 MIN)
 TOTAL WALL CLOCK TIME=          0.1 SECONDS, CPU UTILIZATION IS    83.33%

                    ----------------------
                    AO INTEGRAL TECHNOLOGY
                    ----------------------
     S,P,L SHELL ROTATED AXIS INTEGRALS, REPROGRAMMED BY
        KAZUYA ISHIMURA (IMS) AND JOSE SIERRA (SYNSTAR).
     S,P,D,L SHELL ROTATED AXIS INTEGRALS PROGRAMMED BY
        KAZUYA ISHIMURA (INSTITUTE FOR MOLECULAR SCIENCE).
     S,P,D,F,G SHELL TO TOTAL QUARTET ANGULAR MOMENTUM SUM 5,
        ERIC PROGRAM BY GRAHAM FLETCHER (ELORET AND NASA ADVANCED
        SUPERCOMPUTING DIVISION, AMES RESEARCH CENTER).
     S,P,D,F,G,L SHELL GENERAL RYS QUADRATURE PROGRAMMED BY
        MICHEL DUPUIS (PACIFIC NORTHWEST NATIONAL LABORATORY).

          --------------------
          2 ELECTRON INTEGRALS
          --------------------

 DIRECT SCF METHOD SKIPS INTEGRAL STORAGE ON DISK.
 DIRECT TRANSFORMATION SKIPS AO INTEGRAL STORAGE ON DISK.
  ...... END OF TWO-ELECTRON INTEGRALS .....
 CPU     0: STEP CPU TIME=     0.01 TOTAL CPU TIME=          0.1 (      0.0 MIN)
 TOTAL WALL CLOCK TIME=          0.1 SECONDS, CPU UTILIZATION IS   100.00%

          ---------------------------
                  UHF SCF CALCULATION
          ---------------------------

     NUCLEAR ENERGY =       251.9981774827
     MAXIT = 60     NPUNCH=  2     MULT=  2
     EXTRAP=T  DAMP=F  SHIFT=F  RSTRCT=F  DIIS=F  SOSCF=T
     DENSITY MATRIX CONV=  2.00E-05
     SOSCF WILL OPTIMIZE    1425 ALPHA AND    1392 BETA ROTATION ANGLES.
     SOGTOL= 2.500E-01
     MEMORY REQUIRED FOR UHF/ROHF ITERS=    134789 WORDS.

 DIRECT SCF CALCULATION, SCHWRZ=T   FDIFF=T
 SCHWARZ INEQUALITY OVERHEAD:      3206 INTEGRALS, T=        0.00

                                                                                NONZERO     BLOCKS
 ITER EX      TOTAL ENERGY        E CHANGE  DENSITY CHANGE    ORB. GRAD       INTEGRALS    SKIPPED
   1  0     -248.9644309097  -248.9644309097   0.702580003   0.000000000        3805601     239976
          ---------------START SECOND ORDER SCF---------------
   2  1     -249.7155711797    -0.7511402700   0.153171084   0.089123152        3790739     246826
   3  2     -249.7875375453    -0.0719663656   0.056772198   0.045231791        3748113     260704
   4  3     -249.8130580386    -0.0255204933   0.037640633   0.010104373        3693032     277310
   5  4     -249.8155396942    -0.0024816556   0.026396261   0.006877699        3654940     285094
   6  5     -249.8166866628    -0.0011469686   0.012456252   0.002701792        3659336     284836
   7  6     -249.8169670990    -0.0002804362   0.015889934   0.002639034        3557100     300024
   8  7     -249.8171622854    -0.0001951863   0.005151495   0.001480849        3574321     296985
   9  8     -249.8172199853    -0.0000576999   0.004915174   0.001348997        3495601     308315
  10  9     -249.8172768065    -0.0000568212   0.004977326   0.001031348        3525589     304357
  11 10     -249.8173237111    -0.0000469046   0.007534296   0.001073377        3520619     304682
  12 11     -249.8173945343    -0.0000708232   0.007615611   0.001093606        3571278     297415
  13 12     -249.8174492549    -0.0000547206   0.005009309   0.000791604        3569236     298028
  14 13     -249.8174777330    -0.0000284781   0.002775677   0.000455150        3526718     303686
  15 14     -249.8174864668    -0.0000087338   0.001301498   0.000199378        3419586     317486
  16 15     -249.8174886990    -0.0000022322   0.000982694   0.000112620        3284378     333923
  17 16     -249.8174897243    -0.0000010253   0.000372434   0.000074692        3271487     335134
  18 17     -249.8174899461    -0.0000002218   0.000161140   0.000035813        3180819     346221
  19 18     -249.8174900022    -0.0000000561   0.000088887   0.000021643        3075875     358066
  20 19     -249.8174900184    -0.0000000163   0.000069810   0.000008557        2945793     373136
  21 20     -249.8174900239    -0.0000000055   0.000025519   0.000004990        2842684     383439
  22 21     -249.8174900255    -0.0000000016   0.000009336   0.000001800        2715922     393916
  23 22     -249.8174900262    -0.0000000007   0.000005777   0.000001178        2593082     404911

          -----------------
          DENSITY CONVERGED
          -----------------
     TIME TO FORM FOCK OPERATORS=       1.4 SECONDS (       0.1 SEC/ITER)
     FOCK TIME ON FIRST ITERATION=       0.1, LAST ITERATION=       0.0
     TIME TO SOLVE SCF EQUATIONS=       0.1 SECONDS (       0.0 SEC/ITER)

 FINAL UHF ENERGY IS     -249.8174900262 AFTER  23 ITERATIONS

          --------------------
          SPIN SZ   =    0.500
          S-SQUARED =    0.764
          --------------------

  ----- ALPHA SET ----- 

          ------------
          EIGENVECTORS
          ------------

                      1          2          3          4          5
                  -15.9547   -11.5863   -11.5735   -11.5558   -11.5471
                     A          A          A          A          A   
    1  C  1  S    0.000005  -0.000537  -0.003306  -0.017289   0.986981
    2  C  1  S   -0.000010  -0.000266  -0.002656  -0.002773   0.102160
    3  C  1  X    0.000163   0.000056  -0.000594   0.000846  -0.000800
    4  C  1  Y   -0.000022   0.000023  -0.000132  -0.000048  -0.000281
    5  C  1  Z   -0.000022   0.000027  -0.000154  -0.000039  -0.000318
    6  C  1  S   -0.000742   0.001299   0.021710   0.002669  -0.080280
    7  C  1  X   -0.000112  -0.000590  -0.010114  -0.000838   0.004657
    8  C  1  Y    0.000345  -0.000606  -0.004656   0.000335   0.001689
    9  C  1  Z    0.000372  -0.000679  -0.005194   0.000330   0.001914
   10  H  2  S   -0.000016  -0.000074  -0.001342  -0.000005   0.000335
   11  H  2  S   -0.000054   0.000255   0.000518  -0.001388   0.014162
   12  C  3  S   -0.000031  -0.006672   0.987806   0.004822   0.002568
   13  C  3  S   -0.000169  -0.001644   0.105101  -0.001803  -0.001555
   14  C  3  X   -0.000160   0.000413   0.000185  -0.000609   0.000040
   15  C  3  Y   -0.000057   0.000091   0.000434  -0.000004  -0.000056
   16  C  3  Z   -0.000065   0.000103   0.000483  -0.000014  -0.000063
   17  C  3  S    0.001760   0.003927  -0.092410   0.020360   0.017991
   18  C  3  X    0.000015  -0.004019   0.001216  -0.011666   0.009756
   19  C  3  Y    0.000894  -0.000237  -0.004793   0.004159   0.004653
   20  C  3  Z    0.000983  -0.000300  -0.005270   0.004430   0.005218
   21  C  4  S   -0.000108  -0.004519  -0.005807   0.987718   0.016984
   22  C  4  S   -0.000668  -0.001303  -0.003096   0.104841   0.000938
   23  C  4  X    0.000553   0.000944   0.000339   0.000436  -0.001041
   24  C  4  Y   -0.000057  -0.000211   0.000087  -0.000487  -0.000298
   25  C  4  Z   -0.000055  -0.000220   0.000096  -0.000527  -0.000336
   26  C  4  S    0.001640   0.000078   0.023173  -0.092136  -0.002151
   27  C  4  X   -0.003900  -0.002896   0.011813  -0.000230   0.003718
   28  C  4  Y    0.000321   0.001743  -0.005052   0.004793   0.002243
   29  C  4  Z    0.000303   0.001871  -0.005363   0.005227   0.002481
   30  C  5  S    0.000163  -0.003424  -0.003636  -0.008524  -0.022527
   31  C  5  S    0.000501  -0.002891  -0.000835  -0.003432  -0.003434
   32  C  5  X    0.000501   0.000027  -0.000703   0.000508  -0.000328
   33  C  5  Y    0.000116  -0.000093   0.000158  -0.000026   0.000025
   34  C  5  Z    0.000132  -0.000103   0.000164  -0.000023   0.000023
   35  C  5  S   -0.005317   0.022063  -0.001104   0.023065   0.006640
   36  C  5  X    0.002208  -0.012866   0.000641   0.010302   0.003824
   37  C  5  Y   -0.001731   0.004639  -0.001620   0.005358   0.000551
   38  C  5  Z   -0.001877   0.004930  -0.001761   0.005957   0.000646
   39  C  6  S   -0.000790   0.987827   0.006374   0.004466   0.000529
   40  C  6  S   -0.003405   0.102855  -0.000246  -0.000266  -0.000070
   41  C  6  X   -0.000964  -0.000140  -0.000354  -0.000665  -0.000107
   42  C  6  Y   -0.000427  -0.000458  -0.000074  -0.000115   0.000007
   43  C  6  Z   -0.000469  -0.000498  -0.000084  -0.000130   0.000007
   44  C  6  S    0.019717  -0.084683   0.002584  -0.000603   0.000239
   45  C  6  X   -0.006416  -0.004251   0.003233  -0.000069   0.000289
   46  C  6  Y   -0.004636   0.003332   0.000300   0.001209  -0.000214
   47  C  6  Z   -0.005090   0.003594   0.000361   0.001297  -0.000235
   48  N  7  S    0.985979  -0.000362  -0.000016  -0.000049  -0.000005
   49  N  7  S    0.101622  -0.001297  -0.000117  -0.000463  -0.000059
   50  N  7  X    0.000518   0.000290  -0.000007  -0.000397  -0.000087
   51  N  7  Y    0.000212   0.000152  -0.000077   0.000038   0.000013
   52  N  7  Z    0.000234   0.000171  -0.000083   0.000037   0.000013
   53  N  7  S   -0.059742   0.011337   0.000711   0.001078   0.000048
   54  N  7  X   -0.003940   0.006424   0.000258   0.001972   0.000337
   55  N  7  Y   -0.001778   0.002703   0.000530  -0.000126  -0.000048
   56  N  7  Z   -0.001959   0.002967   0.000575  -0.000111  -0.000046
   57  H  8  S   -0.000026  -0.000426   0.001030  -0.001301  -0.001123
   58  H  8  S    0.000255  -0.000191   0.014374   0.000801   0.001069
   59  H  9  S   -0.000026  -0.000427   0.001040  -0.001302  -0.001125
   60  H  9  S    0.000250  -0.000191   0.014387   0.000789   0.001064
   61  H 10  S   -0.000393  -0.000162  -0.001297   0.001011  -0.000197
   62  H 10  S    0.000090  -0.001374   0.000726   0.014499  -0.001075
   63  H 11  S   -0.000395  -0.000165  -0.001295   0.001016  -0.000199
   64  H 11  S    0.000089  -0.001362   0.000740   0.014491  -0.001068
   65  H 12  S    0.000447  -0.001350   0.000055  -0.001346  -0.000443
   66  H 12  S   -0.001090   0.000886  -0.001417   0.000655  -0.000379
   67  H 13  S    0.000442  -0.001351   0.000057  -0.001348  -0.000443
   68  H 13  S   -0.001068   0.000883  -0.001422   0.000656  -0.000384
   69  H 14  S   -0.001392   0.000607  -0.000363   0.000071  -0.000040
   70  H 14  S   -0.001216   0.014957   0.000053  -0.001210   0.000188
   71  H 15  S   -0.001395   0.000610  -0.000361   0.000072  -0.000039
   72  H 15  S   -0.001216   0.014963   0.000053  -0.001221   0.000182
   73  H 16  S    0.002575  -0.000891   0.000001  -0.000391  -0.000080
   74  H 16  S    0.006743   0.001728   0.000262   0.000475   0.000111
   75  H 17  S    0.002535  -0.000543  -0.000166   0.000252   0.000070
   76  H 17  S    0.006675   0.001072   0.000157   0.000513   0.000101
   77  H 18  S    0.000066  -0.000134  -0.001087  -0.000247   0.000241
   78  H 18  S    0.000359   0.000090  -0.000052   0.001323   0.013548
   79  H 19  S   -0.000016  -0.000074  -0.001342  -0.000006   0.000338
   80  H 19  S   -0.000057   0.000245   0.000538  -0.001400   0.014161
   81  H 20  S    0.002572  -0.000893   0.000002  -0.000397  -0.000081
   82  H 20  S    0.006755   0.001708   0.000262   0.000491   0.000116

                      6          7          8          9         10
                  -11.5432    -1.6267    -1.4771    -1.4025    -1.3007
                     A          A          A          A          A   
    1  C  1  S    0.022064  -0.000489  -0.086926   0.109663  -0.125064
    2  C  1  S    0.001315   0.000825   0.093319  -0.109825   0.120464
    3  C  1  X    0.000369  -0.000837  -0.047777   0.031243   0.020649
    4  C  1  Y   -0.000101  -0.000115  -0.019095   0.018979  -0.004516
    5  C  1  Z   -0.000104  -0.000137  -0.021441   0.021110  -0.004662
    6  C  1  S    0.001329   0.001148   0.202876  -0.308232   0.414551
    7  C  1  X   -0.003047   0.001016   0.004979   0.008370   0.000450
    8  C  1  Y    0.000358  -0.000105  -0.000337   0.004252  -0.004969
    9  C  1  Z    0.000347  -0.000085  -0.000334   0.004831  -0.005462
   10  H  2  S   -0.000433   0.000279   0.036212  -0.047799   0.064514
   11  H  2  S    0.000155  -0.000134  -0.009847   0.011856  -0.007379
   12  C  3  S    0.003754  -0.001781  -0.140630   0.086937   0.023568
   13  C  3  S   -0.000120   0.003264   0.140210  -0.081909  -0.021473
   14  C  3  X    0.000714  -0.001553  -0.012999  -0.065542   0.123684
   15  C  3  Y    0.000177   0.000409   0.026267  -0.016128   0.005714
   16  C  3  Z    0.000201   0.000432   0.028631  -0.018429   0.007732
   17  C  3  S   -0.001097  -0.004194   0.371562  -0.266552  -0.080490
   18  C  3  X   -0.000403   0.004413  -0.000683   0.004635   0.025372
   19  C  3  Y   -0.001383  -0.002241   0.010027  -0.008331   0.001151
   20  C  3  Z   -0.001523  -0.002407   0.011096  -0.009152   0.001541
   21  C  4  S    0.007921  -0.006384  -0.127943  -0.043781   0.116155
   22  C  4  S   -0.001777   0.008085   0.129212   0.040739  -0.103007
   23  C  4  X   -0.000440  -0.006301   0.026496  -0.082117  -0.029278
   24  C  4  Y    0.000025  -0.001327  -0.025419  -0.008084   0.009614
   25  C  4  Z    0.000023  -0.001513  -0.027400  -0.009695   0.010190
   26  C  4  S    0.022625   0.012213   0.306051   0.125690  -0.391940
   27  C  4  X   -0.011167   0.011946  -0.010734   0.014499  -0.003355
   28  C  4  Y   -0.005583  -0.002645  -0.007192  -0.001790   0.010510
   29  C  4  Z   -0.006196  -0.002757  -0.008024  -0.001795   0.011467
   30  C  5  S    0.987686  -0.024443  -0.085098  -0.131543  -0.019315
   31  C  5  S    0.104879   0.024360   0.086253   0.123186   0.017696
   32  C  5  X    0.000189  -0.019398   0.028789  -0.020835  -0.104598
   33  C  5  Y    0.000527   0.004727   0.018332   0.023580   0.002012
   34  C  5  Z    0.000582   0.004984   0.020302   0.025503   0.001088
   35  C  5  S   -0.093484   0.050964   0.195104   0.367572   0.059862
   36  C  5  X   -0.000382  -0.005084  -0.010110   0.007100  -0.003469
   37  C  5  Y   -0.005433   0.000387   0.004218   0.012621   0.002700
   38  C  5  Z   -0.005966   0.000413   0.004563   0.013947   0.002897
   39  C  6  S    0.002638  -0.070480  -0.035023  -0.098966  -0.122994
   40  C  6  S   -0.002322   0.075813   0.038250   0.097113   0.113420
   41  C  6  X    0.000578  -0.038547   0.035901   0.063017   0.014975
   42  C  6  Y    0.000083  -0.024490  -0.005004  -0.011007   0.002795
   43  C  6  Z    0.000093  -0.026888  -0.005105  -0.011406   0.003102
   44  C  6  S    0.022754   0.125487   0.071648   0.260759   0.394722
   45  C  6  X    0.010814   0.006568  -0.007205   0.008325   0.008946
   46  C  6  Y   -0.005103   0.002329  -0.000610  -0.003822  -0.005245
   47  C  6  Z   -0.005428   0.002596  -0.000743  -0.004136  -0.005682
   48  N  7  S    0.000051  -0.214804   0.025508   0.046258   0.037663
   49  N  7  S   -0.000047   0.192975  -0.021228  -0.038798  -0.031037
   50  N  7  X   -0.000429   0.001056   0.017671   0.055297   0.086078
   51  N  7  Y    0.000080  -0.003030   0.005509   0.019605   0.040499
   52  N  7  Z    0.000079  -0.003259   0.006120   0.021715   0.044640
   53  N  7  S   -0.001130   0.679735  -0.094369  -0.180417  -0.162566
   54  N  7  X   -0.000429   0.012311   0.004382   0.030280   0.058865
   55  N  7  Y   -0.000533   0.001747   0.001501   0.010637   0.028286
   56  N  7  Z   -0.000562   0.002047   0.001640   0.011774   0.031182
   57  H  8  S    0.000036   0.001105   0.058120  -0.037114  -0.013578
   58  H  8  S   -0.001226  -0.000631  -0.017584   0.011480   0.000036
   59  H  9  S    0.000036   0.001106   0.058119  -0.037098  -0.013562
   60  H  9  S   -0.001223  -0.000624  -0.017621   0.011518   0.000039
   61  H 10  S   -0.001336   0.003322   0.054617   0.019799  -0.057220
   62  H 10  S    0.000835  -0.000350  -0.012245  -0.003831   0.006969
   63  H 11  S   -0.001336   0.003324   0.054579   0.019801  -0.057192
   64  H 11  S    0.000842  -0.000364  -0.012319  -0.003813   0.006931
   65  H 12  S    0.001020   0.008675   0.037429   0.059129   0.008551
   66  H 12  S    0.014394   0.000016  -0.005927  -0.009993  -0.001241
   67  H 13  S    0.001028   0.008698   0.037425   0.059113   0.008531
   68  H 13  S    0.014409  -0.000027  -0.005940  -0.010056  -0.001255
   69  H 14  S   -0.001345   0.026940   0.016441   0.048009   0.071201
   70  H 14  S    0.000838  -0.004808  -0.002649  -0.006454  -0.001092
   71  H 15  S   -0.001343   0.026943   0.016417   0.047987   0.071208
   72  H 15  S    0.000851  -0.004809  -0.002662  -0.006515  -0.001114
   73  H 16  S    0.000037   0.092978  -0.013035  -0.029035  -0.035302
   74  H 16  S   -0.000783  -0.000644  -0.003117  -0.006993  -0.013064
   75  H 17  S   -0.000056   0.091092  -0.015853  -0.035848  -0.039153
   76  H 17  S    0.001286  -0.000164  -0.005064  -0.010314  -0.013012
   77  H 18  S    0.000036   0.000206   0.038577  -0.057572   0.086745
   78  H 18  S    0.001461  -0.001180  -0.012887   0.004455   0.006036
   79  H 19  S   -0.000431   0.000277   0.036179  -0.047796   0.064546
   80  H 19  S    0.000154  -0.000120  -0.009902   0.011909  -0.007360
   81  H 20  S    0.000035   0.093029  -0.013005  -0.028980  -0.035303
   82  H 20  S   -0.000762  -0.000665  -0.003153  -0.006985  -0.013031

                     11         12         13         14         15
                   -1.2034    -1.1651    -1.0932    -1.0792    -1.0203
                     A          A          A          A          A   
    1  C  1  S    0.092644  -0.045407  -0.000012   0.005104  -0.000051
    2  C  1  S   -0.085842   0.042833   0.000007  -0.003728   0.000037
    3  C  1  X   -0.072460   0.037333   0.000032  -0.026855   0.001380
    4  C  1  Y   -0.030380   0.043126   0.004212   0.006349   0.096677
    5  C  1  Z   -0.034169   0.047675  -0.003760   0.006621  -0.088491
    6  C  1  S   -0.359190   0.185199   0.000075  -0.023911   0.000283
    7  C  1  X   -0.015407   0.002599  -0.000011  -0.016058   0.000989
    8  C  1  Y   -0.007725   0.021232   0.002246   0.006018   0.068948
    9  C  1  Z   -0.008637   0.023288  -0.001995   0.006396  -0.063145
   10  H  2  S   -0.064941   0.045547  -0.002472   0.000161  -0.060092
   11  H  2  S   -0.007343   0.011979  -0.001325   0.001225  -0.030457
   12  C  3  S   -0.102395   0.089862   0.000042   0.000605   0.000008
   13  C  3  S    0.091928  -0.080900  -0.000034  -0.001431   0.000010
   14  C  3  X   -0.036502  -0.036080   0.000044  -0.007675   0.001859
   15  C  3  Y   -0.032285   0.076559   0.011377   0.028230   0.171560
   16  C  3  Z   -0.035811   0.083266  -0.010213   0.030763  -0.157258
   17  C  3  S    0.406105  -0.382808  -0.000241  -0.007482  -0.000072
   18  C  3  X   -0.009725  -0.000271   0.000066   0.000204   0.001548
   19  C  3  Y   -0.006963   0.037364   0.009532   0.019629   0.142346
   20  C  3  Z   -0.007698   0.040759  -0.008623   0.021459  -0.130455
   21  C  4  S    0.013010  -0.111442  -0.000102  -0.020518  -0.000047
   22  C  4  S   -0.009763   0.097813   0.000070   0.018340   0.000033
   23  C  4  X    0.099156  -0.003304   0.000367   0.047862   0.001477
   24  C  4  Y   -0.002034   0.080500   0.023848   0.041087   0.166008
   25  C  4  Z   -0.001256   0.087875  -0.021661   0.045445  -0.152117
   26  C  4  S   -0.054131   0.459216   0.000570   0.097015   0.000269
   27  C  4  X    0.021408   0.000926   0.000168   0.022983   0.001155
   28  C  4  Y    0.000032   0.035726   0.014754   0.024521   0.131938
   29  C  4  Z    0.000205   0.039049  -0.013512   0.027099  -0.120914
   30  C  5  S    0.101034   0.085163   0.000089   0.040574  -0.000003
   31  C  5  S   -0.085740  -0.073135  -0.000099  -0.032416   0.000031
   32  C  5  X   -0.046712   0.032662   0.000414  -0.067012   0.001082
   33  C  5  Y    0.023275   0.067025   0.051633   0.019337   0.117288
   34  C  5  Z    0.024838   0.073481  -0.047393   0.020628  -0.107420
   35  C  5  S   -0.386503  -0.349129  -0.000306  -0.172320  -0.000119
   36  C  5  X    0.003639   0.010805   0.000068  -0.044276   0.000870
   37  C  5  Y    0.003674   0.030957   0.036079   0.006968   0.091664
   38  C  5  Z    0.003919   0.033814  -0.033261   0.007232  -0.083970
   39  C  6  S   -0.101918  -0.036717  -0.000060  -0.014658  -0.000017
   40  C  6  S    0.090056   0.033005   0.000068   0.011665   0.000014
   41  C  6  X   -0.071226  -0.047230   0.000834   0.018684   0.000608
   42  C  6  Y    0.046683   0.053432   0.112447  -0.047446   0.049337
   43  C  6  Z    0.050075   0.057863  -0.103528  -0.051165  -0.045224
   44  C  6  S    0.385593   0.155620   0.000213   0.056999   0.000148
   45  C  6  X   -0.014348  -0.009032   0.000601   0.025570   0.000451
   46  C  6  Y    0.015215   0.027453   0.085672  -0.031434   0.040094
   47  C  6  Z    0.016425   0.029983  -0.078708  -0.033838  -0.036829
   48  N  7  S    0.018165   0.001303  -0.000005   0.001862   0.000009
   49  N  7  S   -0.015049  -0.001173   0.000014  -0.003258  -0.000003
   50  N  7  X    0.067583  -0.021565   0.002087   0.278937  -0.000715
   51  N  7  Y    0.074675   0.053955   0.274429  -0.187474  -0.076234
   52  N  7  Z    0.081678   0.058666  -0.253091  -0.200963   0.069785
   53  N  7  S   -0.088928  -0.009702   0.000007  -0.006714  -0.000051
   54  N  7  X    0.048759  -0.026773   0.002048   0.284623  -0.000783
   55  N  7  Y    0.065368   0.052007   0.271684  -0.188859  -0.080235
   56  N  7  Z    0.071410   0.056451  -0.250520  -0.202358   0.073447
   57  H  8  S    0.070874  -0.086233   0.006787  -0.014076   0.107461
   58  H  8  S    0.005310  -0.019277   0.001983  -0.007464   0.048094
   59  H  9  S    0.070783  -0.086185  -0.006937  -0.014074  -0.107373
   60  H  9  S    0.005272  -0.019287  -0.002032  -0.007484  -0.048069
   61  H 10  S   -0.008923   0.102095  -0.014731   0.032273  -0.106449
   62  H 10  S   -0.001742   0.026181  -0.007361   0.012017  -0.054089
   63  H 11  S   -0.008870   0.101944   0.014944   0.032157   0.106604
   64  H 11  S   -0.001726   0.026090   0.007448   0.011972   0.054128
   65  H 12  S   -0.069294  -0.081422   0.032366  -0.036437   0.077506
   66  H 12  S   -0.011063  -0.026753   0.020900  -0.007485   0.042934
   67  H 13  S   -0.069273  -0.081298  -0.032522  -0.036247  -0.077653
   68  H 13  S   -0.011037  -0.026711  -0.021025  -0.007404  -0.043044
   69  H 14  S    0.084184   0.048417  -0.070062  -0.013763  -0.032621
   70  H 14  S    0.017341   0.018239  -0.031540  -0.010483  -0.016920
   71  H 15  S    0.084142   0.048213   0.070232  -0.013843   0.032751
   72  H 15  S    0.017345   0.018209   0.031481  -0.010662   0.016988
   73  H 16  S   -0.043194  -0.026607  -0.181360   0.096790   0.053089
   74  H 16  S   -0.020656  -0.013371  -0.089379   0.047618   0.030445
   75  H 17  S   -0.009984   0.031475   0.001372  -0.228405  -0.000479
   76  H 17  S   -0.005514   0.011385   0.000652  -0.109822  -0.000274
   77  H 18  S   -0.081536   0.030915  -0.000034  -0.020173  -0.000117
   78  H 18  S   -0.017630   0.008745  -0.000011  -0.008472  -0.000094
   79  H 19  S   -0.064908   0.045378   0.002538   0.000061   0.060419
   80  H 19  S   -0.007333   0.011916   0.001351   0.001174   0.030594
   81  H 20  S   -0.043608  -0.027331   0.179964   0.099377  -0.052393
   82  H 20  S   -0.020790  -0.013677   0.088666   0.048934  -0.030037

                     16         17         18         19         20
                   -0.9913    -0.9635    -0.9609    -0.9380    -0.8959
                     A          A          A          A          A   
    1  C  1  S   -0.005527   0.000016  -0.004719   0.012670   0.000009
    2  C  1  S    0.006610   0.000006  -0.001447  -0.009715  -0.000028
    3  C  1  X   -0.079629  -0.002003   0.306813  -0.020903   0.002535
    4  C  1  Y    0.077384  -0.135963  -0.025639  -0.156176   0.172778
    5  C  1  Z    0.083486   0.124682  -0.023140  -0.170562  -0.158143
    6  C  1  S    0.024578  -0.000175   0.061904  -0.079958   0.000068
    7  C  1  X   -0.062555  -0.001578   0.216953   0.004580   0.002256
    8  C  1  Y    0.059518  -0.108380  -0.040410  -0.116811   0.156352
    9  C  1  Z    0.064161   0.099458  -0.040589  -0.127268  -0.143234
   10  H  2  S    0.043239   0.088419  -0.011081  -0.091421  -0.120556
   11  H  2  S    0.021402   0.047595  -0.001001  -0.054282  -0.072719
   12  C  3  S    0.009145  -0.000019   0.020264  -0.002313   0.000034
   13  C  3  S   -0.008070  -0.000001  -0.014635   0.001448  -0.000030
   14  C  3  X   -0.097957  -0.001646  -0.132363   0.220761  -0.000100
   15  C  3  Y    0.090468  -0.139057  -0.126303  -0.008655   0.011275
   16  C  3  Z    0.097552   0.127801  -0.138905  -0.006528  -0.010750
   17  C  3  S   -0.060949   0.000106  -0.097242   0.024718  -0.000135
   18  C  3  X   -0.066383  -0.001461  -0.089638   0.166980  -0.000075
   19  C  3  Y    0.067084  -0.128148  -0.111252  -0.002647   0.013348
   20  C  3  Z    0.072463   0.117684  -0.122135  -0.000611  -0.012537
   21  C  4  S   -0.004641   0.000053  -0.032419  -0.012019  -0.000078
   22  C  4  S    0.004175  -0.000031   0.020656   0.009090   0.000094
   23  C  4  X    0.149626   0.000501  -0.061246  -0.080832  -0.001671
   24  C  4  Y   -0.022354   0.019241  -0.055211   0.140114  -0.166389
   25  C  4  Z   -0.023051  -0.017812  -0.061395   0.152006   0.152465
   26  C  4  S    0.024059  -0.000297   0.154574   0.074300   0.000197
   27  C  4  X    0.100552   0.000487  -0.025168  -0.060113  -0.001574
   28  C  4  Y   -0.021452   0.021054  -0.048102   0.111486  -0.158325
   29  C  4  Z   -0.022548  -0.019341  -0.053174   0.120873   0.145086
   30  C  5  S   -0.005632   0.000002   0.022260  -0.008992   0.000057
   31  C  5  S    0.005921   0.000019  -0.016381   0.005105  -0.000044
   32  C  5  X   -0.005394   0.001235   0.135297  -0.101935  -0.000023
   33  C  5  Y   -0.115121   0.150956  -0.000910   0.018222  -0.027533
   34  C  5  Z   -0.125951  -0.138607  -0.000011   0.018373   0.025220
   35  C  5  S    0.040380  -0.000091  -0.092753   0.038514  -0.000278
   36  C  5  X   -0.019068   0.001226   0.082335  -0.071574  -0.000049
   37  C  5  Y   -0.089798   0.125732  -0.000232   0.013656  -0.033249
   38  C  5  Z   -0.098410  -0.115379   0.000243   0.013870   0.030593
   39  C  6  S    0.020388  -0.000112   0.011318   0.022225  -0.000019
   40  C  6  S   -0.021388   0.000086  -0.011396  -0.018142   0.000006
   41  C  6  X   -0.162224   0.001644  -0.146748   0.009678   0.001277
   42  C  6  Y   -0.093230   0.149231  -0.006925  -0.129487   0.180616
   43  C  6  Z   -0.103394  -0.136618  -0.009130  -0.141485  -0.165976
   44  C  6  S   -0.120452   0.000719  -0.059923  -0.132346   0.000195
   45  C  6  X   -0.089170   0.001345  -0.090164   0.016323   0.001239
   46  C  6  Y   -0.060284   0.134241   0.001778  -0.097501   0.177682
   47  C  6  Z   -0.066871  -0.123185   0.000805  -0.106654  -0.163448
   48  N  7  S   -0.013908   0.000078  -0.013982  -0.012967   0.000026
   49  N  7  S    0.006014  -0.000039   0.007150   0.007572  -0.000014
   50  N  7  X    0.175061  -0.001412   0.165131   0.063720  -0.000550
   51  N  7  Y    0.138569  -0.097687   0.044375   0.097901  -0.063460
   52  N  7  Z    0.152361   0.088933   0.049588   0.107190   0.058120
   53  N  7  S    0.071479  -0.000413   0.069966   0.067615  -0.000156
   54  N  7  X    0.204658  -0.001636   0.193312   0.081419  -0.000619
   55  N  7  Y    0.153462  -0.107106   0.053478   0.111325  -0.071349
   56  N  7  Z    0.168814   0.097463   0.059717   0.121976   0.065240
   57  H  8  S   -0.052470  -0.090656   0.051107   0.007766   0.007516
   58  H  8  S   -0.025767  -0.042133   0.031645   0.004541   0.002412
   59  H  9  S   -0.052547   0.090402   0.051567   0.007959  -0.007333
   60  H  9  S   -0.025900   0.041959   0.032026   0.004667  -0.002235
   61  H 10  S   -0.010736  -0.013410  -0.008432   0.084507   0.118102
   62  H 10  S   -0.008397  -0.007065  -0.008869   0.050968   0.073104
   63  H 11  S   -0.010568   0.013257  -0.008034   0.084391  -0.118092
   64  H 11  S   -0.008321   0.006972  -0.008565   0.050921  -0.073137
   65  H 12  S    0.063817   0.103386  -0.012357  -0.006948  -0.021882
   66  H 12  S    0.037738   0.060705  -0.002680  -0.006299  -0.014984
   67  H 13  S    0.063463  -0.103399  -0.012621  -0.007246   0.021858
   68  H 13  S    0.037580  -0.060703  -0.002841  -0.006510   0.015064
   69  H 14  S   -0.059869  -0.103469  -0.008813  -0.089297  -0.136403
   70  H 14  S   -0.029219  -0.056637  -0.002710  -0.052860  -0.087219
   71  H 15  S   -0.059192   0.104120  -0.008509  -0.088470   0.136774
   72  H 15  S   -0.028804   0.057014  -0.002546  -0.052362   0.087496
   73  H 16  S   -0.065006   0.072218  -0.014652  -0.047914   0.052586
   74  H 16  S   -0.039248   0.048007  -0.009140  -0.035962   0.045813
   75  H 17  S   -0.014106  -0.000547  -0.060126   0.026901  -0.000482
   76  H 17  S   -0.006550  -0.000352  -0.037969   0.021289  -0.000329
   77  H 18  S   -0.081667   0.000136   0.196975   0.068132  -0.000320
   78  H 18  S   -0.044126   0.000111   0.117156   0.038723  -0.000234
   79  H 19  S    0.042763  -0.088735  -0.010950  -0.090974   0.121138
   80  H 19  S    0.021126  -0.047789  -0.000874  -0.054031   0.073164
   81  H 20  S   -0.065897  -0.071093  -0.014416  -0.048914  -0.051988
   82  H 20  S   -0.039808  -0.047259  -0.008971  -0.036673  -0.045376

                     21         22         23         24         25
                   -0.8756    -0.8534    -0.8438    -0.8368    -0.8205
                     A          A          A          A          A   
    1  C  1  S   -0.000882   0.016626   0.000112   0.006075   0.000041
    2  C  1  S   -0.002094  -0.016130  -0.000123  -0.007912  -0.000046
    3  C  1  X    0.014851   0.208401   0.003474   0.002163   0.001182
    4  C  1  Y    0.161935  -0.010381   0.164964   0.106686   0.092772
    5  C  1  Z    0.178096  -0.006307  -0.150545   0.117971  -0.083209
    6  C  1  S    0.028152  -0.048673  -0.000287  -0.009742  -0.000125
    7  C  1  X   -0.016778   0.181040   0.003223  -0.027903   0.001093
    8  C  1  Y    0.132522  -0.026576   0.161118   0.094776   0.101234
    9  C  1  Z    0.145533  -0.024412  -0.147323   0.104772  -0.091017
   10  H  2  S    0.094374  -0.017591  -0.125292   0.063246  -0.075734
   11  H  2  S    0.071353  -0.004994  -0.091200   0.057754  -0.062450
   12  C  3  S   -0.008761  -0.008298  -0.000075   0.011271   0.000108
   13  C  3  S    0.005562   0.006532   0.000023  -0.012200  -0.000146
   14  C  3  X   -0.076649  -0.210809  -0.003268   0.081485  -0.001228
   15  C  3  Y   -0.118706   0.009243  -0.143114  -0.157998  -0.156255
   16  C  3  Z   -0.131105   0.005187   0.130639  -0.173892   0.140611
   17  C  3  S    0.056188   0.020211   0.000389  -0.019262  -0.000182
   18  C  3  X   -0.072394  -0.172766  -0.003058   0.053191  -0.001566
   19  C  3  Y   -0.102696   0.000522  -0.141465  -0.141069  -0.173309
   20  C  3  Z   -0.113506  -0.003915   0.129220  -0.156016   0.156614
   21  C  4  S    0.007799   0.000998  -0.000000   0.013679   0.000111
   22  C  4  S   -0.005392  -0.002142   0.000006  -0.015609  -0.000120
   23  C  4  X   -0.072954   0.282399   0.001577  -0.052343   0.001651
   24  C  4  Y   -0.003798   0.062522  -0.025098   0.179218   0.178993
   25  C  4  Z   -0.004991   0.071300   0.023710   0.197645  -0.161038
   26  C  4  S   -0.046407   0.021713   0.000134  -0.023490  -0.000243
   27  C  4  X   -0.048799   0.245329   0.001066  -0.046413   0.001796
   28  C  4  Y    0.001005   0.052366  -0.032622   0.160597   0.200987
   29  C  4  Z    0.000472   0.059815   0.030564   0.177851  -0.181484
   30  C  5  S   -0.000949   0.013565   0.000089   0.010558   0.000145
   31  C  5  S    0.002878  -0.010562  -0.000027  -0.012801  -0.000173
   32  C  5  X   -0.119491  -0.268504  -0.000667  -0.003630  -0.001677
   33  C  5  Y    0.145549  -0.070891   0.162764  -0.141391  -0.133210
   34  C  5  Z    0.158055  -0.077816  -0.149451  -0.156445   0.119811
   35  C  5  S   -0.020677  -0.060505  -0.000606  -0.013340  -0.000375
   36  C  5  X   -0.088440  -0.223659  -0.000178  -0.001927  -0.001797
   37  C  5  Y    0.125754  -0.063207   0.175464  -0.126682  -0.154673
   38  C  5  Z    0.136909  -0.068900  -0.161372  -0.140856   0.139744
   39  C  6  S   -0.004317  -0.026542  -0.000185   0.012273   0.000045
   40  C  6  S    0.007472   0.022626   0.000166  -0.012588  -0.000055
   41  C  6  X    0.138354   0.144897   0.000387  -0.091881  -0.000103
   42  C  6  Y   -0.141333  -0.039569  -0.129613   0.074471   0.055149
   43  C  6  Z   -0.153280  -0.043003   0.117823   0.081215  -0.049654
   44  C  6  S   -0.017734   0.119015   0.000732  -0.034810  -0.000008
   45  C  6  X    0.108342   0.122153   0.000175  -0.070799   0.000125
   46  C  6  Y   -0.116743  -0.035877  -0.137848   0.065786   0.068271
   47  C  6  Z   -0.126890  -0.039169   0.125516   0.072250  -0.061755
   48  N  7  S   -0.008445   0.018898   0.000060   0.005857   0.000100
   49  N  7  S    0.005872  -0.012259  -0.000030  -0.004583  -0.000080
   50  N  7  X    0.001985  -0.131473  -0.000457  -0.006585  -0.000375
   51  N  7  Y    0.051907  -0.022834   0.026726  -0.018995  -0.005662
   52  N  7  Z    0.056545  -0.025474  -0.024377  -0.020737   0.004717
   53  N  7  S    0.044312  -0.093264  -0.000301  -0.028453  -0.000476
   54  N  7  X    0.002957  -0.164658  -0.000692  -0.004474  -0.000383
   55  N  7  Y    0.060616  -0.031444   0.030406  -0.023177  -0.008340
   56  N  7  Z    0.066035  -0.035063  -0.027621  -0.025293   0.006953
   57  H  8  S    0.073783   0.000373  -0.108203   0.093144  -0.127249
   58  H  8  S    0.053836  -0.000667  -0.078876   0.087861  -0.105758
   59  H  9  S    0.073403  -0.001428   0.108432   0.091376   0.128624
   60  H  9  S    0.053565  -0.001892   0.079162   0.086504   0.107308
   61  H 10  S   -0.006785   0.031392   0.019896   0.105608  -0.148099
   62  H 10  S   -0.004340   0.025347   0.010773   0.104637  -0.128942
   63  H 11  S   -0.006746   0.031226  -0.019574   0.103177   0.149938
   64  H 11  S   -0.004358   0.025165  -0.010585   0.102633   0.130799
   65  H 12  S   -0.088947   0.027303   0.131582   0.085212  -0.115050
   66  H 12  S   -0.076289   0.025916   0.104788   0.089778  -0.106474
   67  H 13  S   -0.088331   0.028996  -0.131800   0.083140   0.116453
   68  H 13  S   -0.075898   0.027260  -0.105158   0.088089   0.108158
   69  H 14  S   -0.086888  -0.005306   0.107548   0.043710  -0.050910
   70  H 14  S   -0.071375  -0.007571   0.085061   0.046188  -0.046454
   71  H 15  S   -0.085947  -0.004249  -0.108352   0.042570   0.051680
   72  H 15  S   -0.070707  -0.006747  -0.085727   0.045234   0.047199
   73  H 16  S   -0.028484   0.000061  -0.026637   0.010349   0.007973
   74  H 16  S   -0.030342  -0.000208  -0.033223   0.015386   0.014920
   75  H 17  S    0.036329   0.055937   0.000624  -0.012068  -0.000034
   76  H 17  S    0.031286   0.045843   0.000488  -0.011697  -0.000019
   77  H 18  S   -0.095268   0.131795   0.000153  -0.079204  -0.000937
   78  H 18  S   -0.061511   0.097562   0.000154  -0.053938  -0.000645
   79  H 19  S    0.092856  -0.018880   0.125959   0.061485   0.077057
   80  H 19  S    0.070360  -0.005926   0.091796   0.056436   0.063567
   81  H 20  S   -0.029272  -0.000655   0.026217   0.010724  -0.007764
   82  H 20  S   -0.031077  -0.000965   0.032812   0.015904  -0.014609

                     26         27         28         29         30
                   -0.1187    -0.0765    -0.0545    -0.0517    -0.0389
                     A          A          A          A          A   
    1  C  1  S    0.007789  -0.018786  -0.000776  -0.065346  -0.039280
    2  C  1  S   -0.006721   0.010861   0.000425   0.035041   0.021721
    3  C  1  X    0.002964   0.043792   0.000253   0.061083  -0.000536
    4  C  1  Y    0.003195   0.018322  -0.031642   0.039226  -0.040977
    5  C  1  Z    0.003478   0.020547   0.030214   0.042843  -0.044418
    6  C  1  S   -0.062614   0.258584   0.010224   0.884656   0.465148
    7  C  1  X   -0.030275   0.182425   0.003358   0.371617   0.049206
    8  C  1  Y    0.011124   0.111446  -0.097827   0.202416  -0.150361
    9  C  1  Z    0.011462   0.123062   0.095065   0.223421  -0.162938
   10  H  2  S   -0.007541   0.011126  -0.010605  -0.010879   0.009780
   11  H  2  S    0.002221  -0.145992  -0.183137  -0.534461  -0.014578
   12  C  3  S   -0.002355  -0.035010  -0.001236  -0.103938  -0.017160
   13  C  3  S   -0.002360   0.019898   0.000401   0.037926   0.001242
   14  C  3  X   -0.017606   0.076743  -0.002264  -0.076290  -0.034904
   15  C  3  Y    0.012682  -0.069141  -0.057542   0.006152  -0.038735
   16  C  3  Z    0.013494  -0.074054   0.054079   0.003912  -0.041422
   17  C  3  S    0.051228   0.508081   0.016682   1.444282   0.298848
   18  C  3  X   -0.097108   0.343928  -0.009003  -0.355131  -0.225171
   19  C  3  Y    0.032796  -0.319767  -0.180724   0.009540  -0.095684
   20  C  3  Z    0.034157  -0.343082   0.171891   0.000340  -0.101513
   21  C  4  S    0.032761  -0.091905   0.000271  -0.004514   0.026062
   22  C  4  S   -0.014738   0.040807  -0.000289  -0.004304  -0.010289
   23  C  4  X    0.060696  -0.008023  -0.001849  -0.055643  -0.035398
   24  C  4  Y    0.034156   0.023682  -0.074165   0.063327  -0.065144
   25  C  4  Z    0.037999   0.026073   0.069766   0.066341  -0.071050
   26  C  4  S   -0.348362   1.190520  -0.001340   0.180877  -0.391867
   27  C  4  X    0.101807   0.109479  -0.014124  -0.663739  -0.354174
   28  C  4  Y    0.161998   0.158213  -0.246131   0.293570  -0.254182
   29  C  4  Z    0.178403   0.174307   0.232005   0.306261  -0.281389
   30  C  5  S   -0.030674  -0.065708   0.000856   0.027664   0.023378
   31  C  5  S    0.015434   0.020686  -0.000318  -0.006712  -0.015500
   32  C  5  X    0.026079  -0.021384  -0.002166  -0.057621  -0.012090
   33  C  5  Y   -0.020477  -0.072477  -0.113299   0.015164  -0.064751
   34  C  5  Z   -0.022114  -0.077965   0.105860   0.012418  -0.070522
   35  C  5  S    0.342764   0.982954  -0.012476  -0.433007  -0.293095
   36  C  5  X    0.300127  -0.167451  -0.010595  -0.322910  -0.096249
   37  C  5  Y   -0.106145  -0.329088  -0.376261  -0.052759  -0.279504
   38  C  5  Z   -0.113369  -0.355711   0.348066  -0.072603  -0.305425
   39  C  6  S   -0.021094  -0.059568   0.001223   0.070861   0.048535
   40  C  6  S   -0.004977   0.036728  -0.000705  -0.043440  -0.022743
   41  C  6  X    0.094649  -0.127948   0.001043   0.089795   0.052833
   42  C  6  Y    0.071783  -0.017306  -0.088080   0.081067  -0.071246
   43  C  6  Z    0.078623  -0.019089   0.084541   0.085292  -0.075244
   44  C  6  S    0.485678   0.627703  -0.011376  -0.657705  -0.631658
   45  C  6  X    0.301677  -0.476062   0.004094   0.366019   0.305988
   46  C  6  Y    0.209308   0.074041  -0.301473   0.265968  -0.245105
   47  C  6  Z    0.229389   0.078518   0.290674   0.279463  -0.255007
   48  N  7  S   -0.144689   0.030604  -0.000635  -0.033179  -0.023043
   49  N  7  S    0.068825  -0.018364   0.000260   0.013476   0.003087
   50  N  7  X   -0.016266  -0.068641   0.000218   0.076961   0.108152
   51  N  7  Y   -0.020439  -0.076619  -0.133461   0.089018  -0.108114
   52  N  7  Z   -0.022103  -0.081431   0.127054   0.093461  -0.116217
   53  N  7  S    1.415645  -0.254451   0.006038   0.316925   0.278862
   54  N  7  X   -0.086001  -0.184284   0.001962   0.284419   0.378279
   55  N  7  Y   -0.073548  -0.244983  -0.381226   0.271704  -0.302268
   56  N  7  Z   -0.079784  -0.260499   0.363838   0.286790  -0.325169
   57  H  8  S    0.001719  -0.006332   0.023298  -0.003934  -0.022078
   58  H  8  S    0.039668  -0.480848   0.324741  -0.512507  -0.264157
   59  H  9  S    0.001752  -0.006452  -0.023086  -0.003352  -0.022620
   60  H  9  S    0.040424  -0.483540  -0.330021  -0.501963  -0.272334
   61  H 10  S   -0.006730   0.012060  -0.034488  -0.021462   0.021686
   62  H 10  S    0.000377  -0.537822  -0.463702  -0.355578   0.453946
   63  H 11  S   -0.006804   0.012342   0.033583  -0.022551   0.021674
   64  H 11  S    0.000940  -0.535347   0.456966  -0.368749   0.454342
   65  H 12  S    0.025498  -0.017725   0.031795   0.026786  -0.019738
   66  H 12  S   -0.172851  -0.676274   0.639164   0.225155  -0.198143
   67  H 13  S    0.025755  -0.018155  -0.030938   0.028073  -0.020362
   68  H 13  S   -0.171458  -0.682700  -0.622466   0.245735  -0.200133
   69  H 14  S   -0.007290   0.015104  -0.044056  -0.022680   0.021046
   70  H 14  S   -0.309368  -0.332965  -0.538367   0.097932   0.583035
   71  H 15  S   -0.007365   0.015498   0.042797  -0.024195   0.021658
   72  H 15  S   -0.309481  -0.328868   0.537888   0.078080   0.593764
   73  H 16  S   -0.044764  -0.012833  -0.063355   0.013378  -0.061436
   74  H 16  S   -0.637630  -0.150790  -0.715502   0.199101  -0.562771
   75  H 17  S   -0.054048   0.008392   0.000261  -0.004008   0.097052
   76  H 17  S   -0.594598   0.145178   0.000556  -0.139271   0.820765
   77  H 18  S    0.015752  -0.034366   0.000075  -0.004787  -0.022578
   78  H 18  S    0.091823  -0.259287  -0.004826  -0.446192  -0.393725
   79  H 19  S   -0.007510   0.010813   0.010185  -0.011118   0.010004
   80  H 19  S    0.002166  -0.147401   0.169808  -0.538570  -0.014042
   81  H 20  S   -0.044652  -0.011821   0.063656   0.011744  -0.062568
   82  H 20  S   -0.637168  -0.141807   0.720038   0.181913  -0.573069

                     31         32         33         34         35
                   -0.0180    -0.0163    -0.0061     0.0144     0.0165
                     A          A          A          A          A   
    1  C  1  S   -0.003726   0.060548  -0.122250  -0.008284  -0.032378
    2  C  1  S    0.001894  -0.031973   0.042950   0.009730   0.002614
    3  C  1  X    0.001321  -0.035033  -0.086746   0.069397  -0.182744
    4  C  1  Y   -0.076637   0.062797  -0.020893   0.071564   0.094217
    5  C  1  Z    0.063465   0.076580  -0.024336   0.078447   0.093281
    6  C  1  S    0.047843  -0.763547   1.690800   0.095385   0.535728
    7  C  1  X    0.008469  -0.181978  -0.397575   0.434132  -0.922939
    8  C  1  Y   -0.246136   0.247872  -0.134718   0.261464   0.455815
    9  C  1  Z    0.199589   0.296247  -0.153334   0.291660   0.459147
   10  H  2  S   -0.030398  -0.022732  -0.011219  -0.006483  -0.046083
   11  H  2  S   -0.421740  -0.033055  -0.545960  -0.340035  -0.660678
   12  C  3  S    0.000380  -0.004755   0.084747   0.025507   0.002433
   13  C  3  S   -0.000229   0.002488  -0.036726  -0.001797   0.001849
   14  C  3  X   -0.000426  -0.008636  -0.080473   0.076286  -0.076014
   15  C  3  Y   -0.119234   0.063880  -0.007818   0.081532  -0.029604
   16  C  3  Z    0.101403   0.081743  -0.010682   0.087222  -0.040073
   17  C  3  S   -0.001177   0.004743  -1.068808  -0.430586  -0.004641
   18  C  3  X   -0.008886   0.080365  -0.679257   0.452825  -0.355559
   19  C  3  Y   -0.440615   0.200134  -0.129461   0.377052  -0.336322
   20  C  3  Z    0.377921   0.263721  -0.153955   0.405196  -0.400753
   21  C  4  S   -0.000301   0.000643  -0.014188  -0.071873   0.040139
   22  C  4  S    0.001270  -0.017770   0.007801   0.031877  -0.014456
   23  C  4  X   -0.000837   0.007503  -0.038282  -0.021301  -0.032839
   24  C  4  Y   -0.095271   0.063069   0.027026   0.040245   0.024647
   25  C  4  Z    0.081376   0.080110   0.028567   0.043379   0.026921
   26  C  4  S   -0.009140   0.210846   0.123291   0.899851  -0.497065
   27  C  4  X   -0.001106   0.021836  -0.106644  -0.025312   0.205601
   28  C  4  Y   -0.295154   0.280000   0.164868  -0.025230   0.268570
   29  C  4  Z    0.245030   0.340879   0.176863  -0.027679   0.295649
   30  C  5  S    0.002330  -0.043863   0.083497   0.026258  -0.044192
   31  C  5  S   -0.000188   0.006089  -0.031634  -0.004091   0.008655
   32  C  5  X   -0.002480   0.048668   0.032398  -0.061861   0.040246
   33  C  5  Y   -0.029720   0.034528  -0.000310   0.054531  -0.012092
   34  C  5  Z    0.022879   0.039228  -0.000785   0.058155  -0.007422
   35  C  5  S   -0.033013   0.614328  -1.022834  -0.456675   0.662170
   36  C  5  X    0.006984  -0.046501   0.470914  -0.393600   0.441052
   37  C  5  Y   -0.101273   0.004091  -0.106922   0.373006   0.016346
   38  C  5  Z    0.094077   0.006673  -0.114794   0.399001   0.045030
   39  C  6  S   -0.002064   0.030197  -0.114768   0.047473   0.031018
   40  C  6  S    0.000794  -0.013026   0.043239  -0.016405  -0.016924
   41  C  6  X   -0.004079   0.067253   0.010937  -0.115110  -0.027338
   42  C  6  Y   -0.022040   0.086564  -0.022641  -0.059098  -0.090817
   43  C  6  Z    0.010061   0.098133  -0.023575  -0.061718  -0.088484
   44  C  6  S    0.017583  -0.226626   1.515339  -0.806890  -0.469459
   45  C  6  X   -0.007793   0.124564   0.205195  -0.557294  -0.068070
   46  C  6  Y   -0.097220   0.404324  -0.082072  -0.293461  -0.417610
   47  C  6  Z    0.038794   0.457831  -0.082550  -0.307445  -0.410695
   48  N  7  S   -0.000303   0.007106   0.031268  -0.025948   0.005338
   49  N  7  S    0.000282  -0.004145  -0.014717   0.014878   0.000795
   50  N  7  X   -0.012218   0.232918  -0.005380  -0.081858  -0.059211
   51  N  7  Y    0.154287  -0.028325  -0.050950  -0.083439   0.005447
   52  N  7  Z   -0.138564  -0.046504  -0.055087  -0.092150  -0.000796
   53  N  7  S    0.004553  -0.104777  -0.306681   0.279755  -0.071280
   54  N  7  X   -0.039238   0.728620  -0.039508  -0.242071  -0.248674
   55  N  7  Y    0.475142  -0.098436  -0.172703  -0.244241   0.046850
   56  N  7  Z   -0.425326  -0.155458  -0.187298  -0.271022   0.026218
   57  H  8  S    0.056441   0.032255  -0.009898   0.037713   0.000826
   58  H  8  S    0.698089   0.340139   0.338926   0.556430  -0.243710
   59  H  9  S   -0.059415   0.025925  -0.009574   0.038977   0.005803
   60  H  9  S   -0.730020   0.265018   0.345049   0.573518  -0.197304
   61  H 10  S   -0.032116  -0.047408   0.021044  -0.011798  -0.007352
   62  H 10  S   -0.494208  -0.438343  -0.170687  -0.469895   0.004609
   63  H 11  S    0.037316  -0.044176   0.020395  -0.012527  -0.008196
   64  H 11  S    0.530440  -0.377848  -0.175039  -0.472416   0.004336
   65  H 12  S    0.027167   0.011170  -0.020865   0.023452  -0.014600
   66  H 12  S    0.226582  -0.104089   0.318945   0.504356  -0.276499
   67  H 13  S   -0.027600   0.007756  -0.021071   0.022321  -0.019923
   68  H 13  S   -0.213883  -0.118882   0.322197   0.504546  -0.317639
   69  H 14  S    0.011891  -0.022645  -0.007370   0.034776   0.017098
   70  H 14  S   -0.069347  -0.259389  -0.564332   0.520162   0.530166
   71  H 15  S   -0.009013  -0.023477  -0.006937   0.035778   0.021100
   72  H 15  S    0.096261  -0.238202  -0.557981   0.540757   0.593824
   73  H 16  S    0.077848  -0.003164  -0.019440  -0.040933   0.014709
   74  H 16  S    0.812742  -0.086678  -0.090113  -0.432783   0.064224
   75  H 17  S   -0.005756   0.087944   0.047961  -0.010536  -0.045434
   76  H 17  S   -0.066239   1.053969   0.354161  -0.124161  -0.276836
   77  H 18  S   -0.003095   0.052725   0.012210  -0.025292   0.116457
   78  H 18  S   -0.047646   0.803204  -0.342233  -0.179305   1.198601
   79  H 19  S    0.032566  -0.018969  -0.011205  -0.006922  -0.049300
   80  H 19  S    0.416880   0.018637  -0.547187  -0.341575  -0.696629
   81  H 20  S   -0.076161  -0.012344  -0.019737  -0.041305   0.011838
   82  H 20  S   -0.791187  -0.187861  -0.091914  -0.439795   0.035805

                     36         37         38         39         40
                    0.0207     0.0458     0.0500     0.0526     0.0586
                     A          A          A          A          A   
    1  C  1  S   -0.001520  -0.000289   0.000056   0.000455  -0.064983
    2  C  1  S    0.000409   0.000279  -0.000030   0.000031   0.018469
    3  C  1  X   -0.008539   0.001230  -0.003150  -0.003699   0.160331
    4  C  1  Y   -0.092933  -0.047348  -0.069863  -0.158424  -0.000946
    5  C  1  Z    0.092804   0.043673   0.065075   0.142511   0.002507
    6  C  1  S    0.022146   0.003238  -0.000428  -0.008861   0.984733
    7  C  1  X   -0.037846   0.004880  -0.014637  -0.013602   0.513667
    8  C  1  Y   -0.362003  -0.294771  -0.284846  -0.881756  -0.052320
    9  C  1  Z    0.364608   0.272070   0.268250   0.791798  -0.043340
   10  H  2  S   -0.045554   0.024497  -0.044258  -0.076509  -0.018451
   11  H  2  S   -0.619408  -0.253379  -0.454384  -1.117600  -0.362408
   12  C  3  S    0.000967  -0.000303  -0.000766  -0.000266   0.067680
   13  C  3  S   -0.000377   0.000031   0.000459  -0.000216  -0.032949
   14  C  3  X   -0.004755   0.002425  -0.001387  -0.002817   0.041619
   15  C  3  Y   -0.065650   0.151729  -0.036244   0.095544   0.052284
   16  C  3  Z    0.060642  -0.138187   0.030323  -0.085535   0.058058
   17  C  3  S   -0.012818   0.004625   0.010225   0.004785  -0.928651
   18  C  3  X   -0.019129   0.012389  -0.005649  -0.011620   0.113262
   19  C  3  Y   -0.236985   0.842928  -0.195672   0.531132   0.244509
   20  C  3  Z    0.209633  -0.762650   0.164733  -0.469427   0.271900
   21  C  4  S    0.000850   0.000728   0.000604  -0.000110   0.027981
   22  C  4  S   -0.000432  -0.000284  -0.000219   0.000137  -0.002297
   23  C  4  X   -0.003874  -0.002152  -0.000867  -0.003948   0.161213
   24  C  4  Y   -0.010909  -0.183566   0.013080   0.074387   0.023703
   25  C  4  Z    0.011419   0.166151  -0.012054  -0.067558   0.025201
   26  C  4  S   -0.009897  -0.010360  -0.007897   0.000843  -0.429209
   27  C  4  X   -0.006340  -0.013839   0.001633  -0.021916   0.537292
   28  C  4  Y   -0.061143  -1.011971   0.023127   0.400546   0.133254
   29  C  4  Z    0.069389   0.914960  -0.021342  -0.364760   0.139940
   30  C  5  S   -0.001567  -0.000316  -0.000018   0.000037  -0.102606
   31  C  5  S    0.000308   0.000224  -0.000150   0.000120   0.041383
   32  C  5  X   -0.000593   0.000278   0.001304  -0.003281   0.064638
   33  C  5  Y    0.032725   0.069243   0.169161  -0.066906  -0.034512
   34  C  5  Z   -0.031263  -0.065032  -0.154200   0.058247  -0.038221
   35  C  5  S    0.023298   0.003800   0.001682  -0.000541   1.397312
   36  C  5  X    0.003031   0.000106   0.007562  -0.016321   0.463758
   37  C  5  Y    0.103347   0.430806   0.921354  -0.441177  -0.133732
   38  C  5  Z   -0.099385  -0.402355  -0.837465   0.383138  -0.148177
   39  C  6  S    0.001628  -0.000476  -0.000200  -0.000008   0.048527
   40  C  6  S   -0.000733   0.000323   0.000181  -0.000145  -0.020014
   41  C  6  X   -0.001522  -0.000865  -0.003065  -0.001796   0.122707
   42  C  6  Y    0.165565  -0.012279  -0.129290  -0.010324   0.002294
   43  C  6  Z   -0.159437   0.011664   0.118014   0.009697   0.005956
   44  C  6  S   -0.024548   0.005934   0.000272   0.002254  -0.558866
   45  C  6  X   -0.003663  -0.001789  -0.013654  -0.001971   0.295204
   46  C  6  Y    0.754995  -0.045405  -0.760946  -0.012881  -0.028424
   47  C  6  Z   -0.720638   0.047577   0.697135   0.019209  -0.015443
   48  N  7  S    0.000081   0.000263   0.000166   0.000075  -0.000320
   49  N  7  S   -0.000112  -0.000239  -0.000101  -0.000288   0.005978
   50  N  7  X   -0.003427  -0.000185  -0.002434  -0.001160   0.079032
   51  N  7  Y   -0.094931   0.006245  -0.020224   0.020147   0.066227
   52  N  7  Z    0.085746  -0.005632   0.019000  -0.018255   0.073324
   53  N  7  S   -0.000243  -0.002123  -0.001578   0.000854  -0.051930
   54  N  7  X   -0.011678  -0.000262  -0.006907  -0.001331   0.162977
   55  N  7  Y   -0.340213   0.008571  -0.028708   0.074726   0.218388
   56  N  7  Z    0.310205  -0.007820   0.026354  -0.068141   0.239728
   57  H  8  S    0.053139  -0.015966   0.049323  -0.034139   0.036422
   58  H  8  S    0.433189  -0.928948   0.306428  -0.636952   0.652564
   59  H  9  S   -0.051393   0.016473  -0.049813   0.034761   0.036145
   60  H  9  S   -0.421108   0.931698  -0.328312   0.648292   0.648567
   61  H 10  S   -0.018781  -0.030895   0.054855   0.061856   0.001806
   62  H 10  S   -0.118077  -1.156031   0.170786   0.572785   0.064966
   63  H 11  S    0.018116   0.032104  -0.054330  -0.061950   0.000226
   64  H 11  S    0.115180   1.177363  -0.162966  -0.577449   0.048661
   65  H 12  S   -0.062368   0.022723  -0.050530   0.032277  -0.019963
   66  H 12  S   -0.314768  -0.404354  -1.132546   0.512762  -0.739349
   67  H 13  S    0.060241  -0.023100   0.050808  -0.033239  -0.019065
   68  H 13  S    0.288119   0.393483   1.138822  -0.531100  -0.728991
   69  H 14  S    0.060478   0.034321  -0.025875  -0.033155   0.001767
   70  H 14  S    1.105959   0.004791  -0.890589  -0.101742   0.312180
   71  H 15  S   -0.059058  -0.034934   0.025864   0.032701   0.002859
   72  H 15  S   -1.062507  -0.015031   0.891236   0.095483   0.329058
   73  H 16  S   -0.037585  -0.003492  -0.051835   0.021630   0.046826
   74  H 16  S   -0.459747   0.010783  -0.177853   0.123880   0.263899
   75  H 17  S   -0.001127   0.000035  -0.000461  -0.000236  -0.029918
   76  H 17  S   -0.004258  -0.000007  -0.007526  -0.004731  -0.026033
   77  H 18  S    0.004072  -0.000381   0.001130  -0.000289  -0.028878
   78  H 18  S    0.042584  -0.009912   0.013196  -0.002590  -0.956150
   79  H 19  S    0.042239  -0.024842   0.043799   0.077948  -0.017266
[...]
    2             0.015210   0.025161   0.000022   0.000249   0.013865
    3             0.053280   0.338755   0.000914   0.003835   0.209282
    4             0.077203   0.193744   0.003927   0.024694   0.224847
    5             0.265190   0.038388   0.022678   0.046255   0.130093
    6             0.163254   0.006008   0.109686   0.019968   0.027279
    7             0.077096   0.009741   0.573002   0.622395   0.041052
    8             0.004856   0.063912   0.000142   0.000071   0.043793
    9             0.004821   0.063803   0.000150   0.000073   0.043894
   10             0.011292   0.038055   0.000887   0.004183   0.049602
   11             0.011294   0.037873   0.000918   0.004167   0.049722
   12             0.040718   0.008225   0.005311   0.006814   0.029928
   13             0.040658   0.008184   0.005372   0.006761   0.029975
   14             0.027554   0.000678   0.019945   0.000361   0.006117
   15             0.027463   0.000658   0.020027   0.000372   0.006150
   16             0.008680   0.000142   0.119421   0.033344   0.009993
   17             0.001847   0.002566   0.000007   0.186999   0.000001
   18             0.011246   0.003515   0.000000   0.000676   0.000000
   19             0.015190   0.024943   0.000022   0.000251   0.014047
   20             0.008979   0.000165   0.117484   0.035218   0.009753

                     16         17         18         19         20

                  1.000000   1.000000   1.000000   1.000000   1.000000

    1             0.021043   0.131411   0.275234   0.196797   0.134933
    2             0.000728   0.032381   0.021978   0.056832   0.002091
    3             0.036946   0.158482   0.117770   0.002704   0.067908
    4             0.029492   0.000277   0.119528   0.181388   0.162410
    5             0.092722   0.153116   0.070015   0.011655   0.263712
    6             0.259070   0.172396   0.118900   0.210729   0.206205
    7             0.435649   0.054405   0.045214   0.019182   0.047986
    8             0.004205   0.035591   0.004713   0.000649   0.000014
    9             0.004235   0.035509   0.004768   0.000667   0.000010
   10             0.000366   0.000050   0.018968   0.051837   0.002170
   11             0.000374   0.000049   0.018971   0.051539   0.002400
   12             0.010887   0.038025   0.005829   0.003611   0.000930
   13             0.010852   0.037997   0.005840   0.003627   0.000945
   14             0.022989   0.042939   0.026140   0.067400   0.012208
   15             0.022634   0.043266   0.025752   0.067149   0.012853
   16             0.018382   0.015908   0.004816   0.008491   0.000756
   17             0.003713   0.000001   0.001950   0.000000   0.017839
   18             0.006336   0.000000   0.087210   0.000007   0.062240
   19             0.000701   0.032684   0.021401   0.057380   0.001616
   20             0.018676   0.015511   0.005002   0.008356   0.000773

                     21         22         23         24

                  1.000000   1.000000   1.000000   1.000000

    1             0.162699   0.170261   0.111601   0.054300
    2             0.033485   0.063127   0.026166   0.023835
    3             0.105849   0.111216   0.258688   0.142000
    4             0.155443   0.007707   0.200590   0.191059
    5             0.225187   0.176109   0.089195   0.105505
    6             0.060161   0.091135   0.032345   0.016046
    7             0.033264   0.002640   0.000947   0.000077
    8             0.011975   0.041593   0.048775   0.064807
    9             0.011600   0.041510   0.044818   0.069323
   10             0.009474   0.002491   0.050519   0.087391
   11             0.009442   0.002693   0.044928   0.092903
   12             0.045183   0.068371   0.023881   0.051757
   13             0.044050   0.070054   0.020635   0.054656
   14             0.017349   0.040445   0.005167   0.009444
   15             0.016467   0.041433   0.004443   0.010030
   16             0.002166   0.002622   0.000337   0.000399
   17             0.000015   0.000000   0.000167   0.000000
   18             0.021623   0.000004   0.012185   0.000010
   19             0.032285   0.064079   0.024222   0.026095
   20             0.002281   0.002512   0.000389   0.000363

     ATOMIC SPIN POPULATION (ALPHA MINUS BETA)
       ATOM         MULL.POP.                    LOW.POP.
    1 C             0.349387                     0.340338
    2 H            -0.029493                    -0.016898
    3 C             0.359916                     0.341447
    4 C             0.217722                     0.195499
    5 C             0.096171                     0.084305
    6 C             0.028118                     0.024865
    7 N             0.014918                     0.013900
    8 H            -0.030145                    -0.016837
    9 H            -0.030112                    -0.016824
   10 H            -0.019667                    -0.011861
   11 H            -0.019650                    -0.011854
   12 H            -0.009330                    -0.005644
   13 H            -0.009328                    -0.005640
   14 H            -0.002888                    -0.001869
   15 H            -0.002883                    -0.001871
   16 H            -0.001206                    -0.000793
   17 H             0.001491                     0.001434
   18 H             0.117466                     0.105821
   19 H            -0.029280                    -0.016729
   20 H            -0.001208                    -0.000790


          ********* ALL ELECTRONS ********

               ----- POPULATIONS IN EACH AO -----
                             MULLIKEN      LOWDIN
              1  C  1  S      1.98902     1.97758
              2  C  1  S      0.37267     0.44222
              3  C  1  X      0.38206     0.36051
              4  C  1  Y      0.60333     0.57071
              5  C  1  Z      0.59891     0.56656
              6  C  1  S      1.22064     0.60023
              7  C  1  X      0.28028     0.40912
              8  C  1  Y      0.58687     0.60391
              9  C  1  Z      0.57531     0.59891
             10  H  2  S      0.45287     0.44964
             11  H  2  S      0.21124     0.38398
             12  C  3  S      1.99027     1.97782
             13  C  3  S      0.36740     0.44505
             14  C  3  X      0.34559     0.32733
             15  C  3  Y      0.60841     0.57985
             16  C  3  Z      0.60543     0.57708
             17  C  3  S      1.21718     0.58498
             18  C  3  X      0.18632     0.37941
             19  C  3  Y      0.58541     0.59127
             20  C  3  Z      0.57251     0.58779
             21  C  4  S      1.98968     1.97679
             22  C  4  S      0.35413     0.42666
             23  C  4  X      0.41298     0.39672
             24  C  4  Y      0.58265     0.55514
             25  C  4  Z      0.57999     0.55265
             26  C  4  S      1.15795     0.57491
             27  C  4  X      0.23707     0.44267
             28  C  4  Y      0.56285     0.58852
             29  C  4  Z      0.54959     0.58526
             30  C  5  S      1.98941     1.97626
             31  C  5  S      0.34636     0.41484
             32  C  5  X      0.47721     0.46139
             33  C  5  Y      0.56493     0.53787
             34  C  5  Z      0.56164     0.53483
             35  C  5  S      1.14282     0.56997
             36  C  5  X      0.29608     0.49408
             37  C  5  Y      0.55330     0.58712
             38  C  5  Z      0.53988     0.58365
             39  C  6  S      1.98897     1.97627
             40  C  6  S      0.35590     0.42292
             41  C  6  X      0.43142     0.41491
             42  C  6  Y      0.56280     0.53538
             43  C  6  Z      0.55257     0.52558
             44  C  6  S      1.09804     0.58117
             45  C  6  X      0.23489     0.44097
             46  C  6  Y      0.52247     0.56357
             47  C  6  Z      0.49985     0.55509
             48  N  7  S      1.98770     1.97797
             49  N  7  S      0.36076     0.47342
             50  N  7  X      0.60519     0.58970
             51  N  7  Y      0.61922     0.59801
             52  N  7  Z      0.61834     0.59746
             53  N  7  S      1.36375     0.75306
             54  N  7  X      0.75539     0.73246
             55  N  7  Y      0.75850     0.72370
             56  N  7  Z      0.75806     0.72453
             57  H  8  S      0.45383     0.45925
             58  H  8  S      0.20153     0.37999
             59  H  9  S      0.45377     0.45924
             60  H  9  S      0.20178     0.38010
             61  H 10  S      0.45571     0.46248
             62  H 10  S      0.22754     0.39394
             63  H 11  S      0.45558     0.46238
             64  H 11  S      0.22757     0.39396
             65  H 12  S      0.45668     0.46384
             66  H 12  S      0.24655     0.40371
             67  H 13  S      0.45659     0.46380
             68  H 13  S      0.24685     0.40386
             69  H 14  S      0.45973     0.46383
             70  H 14  S      0.20585     0.38734
             71  H 15  S      0.45969     0.46382
             72  H 15  S      0.20578     0.38731
             73  H 16  S      0.40426     0.41468
             74  H 16  S      0.13816     0.29629
             75  H 17  S      0.39846     0.40888
             76  H 17  S      0.12661     0.28901
             77  H 18  S      0.42100     0.41103
             78  H 18  S      0.16610     0.34729
             79  H 19  S      0.45275     0.44955
             80  H 19  S      0.21112     0.38390
             81  H 20  S      0.40435     0.41474
             82  H 20  S      0.13812     0.29633

          ----- MULLIKEN ATOMIC OVERLAP POPULATIONS -----
          (OFF-DIAGONAL ELEMENTS NEED TO BE MULTIPLIED BY 2)

             1           2           3           4           5

    1    5.6494127
    2    0.3538018   0.3772590
    3    0.0423077  -0.0372177   5.8242647
    4   -0.0402319  -0.0016720   0.1096235   5.6364655
    5    0.0014669   0.0000054  -0.0427845   0.1941965   5.5509772
    6   -0.0000218  -0.0000006   0.0022352  -0.0598868   0.2158846
    7    0.0000000   0.0000000  -0.0000092   0.0015368  -0.0402150
    8   -0.0328734   0.0018787   0.3594854  -0.0382037  -0.0003240
    9   -0.0329808  -0.0009943   0.3594481  -0.0383321  -0.0003350
   10    0.0000743   0.0016710  -0.0414118   0.3705860  -0.0379133
   11    0.0000796   0.0000210  -0.0414559   0.3705401  -0.0379818
   12   -0.0000092  -0.0000001  -0.0004832  -0.0391630   0.3736571
   13   -0.0000095   0.0000019  -0.0004923  -0.0392863   0.3735888
   14   -0.0000002  -0.0000002  -0.0000301   0.0005054  -0.0398977
   15   -0.0000002   0.0000001  -0.0000305   0.0005046  -0.0399239
   16    0.0000000   0.0000000  -0.0000003  -0.0000103  -0.0002956
   17   -0.0000000  -0.0000000   0.0000001  -0.0000341   0.0018753
   18    0.3143508  -0.0160137  -0.0177722   0.0014361  -0.0000121
   19    0.3537194  -0.0146298  -0.0371774  -0.0016688   0.0000049
   20    0.0000000  -0.0000000  -0.0000003  -0.0000086  -0.0003322

             6           7           8           9          10

    6    5.3595848
    7    0.1350384   6.8814817
    8   -0.0000270  -0.0000000   0.3797077
    9   -0.0000268  -0.0000000  -0.0145429   0.3801550
   10   -0.0008447  -0.0000083   0.0020585  -0.0009982   0.4031436
   11   -0.0008405  -0.0000083  -0.0010089   0.0020659  -0.0156163
   12   -0.0389908  -0.0002734   0.0015596   0.0000414   0.0020943
   13   -0.0390835  -0.0002828   0.0000415   0.0015748  -0.0009664
   14    0.3693339  -0.0243949  -0.0000002   0.0000029   0.0013033
   15    0.3693195  -0.0244326   0.0000029  -0.0000002   0.0000567
   16   -0.0232465   0.2993538   0.0000001  -0.0000002   0.0000011
   17   -0.0182867   0.2997804   0.0000000   0.0000000   0.0000002
   18   -0.0000000   0.0000000  -0.0013741  -0.0014102  -0.0000070
   19   -0.0000006   0.0000000  -0.0010212   0.0018848   0.0000204
   20   -0.0232327   0.2993429  -0.0000002   0.0000001   0.0000011

            11          12          13          14          15

   11    0.4032194
   12   -0.0009645   0.4200919
   13    0.0021024  -0.0168796   0.4205775
   14    0.0000566   0.0018863  -0.0010233   0.3729128
   15    0.0012965  -0.0010343   0.0018919  -0.0144443   0.3728909
   16    0.0000011  -0.0000590   0.0017767  -0.0012602   0.0016212
   17    0.0000002  -0.0000371  -0.0000367  -0.0009958  -0.0010294
   18   -0.0000071   0.0000002   0.0000002   0.0000000   0.0000000
   19    0.0016518   0.0000019  -0.0000001   0.0000001  -0.0000002
   20    0.0000011   0.0017903  -0.0000578   0.0016209  -0.0012174

            16          17          18          19          20

   16    0.2893092
   17   -0.0117245   0.2672839
   18    0.0000000  -0.0000000   0.3239898
   19   -0.0000000  -0.0000000  -0.0160782   0.3771684
   20   -0.0130522  -0.0117215   0.0000000   0.0000000   0.2893291

          TOTAL MULLIKEN AND LOWDIN ATOMIC POPULATIONS
       ATOM         MULL.POP.    CHARGE          LOW.POP.     CHARGE
    1 C             6.609086   -0.609086         6.129746   -0.129746
    2 H             0.664110    0.335890         0.833619    0.166381
    3 C             6.478499   -0.478499         6.050584   -0.050584
    4 C             6.426897   -0.426897         6.099323   -0.099323
    5 C             6.471641   -0.471641         6.160005   -0.160005
    6 C             6.246907   -0.246907         6.015851   -0.015851
    7 N             7.826909   -0.826909         7.170314   -0.170314
    8 H             0.655359    0.344641         0.839234    0.160766
    9 H             0.655552    0.344448         0.839343    0.160657
   10 H             0.683245    0.316755         0.856424    0.143576
   11 H             0.683152    0.316848         0.856349    0.143651
   12 H             0.703229    0.296771         0.867549    0.132451
   13 H             0.703437    0.296563         0.867657    0.132343
   14 H             0.665575    0.334425         0.851169    0.148831
   15 H             0.665471    0.334529         0.851133    0.148867
   16 H             0.542414    0.457586         0.710970    0.289030
   17 H             0.525074    0.474926         0.697890    0.302110
   18 H             0.587102    0.412898         0.758322    0.241678
   19 H             0.663875    0.336125         0.833445    0.166555
   20 H             0.542462    0.457538         0.711072    0.288928

          -------------------------------
          BOND ORDER AND VALENCE ANALYSIS     BOND ORDER THRESHOLD=0.050
          -------------------------------

                   BOND                       BOND                       BOND
  ATOM PAIR DIST  ORDER      ATOM PAIR DIST  ORDER      ATOM PAIR DIST  ORDER
    1   2  1.096  0.859        1   3  1.544  0.598        1  18  1.094  0.759
    1  19  1.096  0.859        3   4  1.547  0.733        3   8  1.098  0.851
    3   9  1.098  0.851        4   5  1.553  0.841        4  10  1.098  0.870
    4  11  1.098  0.870        5   6  1.530  0.886        5  12  1.098  0.881
    5  13  1.098  0.881        6   7  1.569  0.725        6  14  1.092  0.863
    6  15  1.092  0.862        7  16  1.035  0.768        7  17  1.035  0.756
    7  20  1.035  0.768

                       TOTAL       BONDED        FREE
      ATOM            VALENCE     VALENCE     VALENCE
    1 C                 3.246       3.107       0.139
    2 H                 0.853       0.852       0.001
    3 C                 3.199       3.041       0.157
    4 C                 3.370       3.319       0.051
    5 C                 3.500       3.491       0.009
    6 C                 3.316       3.315       0.001
    7 N                 3.020       3.020       0.000
    8 H                 0.842       0.841       0.001
    9 H                 0.842       0.841       0.001
   10 H                 0.860       0.860       0.000
   11 H                 0.860       0.860       0.000
   12 H                 0.873       0.873       0.000
   13 H                 0.873       0.873       0.000
   14 H                 0.854       0.854       0.000
   15 H                 0.854       0.854       0.000
   16 H                 0.766       0.766       0.000
   17 H                 0.753       0.753       0.000
   18 H                 0.800       0.786       0.014
   19 H                 0.852       0.852       0.001
   20 H                 0.766       0.766       0.000

          -----------------------------------------
          ATOMIC SPIN DENSITY AT THE NUCLEUS (A.U.)
          -----------------------------------------
                            SPIN DENS    ALPHA DENS     BETA DENS
    1  C            6.0    -0.0001098      47.07036      47.07047
    2  H            1.0    -0.0077303       0.17239       0.18012
    3  C            6.0    -0.0378760      47.11747      47.15534
    4  C            6.0     0.0212550      47.08545      47.06420
    5  C            6.0     0.0378848      47.05940      47.02152
    6  C            6.0     0.0285694      47.04167      47.01310
    7  N            7.0     0.0134854      76.61339      76.59990
    8  H            1.0    -0.0076089       0.17356       0.18117
    9  H            1.0    -0.0075981       0.17354       0.18113
   10  H            1.0    -0.0053348       0.17576       0.18110
   11  H            1.0    -0.0053288       0.17571       0.18104
   12  H            1.0    -0.0024641       0.17774       0.18020
   13  H            1.0    -0.0024596       0.17770       0.18016
   14  H            1.0    -0.0008679       0.17920       0.18006
   15  H            1.0    -0.0008688       0.17918       0.18005
   16  H            1.0    -0.0004100       0.15937       0.15978
   17  H            1.0     0.0008818       0.15746       0.15658
   18  H            1.0     0.0613903       0.19361       0.13222
   19  H            1.0    -0.0076394       0.17238       0.18002
   20  H            1.0    -0.0004082       0.15941       0.15982

          ---------------------
          ELECTROSTATIC MOMENTS
          ---------------------

 POINT   1           X           Y           Z (BOHR)    CHARGE
                -3.418454   -0.064261    0.066624        2.00 (A.U.)
         DX          DY          DZ         /D/  (DEBYE)
    -3.381710   -0.750512   -0.837751    3.563854
 ...... END OF PROPERTY EVALUATION ......
 CPU     0: STEP CPU TIME=     0.03 TOTAL CPU TIME=          1.7 (      0.0 MIN)
 TOTAL WALL CLOCK TIME=          1.7 SECONDS, CPU UTILIZATION IS    98.27%
               580000  WORDS OF DYNAMIC MEMORY USED
 EXECUTION OF GAMESS TERMINATED NORMALLY Sun May 17 15:40:14 2020
 DDI: 263640 bytes (0.3 MB / 0 MWords) used by master data server.
Note: The following floating-point exceptions are signalling: IEEE_DENORMALNote: The following floating-point exceptions are signalling: IEEE_DENORMALNote: The following floating-point exceptions are signalling: IEEE_DENORMAL
Note: The following floating-point exceptions are signalling: IEEE_DENORMAL
 ----------------------------------------
 CPU timing information for all processes
 ========================================
 0: 1.566 + 0.144 = 1.711
 1: 1.561 + 0.24 = 1.585
 2: 1.546 + 0.32 = 1.578
 3: 1.547 + 0.27 = 1.575
 4: 1.549 + 0.12 = 1.561
 5: 1.556 + 0.08 = 1.564
 ----------------------------------------



Note: The following floating-point exceptions are signalling: IEEE_DENORMALNote: The following floating-point exceptions are signalling:
 IEEE_DENORMAL
 ddikick.x: exited gracefully.
unset echo
----- accounting info -----
Files used on the master node pietdev were:
-rwxr-xr-x 1 piet piet     1254 mei 17 15:40 /home/piet/scr/lysine_1__fukui_base.F05*
-rw-r--r-- 1 piet piet 68812800 mei 17 15:40 /home/piet/scr/lysine_1__fukui_base.F10
ls: No match.
ls: No match.
ls: No match.
zo 17 mei 2020 15:40:17 CEST
0.105u 0.029s 0:04.89 2.4%	0+0k 0+8io 0pf+0w
