----- GAMESS execution script 'rungms' -----
This job is running on host pietdev
under operating system Linux at zo 17 mei 2020 15:37:19 CEST
Available scratch disk space (Kbyte units) at beginning of the job is
Filesystem     1K-blocks     Used Available Use% Mounted on
/dev/sda2      244568380 30380120 201695204  14% /
GAMESS temporary binary files will be written to /home/piet/scr
GAMESS supplementary output files will be written to /home/piet/gamess/scr
Copying input file lysine_1__geoopt.inp to your run's scratch directory...
cp lysine_1__geoopt.inp /home/piet/scr/lysine_1__geoopt.F05
unset echo
 
Assuming a single but multicore node.
 
/home/piet/gamess/ddikick.x /home/piet/gamess/gamess.03.x lysine_1__geoopt -ddi 1 6 pietdev:cpus=6 -scr /home/piet/scr

 Distributed Data Interface kickoff program.
 Initiating 6 compute processes on 1 nodes to run the following command:
 /home/piet/gamess/gamess.03.x lysine_1__geoopt 

          ******************************************************
          *         GAMESS VERSION = 30 SEP 2019 (R2)          *
          *             FROM IOWA STATE UNIVERSITY             *
          * M.W.SCHMIDT, K.K.BALDRIDGE, J.A.BOATZ, S.T.ELBERT, *
          *   M.S.GORDON, J.H.JENSEN, S.KOSEKI, N.MATSUNAGA,   *
          *          K.A.NGUYEN, S.J.SU, T.L.WINDUS,           *
          *       TOGETHER WITH M.DUPUIS, J.A.MONTGOMERY       *
          *         J.COMPUT.CHEM.  14, 1347-1363(1993)        *
          **************** 64 BIT LINUX VERSION ****************

  SINCE 1993, STUDENTS AND POSTDOCS WORKING AT IOWA STATE UNIVERSITY
  AND ALSO IN THEIR VARIOUS JOBS AFTER LEAVING ISU HAVE MADE IMPORTANT
  CONTRIBUTIONS TO THE CODE:
     IVANA ADAMOVIC, CHRISTINE AIKENS, YURI ALEXEEV, POOJA ARORA,
     ANDREY ASADCHEV, ROB BELL, PRADIPTA BANDYOPADHYAY, JONATHAN BENTZ,
     COLLEEN BERTONI, BRETT BODE, KURT BRORSEN, CALEB CARLIN, GALINA CHABAN,
     WEI CHEN, CHEOL HO CHOI, PAUL DAY, ALBERT DEFUSCO, NUWAN DESILVA,
     TIM DUDLEY, DMITRI FEDOROV, ALEX FINDLATER, GRAHAM FLETCHER, 
     MARK FREITAG, KURT GLAESEMANN, EMILIE B GUIDEZ, ANASTASIA GUNINA, 
     DAN KEMP, SAROM SOK LEANG, GRANT MERRILL,
     NORIYUKI MINEZAWA, JONATHAN MULLIN,
     TAKESHI NAGATA, SEAN NEDD, HEATHER NETZLOFF, BOSILJKA NJEGIC, RYAN OLSON,
     MIKE PAK, BUU PHAM, DAVID POOLE,
     SPENCER PRUITT, LUKE ROSKOP, TOSAPORN SATTASATHUCHANA,
     JIM SHOEMAKER, LYUDMILA SLIPCHENKO,
     TONY SMITH, JIE SONG, TETSUYA TAKETSUGU, SIMON WEBB,
     JORGE LUIS GALVEZ VALLEJO, PENG XU, SOOHAENG YOO,
     FEDERICO ZAHARIEV

  ADDITIONAL CODE HAS BEEN PROVIDED BY COLLABORATORS IN OTHER GROUPS:
     IOWA STATE UNIVERSITY:
          JOE IVANIC, AARON WEST, LAIMUTIS BYTAUTAS, KLAUS RUEDENBERG
     UNIVERSITY OF TOKYO: KIMIHIKO HIRAO, TAKAHITO NAKAJIMA,
          TAKAO TSUNEDA, MUNEAKI KAMIYA, SUSUMU YANAGISAWA,
          KIYOSHI YAGI, MAHITO CHIBA, SEIKEN TOKURA, NAOAKI KAWAKAMI
     UNIVERSITY OF AARHUS: FRANK JENSEN
     UNIVERSITY OF IOWA: VISVALDAS KAIRYS, HUI LI
     NATIONAL INST. OF STANDARDS AND TECHNOLOGY: WALT STEVENS, DAVID GARMER
     UNIVERSITY OF PISA: BENEDETTA MENNUCCI, JACOPO TOMASI
     UNIVERSITY OF MEMPHIS: HENRY KURTZ, PRAKASHAN KORAMBATH
     UNIVERSITY OF ALBERTA: TOBY ZENG, MARIUSZ KLOBUKOWSKI
     UNIVERSITY OF NEW ENGLAND: MARK SPACKMAN
     MIE UNIVERSITY: HIROAKI UMEDA
     NAT. INST. OF ADVANCED INDUSTRIAL SCIENCE AND TECHNOLOGY: KAZUO KITAURA
     MICHIGAN STATE UNIVERSITY:
          KAROL KOWALSKI, MARTA WLOCH, JEFFREY GOUR, JESSE LUTZ,
          WEI LI, JUN SHEN, J. EMILIANO DEUSTUA, PIOTR PIECUCH
     UNIVERSITY OF MINNESOTA:
          ANDREW SAND, PRACHI SHARMA, YINAN SHU
     UNIVERSITY OF SILESIA: MONIKA MUSIAL, STANISLAW KUCHARSKI
     FACULTES UNIVERSITAIRES NOTRE-DAME DE LA PAIX:
          OLIVIER QUINET, BENOIT CHAMPAGNE
     UNIVERSITY OF CALIFORNIA - SANTA BARBARA: BERNARD KIRTMAN
     INSTITUTE FOR MOLECULAR SCIENCE:
          KAZUYA ISHIMURA, MICHIO KATOUDA, AND SHIGERU NAGASE
     UNIVERSITY OF NOTRE DAME: ANNA POMOGAEVA, DAN CHIPMAN
     KYUSHU UNIVERSITY:
          HARUYUKI NAKANO,
          FENG LONG GU, JACEK KORCHOWIEC, MARCIN MAKOWSKI, AND YURIKO AOKI,
          HIROTOSHI MORI AND EISAKU MIYOSHI
     PENNSYLVANIA STATE UNIVERSITY:
          TZVETELIN IORDANOV, CHET SWALINA, JONATHAN SKONE,
          SHARON HAMMES-SCHIFFER
     WASEDA UNIVERSITY:
          MASATO KOBAYASHI, TOMOKO AKAMA, TSUGUKI TOUMA,
          TAKESHI YOSHIKAWA, YASUHIRO IKABATA, JUNJI SEINO,
          YUYA NAKAJIMA, HIROMI NAKAI
     NANJING UNIVERSITY: SHUHUA LI
     UNIVERSITY OF NEBRASKA:
          PEIFENG SU, DEJUN SI, NANDUN THELLAMUREGE, YALI WANG, HUI LI
     UNIVERSITY OF ZURICH: ROBERTO PEVERATI, KIM BALDRIDGE
     N. COPERNICUS UNIVERSITY AND JACKSON STATE UNIVERSITY:
          MARIA BARYSZ
     UNIVERSITY OF COPENHAGEN: Jimmy Kromann, CASPER STEINMANN
     TOKYO INSTITUTE OF TECHNOLOGY: HIROYA NAKATA
     NAGOYA UNIVERSITY: YOSHIO NISHIMOTO, STEPHAN IRLE
     MOSCOW STATE UNIVERSITY: VLADIMIR MIRONOV
     A.N.NESMEYANOV INSTITUTE OF ORGANOELEMENT COMPOUNDS OF RUSSIAN ACADEMY OF SCIENCES:
          IGOR S. GERASIMOV
     JOHANNES KEPLER UNIVERSITY LINZ:
          CHRISTIAN FRIEDL


 PARALLEL VERSION RUNNING ON        6 PROCESSORS IN        1 NODES.

 EXECUTION OF GAMESS BEGUN Sun May 17 15:37:19 2020

            ECHO OF THE FIRST FEW INPUT CARDS -
 INPUT CARD> $BASIS GBASIS=N21 NGAUSS=3 $END                                                
 INPUT CARD> $CONTRL SCFTYP=RHF RUNTYP=OPTIMIZE DFTTYP=B3LYP MAXIT=60 MULT=1 ICHARG=1 $END  
 INPUT CARD> $SYSTEM MEMDDI=1000 MWORDS=30 $END                                             
 INPUT CARD> $STATPT NSTEP=999 $END                                                         
 INPUT CARD> $SCF DIRSCF=.TRUE. $END                                                        
 INPUT CARD> $DATA                                                                          
 INPUT CARD>                                                                                
 INPUT CARD>C1                                                                              
 INPUT CARD>C 6.0000000 1.42202 0.34260 0.48121                                             
 INPUT CARD>H 1.0000000 1.43466 0.12755 1.55515                                             
 INPUT CARD>C 6.0000000 0.18846 -0.26289 -0.19481                                           
 INPUT CARD>C 6.0000000 -1.12679 0.27973 0.38339                                            
 INPUT CARD>C 6.0000000 -2.36442 -0.33299 -0.29723                                          
 INPUT CARD>C 6.0000000 -3.65276 0.22285 0.29419                                            
 INPUT CARD>N 7.0000000 -4.87777 -0.39716 -0.38960                                          
 INPUT CARD>H 1.0000000 0.21999 -0.05901 -1.27324                                           
 INPUT CARD>H 1.0000000 0.20663 -1.35549 -0.08575                                           
 INPUT CARD>H 1.0000000 -1.16518 0.07487 1.46153                                            
 INPUT CARD>H 1.0000000 -1.15298 1.37193 0.27075                                            
 INPUT CARD>H 1.0000000 -2.33045 -0.12272 -1.37515                                          
 INPUT CARD>H 1.0000000 -2.34300 -1.42524 -0.17779                                          
 INPUT CARD>H 1.0000000 -3.75831 -0.00468 1.35751                                           
 INPUT CARD>H 1.0000000 -3.74722 1.30202 0.15208                                            
 INPUT CARD>H 1.0000000 -4.88337 -1.41676 -0.27248                                          
 INPUT CARD>H 1.0000000 -5.75910 -0.03299 -0.01093                                          
 INPUT CARD>H 1.0000000 2.34040 -0.06521 0.05015                                            
 INPUT CARD>H 1.0000000 1.45114 1.43058 0.35672                                             
 INPUT CARD>H 1.0000000 -4.86727 -0.20792 -1.39816                                          
 INPUT CARD> $END                                                                           
   30000000 WORDS OF MEMORY AVAILABLE

     BASIS OPTIONS
     -------------
     GBASIS=N21          IGAUSS=       3      POLAR=NONE    
     NDFUNC=       0     NFFUNC=       0     DIFFSP=       F
     NPFUNC=       0      DIFFS=       F     BASNAM=        


     RUN TITLE
     ---------
                                                                                 

 THE POINT GROUP OF THE MOLECULE IS C1      
 THE ORDER OF THE PRINCIPAL AXIS IS     0

 ATOM      ATOMIC                      COORDINATES (BOHR)
           CHARGE         X                   Y                   Z
 C           6.0     2.6872281491        0.6474201234        0.9093550426
 H           1.0     2.7111142855        0.2410345497        2.9388073698
 C           6.0     0.3561377596       -0.4967900649       -0.3681375197
 C           6.0    -2.1293243457        0.5286130505        0.7245020464
 C           6.0    -4.4681059199       -0.6292598567       -0.5616832553
 C           6.0    -6.9027154989        0.4211254364        0.5559384883
 N           7.0    -9.2176487311       -0.7505235733       -0.7362372448
 H           1.0     0.4157208200       -0.1115127305       -2.4060747166
 H           1.0     0.3904740808       -2.5615046791       -0.1620440034
 H           1.0    -2.2018709264        0.1414837847        2.7618912228
 H           1.0    -2.1788162693        2.5925717743        0.5116433112
 H           1.0    -4.4039119281       -0.2319071732       -2.5986566920
 H           1.0    -4.4276279892       -2.6933130667       -0.3359743834
 H           1.0    -7.1021760769       -0.0088439176        2.5653219256
 H           1.0    -7.0812190157        2.4604610305        0.2873895282
 H           1.0    -9.2282311967       -2.6772881904       -0.5149125371
 H           1.0   -10.8831209359       -0.0623420603       -0.0206547050
 H           1.0     4.4227147017       -0.1232290317        0.0947697583
 H           1.0     2.7422569698        2.7034042035        0.6741030543
 H           1.0    -9.1978066083       -0.3929118274       -2.6421392870

          INTERNUCLEAR DISTANCES (ANGS.)
          ------------------------------

                1 C          2 H          3 C          4 C          5 C     

   1 C       0.0000000    1.0953326 *  1.5314344 *  2.5514611 *  3.9242220  
   2 H       1.0953326 *  0.0000000    2.1835333 *  2.8208521 *  4.2516370  
   3 C       1.5314344 *  2.1835333 *  0.0000000    1.5357846 *  2.5558952 *
   4 C       2.5514611 *  2.8208521 *  1.5357846 *  0.0000000    1.5396095 *
   5 C       3.9242220    4.2516370    2.5558952 *  1.5396095 *  0.0000000  
   6 C       5.0796367    5.2422271    3.9025678    2.5281844 *  1.5226804 *
   7 N       6.4025705    6.6260203    5.0717510    3.8891573    2.5158653 *
   8 H       2.1643155 *  3.0838317    1.0979856 *  2.1617086 *  2.7761188 *
   9 H       2.1638221 *  2.5298257 *  1.0981799 *  2.1614915 *  2.7749825 *
  10 H       2.7796242 *  2.6020584 *  2.1656143 *  1.0981017 *  2.1674324 *
  11 H       2.7810859 *  3.1454802    2.1653738 *  1.0983053 *  2.1672426 *
  12 H       4.2123184    4.7775879    2.7852752 *  2.1686923 *  1.0987625 *
  13 H       4.2112842    4.4367728    2.7856125 *  2.1681818 *  1.0989699 *
  14 H       5.2653893    5.1984117    4.2489249    2.8204071 *  2.1883513 *
  15 H       5.2678132    5.4954404    4.2495709    2.8222747 *  2.1879838 *
  16 H       6.5894870    6.7559328    5.2020100    4.1737438    2.7423127 *
  17 H       7.2077565    7.3640045    5.9548414    4.6595684    3.4199152  
  18 H       1.0934091 *  1.7670728 *  2.1748399 *  3.5002056    4.7252207  
  19 H       1.0954662 *  1.7704218 *  2.1832056 *  2.8232765 *  4.2539779  
  20 H       6.5871293    6.9677042    5.1972568    4.1716799    2.7371422 *

                6 C          7 N          8 H          9 H         10 H     

   1 C       5.0796367    6.4025705    2.1643155 *  2.1638221 *  2.7796242 *
   2 H       5.2422271    6.6260203    3.0838317    2.5298257 *  2.6020584 *
   3 C       3.9025678    5.0717510    1.0979856 *  1.0981799 *  2.1656143 *
   4 C       2.5281844 *  3.8891573    2.1617086 *  2.1614915 *  1.0981017 *
   5 C       1.5226804 *  2.5158653 *  2.7761188 *  2.7749825 *  2.1674324 *
   6 C       0.0000000    1.5338288 *  4.1874186    4.1869324    2.7518421 *
   7 N       1.5338288 *  0.0000000    5.1848165    5.1828414    4.1752628  
   8 H       4.1874186    5.1848165    0.0000000    1.7581727 *  3.0684828  
   9 H       4.1869324    5.1828414    1.7581727 *  0.0000000    2.5143325 *
  10 H       2.7518421 *  4.1752628    3.0684828    2.5143325 *  0.0000000  
  11 H       2.7513332 *  4.1760989    2.5132730 *  3.0682978    1.7608153 *
  12 H       2.1574565 *  2.7450802 *  2.5532702 *  3.1014592    3.0730521  
  13 H       2.1574144 *  2.7435143 *  3.1041122    2.5522440 *  2.5149473 *
  14 H       1.0925018 *  2.1117823 *  4.7697661    4.4303991    2.5964344 *
  15 H       1.0925776 *  2.1115807 *  4.4297511    4.7698902    3.1444375  
  16 H       2.1269313 *  1.0263199 *  5.3748757    5.0937925    4.3653966  
  17 H       2.1436465 *  1.0260377 *  6.1109427    6.1110178    4.8253366  
  18 H       6.0050396    7.2391677    2.4995076 *  2.4972516 *  3.7816276  
  19 H       5.2452185    6.6296854    2.5281175 *  3.0833052    3.1470121  
  20 H       2.1271215 *  1.0262141 *  5.0909718    5.3650534    4.6864984  

               11 H         12 H         13 H         14 H         15 H     

   1 C       2.7810859 *  4.2123184    4.2112842    5.2653893    5.2678132  
   2 H       3.1454802    4.7775879    4.4367728    5.1984117    5.4954404  
   3 C       2.1653738 *  2.7852752 *  2.7856125 *  4.2489249    4.2495709  
   4 C       1.0983053 *  2.1686923 *  2.1681818 *  2.8204071 *  2.8222747 *
   5 C       2.1672426 *  1.0987625 *  1.0989699 *  2.1883513 *  2.1879838 *
   6 C       2.7513332 *  2.1574565 *  2.1574144 *  1.0925018 *  1.0925776 *
   7 N       4.1760989    2.7450802 *  2.7435143 *  2.1117823 *  2.1115807 *
   8 H       2.5132730 *  2.5532702 *  3.1041122    4.7697661    4.4297511  
   9 H       3.0682978    3.1014592    2.5522440 *  4.4303991    4.7698902  
  10 H       1.7608153 *  3.0730521    2.5149473 *  2.5964344 *  3.1444375  
  11 H       0.0000000    2.5158301 *  3.0727017    3.1406762    2.5978936 *
  12 H       2.5158301 *  0.0000000    1.7692899 *  3.0854738    2.5237973 *
  13 H       3.0727017    1.7692899 *  0.0000000    2.5255176 *  3.0852221  
  14 H       3.1406762    3.0854738    2.5255176 *  0.0000000    1.7778215 *
  15 H       2.5978936 *  2.5237973 *  3.0852221    1.7778215 *  0.0000000  
  16 H       4.6891044    3.0672172    2.5421483 *  2.4324057 *  2.9770544 *
  17 H       4.8238455    3.6911771    3.6926876    2.4241679 *  2.4200176 *
  18 H       3.7838789    4.8838128    4.8821997    6.2375570    6.2400981  
  19 H       2.6061987 *  4.4398803    4.7787977    5.4954455    5.2039746  
  20 H       4.3677382    2.5383546 *  3.0566501    2.9773841 *  2.4367345 *

               16 H         17 H         18 H         19 H         20 H     

   1 C       6.5894870    7.2077565    1.0934091 *  1.0954662 *  6.5871293  
   2 H       6.7559328    7.3640045    1.7670728 *  1.7704218 *  6.9677042  
   3 C       5.2020100    5.9548414    2.1748399 *  2.1832056 *  5.1972568  
   4 C       4.1737438    4.6595684    3.5002056    2.8232765 *  4.1716799  
   5 C       2.7423127 *  3.4199152    4.7252207    4.2539779    2.7371422 *
   6 C       2.1269313 *  2.1436465 *  6.0050396    5.2452185    2.1271215 *
   7 N       1.0263199 *  1.0260377 *  7.2391677    6.6296854    1.0262141 *
   8 H       5.3748757    6.1109427    2.4995076 *  2.5281175 *  5.0909718  
   9 H       5.0937925    6.1110178    2.4972516 *  3.0833052    5.3650534  
  10 H       4.3653966    4.8253366    3.7816276    3.1470121    4.6864984  
  11 H       4.6891044    4.8238455    3.7838789    2.6061987 *  4.3677382  
  12 H       3.0672172    3.6911771    4.8838128    4.4398803    2.5383546 *
  13 H       2.5421483 *  3.6926876    4.8821997    4.7787977    3.0566501  
  14 H       2.4324057 *  2.4241679 *  6.2375570    5.4954455    2.9773841 *
  15 H       2.9770544 *  2.4200176 *  6.2400981    5.2039746    2.4367345 *
  16 H       0.0000000    1.6583518 *  7.3561967    6.9734679    1.6518804 *
  17 H       1.6583518 *  0.0000000    8.0997944    7.3664621    1.6584234 *
  18 H       7.3561967    8.0997944    0.0000000    1.7669624 *  7.3531269  
  19 H       6.9734679    7.3664621    1.7669624 *  0.0000000    6.7591857  
  20 H       1.6518804 *  1.6584234 *  7.3531269    6.7591857    0.0000000  

  * ... LESS THAN  3.000


     ATOMIC BASIS SET
     ----------------
 THE CONTRACTED PRIMITIVE FUNCTIONS HAVE BEEN UNNORMALIZED
 THE CONTRACTED BASIS FUNCTIONS ARE NOW NORMALIZED TO UNITY

  SHELL TYPE  PRIMITIVE        EXPONENT          CONTRACTION COEFFICIENT(S)

 C         

      1   S       1           172.2560000    0.061766907377
      1   S       2            25.9109000    0.358794042852
      1   S       3             5.5333500    0.700713083689

      2   L       4             3.6649800   -0.395895162119    0.236459946619
      2   L       5             0.7705450    1.215834355681    0.860618805716

      3   L       6             0.1958570    1.000000000000    1.000000000000

 H         

      4   S       7             5.4471780    0.156284978695
      4   S       8             0.8245472    0.904690876670

      5   S       9             0.1831916    1.000000000000

 C         

      6   S      10           172.2560000    0.061766907377
      6   S      11            25.9109000    0.358794042852
      6   S      12             5.5333500    0.700713083689

      7   L      13             3.6649800   -0.395895162119    0.236459946619
      7   L      14             0.7705450    1.215834355681    0.860618805716

      8   L      15             0.1958570    1.000000000000    1.000000000000

 C         

      9   S      16           172.2560000    0.061766907377
      9   S      17            25.9109000    0.358794042852
      9   S      18             5.5333500    0.700713083689

     10   L      19             3.6649800   -0.395895162119    0.236459946619
     10   L      20             0.7705450    1.215834355681    0.860618805716

     11   L      21             0.1958570    1.000000000000    1.000000000000

 C         

     12   S      22           172.2560000    0.061766907377
     12   S      23            25.9109000    0.358794042852
     12   S      24             5.5333500    0.700713083689

     13   L      25             3.6649800   -0.395895162119    0.236459946619
     13   L      26             0.7705450    1.215834355681    0.860618805716

     14   L      27             0.1958570    1.000000000000    1.000000000000

 C         

     15   S      28           172.2560000    0.061766907377
     15   S      29            25.9109000    0.358794042852
     15   S      30             5.5333500    0.700713083689

     16   L      31             3.6649800   -0.395895162119    0.236459946619
     16   L      32             0.7705450    1.215834355681    0.860618805716

     17   L      33             0.1958570    1.000000000000    1.000000000000

 N         

     18   S      34           242.7660000    0.059865700508
     18   S      35            36.4851000    0.352955002994
     18   S      36             7.8144900    0.706513005993

     19   L      37             5.4252200   -0.413300077430    0.237972016222
     19   L      38             1.1491500    1.224417266851    0.858953058551

     20   L      39             0.2832050    1.000000000000    1.000000000000

 H         

     21   S      40             5.4471780    0.156284978695
     21   S      41             0.8245472    0.904690876670

     22   S      42             0.1831916    1.000000000000

 H         

     23   S      43             5.4471780    0.156284978695
     23   S      44             0.8245472    0.904690876670

     24   S      45             0.1831916    1.000000000000

 H         

     25   S      46             5.4471780    0.156284978695
     25   S      47             0.8245472    0.904690876670

     26   S      48             0.1831916    1.000000000000

 H         

     27   S      49             5.4471780    0.156284978695
     27   S      50             0.8245472    0.904690876670

     28   S      51             0.1831916    1.000000000000

 H         

     29   S      52             5.4471780    0.156284978695
     29   S      53             0.8245472    0.904690876670

     30   S      54             0.1831916    1.000000000000

 H         

     31   S      55             5.4471780    0.156284978695
     31   S      56             0.8245472    0.904690876670

     32   S      57             0.1831916    1.000000000000

 H         

     33   S      58             5.4471780    0.156284978695
     33   S      59             0.8245472    0.904690876670

     34   S      60             0.1831916    1.000000000000

 H         

     35   S      61             5.4471780    0.156284978695
     35   S      62             0.8245472    0.904690876670

     36   S      63             0.1831916    1.000000000000

 H         

     37   S      64             5.4471780    0.156284978695
     37   S      65             0.8245472    0.904690876670

     38   S      66             0.1831916    1.000000000000

 H         

     39   S      67             5.4471780    0.156284978695
     39   S      68             0.8245472    0.904690876670

     40   S      69             0.1831916    1.000000000000

 H         

     41   S      70             5.4471780    0.156284978695
     41   S      71             0.8245472    0.904690876670

     42   S      72             0.1831916    1.000000000000

 H         

     43   S      73             5.4471780    0.156284978695
     43   S      74             0.8245472    0.904690876670

     44   S      75             0.1831916    1.000000000000

 H         

     45   S      76             5.4471780    0.156284978695
     45   S      77             0.8245472    0.904690876670

     46   S      78             0.1831916    1.000000000000

 TOTAL NUMBER OF BASIS SET SHELLS             =   46
 NUMBER OF CARTESIAN GAUSSIAN BASIS FUNCTIONS =   82
 NUMBER OF ELECTRONS                          =   50
 CHARGE OF MOLECULE                           =    1
 SPIN MULTIPLICITY                            =    1
 NUMBER OF OCCUPIED ORBITALS (ALPHA)          =   25
 NUMBER OF OCCUPIED ORBITALS (BETA )          =   25
 TOTAL NUMBER OF ATOMS                        =   20
 THE NUCLEAR REPULSION ENERGY IS      253.3998219333

 SELECTED MURRAY-HANDY-LAMING RADIAL GRID

 LEGACY BECKE'S FUZZY CELL METHOD

 SELECTED ORIGINAL BECKE'S PARTITION FUNCTION

     LEBEDEV GRID-BASED DFT OPTIONS
     ------------------------------
     DFTTYP=B3LYP   
     NRAD  =      96     NLEB  =     302
     NRAD0 =      24     NLEB0 =     110
     SWOFF =    5.00E-03 (PURE SCF -> DFT)
     SWITCH=    3.00E-04 (COARSE -> TIGHT GRID)
     THRESH=    0.00E+00 GTHRE=    1.00E+00

 GRIMME'S EMPIRICAL DISPERSION CORRECTION= F

     $CONTRL OPTIONS
     ---------------
 SCFTYP=RHF          RUNTYP=OPTIMIZE     EXETYP=RUN     
 MPLEVL=       0     CITYP =NONE         CCTYP =NONE         VBTYP =NONE    
 DFTTYP=B3LYP        TDDFT =NONE    
 MULT  =       1     ICHARG=       1     NZVAR =       0     COORD =UNIQUE  
 PP    =NONE         RELWFN=NONE         LOCAL =NONE         NUMGRD=       F
 ISPHER=      -1     NOSYM =       0     MAXIT =      60     UNITS =ANGS    
 PLTORB=       F     MOLPLT=       F     AIMPAC=       F     FRIEND=        
 NPRINT=       7     IREST =       0     GEOM  =INPUT   
 NORMF =       0     NORMP =       0     ITOL  =      20     ICUT  =       9
 INTTYP=BEST         GRDTYP=BEST         QMTTOL= 1.0E-06

     $SYSTEM OPTIONS
     ---------------
  REPLICATED MEMORY=    30000000 WORDS (ON EVERY NODE).
 DISTRIBUTED MEMDDI=        1000 MILLION WORDS IN AGGREGATE,
 MEMDDI DISTRIBUTED OVER   6 PROCESSORS IS   166666666 WORDS/PROCESSOR.
 TOTAL MEMORY REQUESTED ON EACH PROCESSOR=   196666666 WORDS.
 TIMLIM=      525600.00 MINUTES, OR     365.0 DAYS.
 PARALL= T  BALTYP=  DLB     KDIAG=    0  COREFL= F
 MXSEQ2=     300 MXSEQ3=     150  mem10=         0

          ----------------
          PROPERTIES INPUT
          ----------------

     MOMENTS            FIELD           POTENTIAL          DENSITY
 IEMOM =       1   IEFLD =       0   IEPOT =       0   IEDEN =       0
 WHERE =COMASS     WHERE =NUCLEI     WHERE =NUCLEI     WHERE =NUCLEI  
 OUTPUT=BOTH       OUTPUT=BOTH       OUTPUT=BOTH       OUTPUT=BOTH    
 IEMINT=       0   IEFINT=       0                     IEDINT=       0
                                                       MORB  =       0
          EXTRAPOLATION IN EFFECT
          DIIS IN EFFECT
 ORBITAL PRINTING OPTION: NPREO=     1    82     2     1

     -------------------------------
     INTEGRAL TRANSFORMATION OPTIONS
     -------------------------------
     NWORD  =            0
     CUTOFF = 1.0E-09     MPTRAN =       0
     DIRTRF =       T     AOINTS =DUP     

          ----------------------
          INTEGRAL INPUT OPTIONS
          ----------------------
 NOPK  =       1 NORDER=       0 SCHWRZ=       T

     ------------------------------------------
     THE POINT GROUP IS C1 , NAXIS= 0, ORDER= 1
     ------------------------------------------

     DIMENSIONS OF THE SYMMETRY SUBSPACES ARE
 A   =   82

 ..... DONE SETTING UP THE RUN .....
 CPU     0: STEP CPU TIME=     0.02 TOTAL CPU TIME=          0.0 (      0.0 MIN)
 TOTAL WALL CLOCK TIME=          0.0 SECONDS, CPU UTILIZATION IS    66.67%


          -----------------------------
          STATIONARY POINT LOCATION RUN
          -----------------------------

 OBTAINING INITIAL HESSIAN, HESS=GUESS   
 CARTESIAN COORDINATE OPTIMIZATION USING BADGER'S RULE FORCE CONSTANT GUESS

          PARAMETERS CONTROLLING GEOMETRY SEARCH ARE
          METHOD =QA                  UPHESS =BFGS    
          NNEG   =         0          NFRZ   =         0
          NSTEP  =       999          IFOLOW =         1
          HESS   =GUESS               RESTAR =         F
          IHREP  =         0          HSSEND =         F
          NPRT   =         0          NPUN   =         0
          OPTTOL = 1.000E-04          RMIN   = 1.500E-03
          RMAX   = 1.000E-01          RLIM   = 7.000E-02
          DXMAX  = 3.000E-01          PURIFY =         F
          MOVIE  =         F          TRUPD  =         T
          TRMAX  = 5.000E-01          TRMIN  = 5.000E-02
          ITBMAT =         5          STPT   =         F
          STSTEP = 1.000E-02          PROJCT=          T

 BEGINNING GEOMETRY SEARCH POINT NSERCH=   0 ...

 COORDINATES OF ALL ATOMS ARE (ANGS)
   ATOM   CHARGE       X              Y              Z
 ------------------------------------------------------------
 C           6.0   1.4220200000   0.3426000000   0.4812100000
 H           1.0   1.4346600000   0.1275500000   1.5551500000
 C           6.0   0.1884600000  -0.2628900000  -0.1948100000
 C           6.0  -1.1267900000   0.2797300000   0.3833900000
 C           6.0  -2.3644200000  -0.3329900000  -0.2972300000
 C           6.0  -3.6527600000   0.2228500000   0.2941900000
 N           7.0  -4.8777700000  -0.3971600000  -0.3896000000
 H           1.0   0.2199900000  -0.0590100000  -1.2732400000
 H           1.0   0.2066300000  -1.3554900000  -0.0857500000
 H           1.0  -1.1651800000   0.0748700000   1.4615300000
 H           1.0  -1.1529800000   1.3719300000   0.2707500000
 H           1.0  -2.3304500000  -0.1227200000  -1.3751500000
 H           1.0  -2.3430000000  -1.4252400000  -0.1777900000
 H           1.0  -3.7583100000  -0.0046800000   1.3575100000
 H           1.0  -3.7472200000   1.3020200000   0.1520800000
 H           1.0  -4.8833700000  -1.4167600000  -0.2724800000
 H           1.0  -5.7591000000  -0.0329900000  -0.0109300000
 H           1.0   2.3404000000  -0.0652100000   0.0501500000
 H           1.0   1.4511400000   1.4305800000   0.3567200000
 H           1.0  -4.8672700000  -0.2079200000  -1.3981600000

          ********************
          1 ELECTRON INTEGRALS
          ********************
 ...... END OF ONE-ELECTRON INTEGRALS ......
 CPU     0: STEP CPU TIME=     0.01 TOTAL CPU TIME=          0.0 (      0.0 MIN)
 TOTAL WALL CLOCK TIME=          0.0 SECONDS, CPU UTILIZATION IS    75.00%

          -------------
          GUESS OPTIONS
          -------------
          GUESS =HUCKEL            NORB  =       0          NORDER=       0
          MIX   =       F          PRTMO =       F          PUNMO =       F
          TOLZ  = 1.0E-08          TOLE  = 1.0E-05
          SYMDEN=       F          PURIFY=       F

 INITIAL GUESS ORBITALS GENERATED BY HUCKEL   ROUTINE.
 HUCKEL GUESS REQUIRES     70820 WORDS.

 SYMMETRIES FOR INITIAL GUESS ORBITALS FOLLOW.   BOTH SET(S).
    25 ORBITALS ARE OCCUPIED (    6 CORE ORBITALS).
     7=A        8=A        9=A       10=A       11=A       12=A       13=A   
    14=A       15=A       16=A       17=A       18=A       19=A       20=A   
    21=A       22=A       23=A       24=A       25=A       26=A       27=A   
    28=A       29=A       30=A       31=A       32=A       33=A       34=A   
    35=A   
 ...... END OF INITIAL ORBITAL SELECTION ......
 CPU     0: STEP CPU TIME=     0.02 TOTAL CPU TIME=          0.0 (      0.0 MIN)
 TOTAL WALL CLOCK TIME=          0.1 SECONDS, CPU UTILIZATION IS    83.33%

                    ----------------------
                    AO INTEGRAL TECHNOLOGY
                    ----------------------
     S,P,L SHELL ROTATED AXIS INTEGRALS, REPROGRAMMED BY
        KAZUYA ISHIMURA (IMS) AND JOSE SIERRA (SYNSTAR).
     S,P,D,L SHELL ROTATED AXIS INTEGRALS PROGRAMMED BY
        KAZUYA ISHIMURA (INSTITUTE FOR MOLECULAR SCIENCE).
     S,P,D,F,G SHELL TO TOTAL QUARTET ANGULAR MOMENTUM SUM 5,
        ERIC PROGRAM BY GRAHAM FLETCHER (ELORET AND NASA ADVANCED
        SUPERCOMPUTING DIVISION, AMES RESEARCH CENTER).
     S,P,D,F,G,L SHELL GENERAL RYS QUADRATURE PROGRAMMED BY
        MICHEL DUPUIS (PACIFIC NORTHWEST NATIONAL LABORATORY).

          --------------------
          2 ELECTRON INTEGRALS
          --------------------

 DIRECT SCF METHOD SKIPS INTEGRAL STORAGE ON DISK.
 DIRECT TRANSFORMATION SKIPS AO INTEGRAL STORAGE ON DISK.
  ...... END OF TWO-ELECTRON INTEGRALS .....
 CPU     0: STEP CPU TIME=     0.01 TOTAL CPU TIME=          0.1 (      0.0 MIN)
 TOTAL WALL CLOCK TIME=          0.1 SECONDS, CPU UTILIZATION IS    85.71%

          --------------------------
             R-B3LYP SCF CALCULATION
          --------------------------

     NUCLEAR ENERGY =       253.3998219333
     MAXIT =   60     NPUNCH=    2
     EXTRAP=T  DAMP=F  SHIFT=F  RSTRCT=F  DIIS=T  DEM=F  SOSCF=F
         DENSITY MATRIX CONVERGENCE THRESHOLD=  2.00E-05
     COARSE -> FINE DFT GRID SWITCH THRESHOLD=  3.00E-04 (SWITCH IN $DFT)
                   HF -> DFT SWITCH THRESHOLD=  5.00E-03 (SWOFF IN $DFT)
     MEMORY REQUIRED FOR RHF ITERS=    750602 WORDS.

 DIRECT SCF CALCULATION, SCHWRZ=T   FDIFF=T,  DIRTHR=  0.00E+00 NITDIR=10
 SCHWARZ INEQUALITY OVERHEAD:      3206 INTEGRALS, T=        0.00

 DFT CODE IS SWITCHING FROM THE FINE GRID NRAD= 96,  NLEB=  302
                      TO THE COARSE GRID NRAD0= 24, NLEB0=  110

     EXCHANGE FUNCTIONAL   =B88&HFX   
     CORRELATION FUNCTIONAL=LYP88&VWN5
     DFT THRESHOLD         =.690E-08
     GRID CHANGE THRESHOLD =.300E-03
 FOR AN EULER-MACLAURIN QUADRATURE USING  96 RADIAL POINTS:
 SMALLEST GAUSSIAN PRIMITIVE EXPONENT=        0.1831915800 OF TYPE -S-
 ON ATOM NUMBER   2 HAS RADIAL NORMALIZATION=  1.000000
  LARGEST GAUSSIAN PRIMITIVE EXPONENT=      242.7660000000 OF TYPE -S-
 ON ATOM NUMBER   7 HAS RADIAL NORMALIZATION=  1.000000
 DFT IS SWITCHED OFF, PERFORMING PURE SCF UNTIL SWOFF THRESHOLD IS REACHED.

                                                                                   NONZERO     BLOCKS
 ITER EX DEM     TOTAL ENERGY        E CHANGE  DENSITY CHANGE    DIIS ERROR      INTEGRALS    SKIPPED
   1  0  0     -249.6750659022  -249.6750659022   0.713837270   0.637627947        3829346     233184
          * * *   INITIATING DIIS PROCEDURE   * * *
   2  1  0     -250.2846940094    -0.6096281072   0.130340317   0.138758254        3816422     240517
   3  2  0     -250.3334280980    -0.0487340887   0.041885867   0.059688271        3770442     255533
   4  3  0     -250.3454930819    -0.0120649839   0.021935726   0.006605045        3686889     276411
   5  4  0     -250.3458203947    -0.0003273128   0.003230870   0.001816238        3629893     285765
 CONVERGED TO SWOFF, SO DFT CALCULATION IS NOW SWITCHED ON.
          * * *   INITIATING DIIS PROCEDURE   * * *
   6  5  0     -251.9154660573    -1.5696456625   0.065501248   0.072914345        3830932     231857
   7  6  0     -251.9289651132    -0.0134990559   0.042553225   0.034244856        3780999     253912
   8  7  0     -251.9312920767    -0.0023269635   0.020540300   0.023947008        3733455     263706
   9  8  0     -251.9339326212    -0.0026405445   0.001321820   0.001044133        3675723     276228
  10  9  0     -251.9339362019    -0.0000035807   0.000278062   0.000268343        3362734     323845
 DFT CODE IS SWITCHING BACK TO THE FINE GRID
          * * *   INITIATING DIIS PROCEDURE   * * *
  11 10  0     -251.9366002729    -0.0026640710   0.003670641   0.001559594        3832237     230837
  12 11  0     -251.9366116122    -0.0000113393   0.000481138   0.000269701        3539920     301255
  13 12  0     -251.9366115896     0.0000000226   0.000322556   0.000292133        3288672     331606
  14 13  0     -251.9366119578    -0.0000003682   0.000022179   0.000025814        3190063     342824
  15 14  0     -251.9366119594    -0.0000000016   0.000008712   0.000013742        2793249     384191
  16 15  0     -251.9366119598    -0.0000000005   0.000001272   0.000001139        2609359     402141

          -----------------
          DENSITY CONVERGED
          -----------------
     TIME TO FORM FOCK OPERATORS=       6.8 SECONDS (       0.4 SEC/ITER)
     FOCK TIME ON FIRST ITERATION=       0.1, LAST ITERATION=       1.0
     TIME TO SOLVE SCF EQUATIONS=       0.1 SECONDS (       0.0 SEC/ITER)

 FINAL R-B3LYP ENERGY IS     -251.9366119598 AFTER  16 ITERATIONS
 DFT EXCHANGE + CORRELATION ENERGY =       -31.2969615360
 TOTAL ELECTRON NUMBER             =        50.0002829933

          ------------
          EIGENVECTORS
          ------------

                      1          2          3          4          5
                  -14.5836   -10.3687   -10.2909   -10.2529   -10.2273
                     A          A          A          A          A   
    1  C  1  S    0.000006  -0.000180  -0.001203  -0.003086  -0.013381
    2  C  1  S   -0.000012  -0.000282  -0.001161  -0.001392  -0.004254
    3  C  1  X    0.000184   0.000056   0.000432   0.000900  -0.000316
    4  C  1  Y   -0.000024   0.000022  -0.000103  -0.000060  -0.000002
    5  C  1  Z   -0.000024   0.000026  -0.000106  -0.000053  -0.000007
    6  C  1  S   -0.000853   0.001704   0.003303   0.001464   0.025268
    7  C  1  X   -0.000099  -0.000779  -0.003398  -0.000596  -0.011579
    8  C  1  Y    0.000376  -0.000735   0.000425   0.000369  -0.005143
    9  C  1  Z    0.000405  -0.000820   0.000419   0.000379  -0.005738
   10  H  2  S   -0.000015  -0.000093  -0.000471   0.000046  -0.001477
   11  H  2  S   -0.000059   0.000288  -0.000189  -0.001322   0.000443
   12  C  3  S   -0.000039  -0.000831  -0.001923  -0.014257   0.986660
   13  C  3  S   -0.000207  -0.001133  -0.000760  -0.004419   0.115498
   14  C  3  X   -0.000178   0.000473   0.000771  -0.000317  -0.000203
   15  C  3  Y   -0.000063   0.000107   0.000201  -0.000137   0.000108
   16  C  3  Z   -0.000072   0.000120   0.000228  -0.000155   0.000120
   17  C  3  S    0.002146   0.003788  -0.001170   0.024958  -0.104973
   18  C  3  X   -0.000062  -0.004631  -0.000517  -0.013212   0.001316
   19  C  3  Y    0.001038  -0.000338  -0.001602   0.004695  -0.004905
   20  C  3  Z    0.001139  -0.000415  -0.001762   0.004996  -0.005383
   21  C  4  S   -0.000122  -0.001397  -0.009822   0.986707   0.013405
   22  C  4  S   -0.000756  -0.001104  -0.004140   0.115594  -0.001297
   23  C  4  X    0.000637   0.001048  -0.000137  -0.000369   0.000034
   24  C  4  Y   -0.000065  -0.000246   0.000188  -0.000155   0.000227
   25  C  4  Z   -0.000063  -0.000258   0.000204  -0.000175   0.000245
   26  C  4  S    0.001818  -0.000041   0.026901  -0.105162   0.024138
   27  C  4  X   -0.004545  -0.003168  -0.012968   0.000138   0.013479
   28  C  4  Y    0.000404   0.001904  -0.006244   0.005056  -0.005546
   29  C  4  Z    0.000387   0.002048  -0.006937   0.005525  -0.005889
   30  C  5  S    0.000167  -0.005436   0.986822   0.008916   0.002051
   31  C  5  S    0.000474  -0.003581   0.115860  -0.001875  -0.000371
   32  C  5  X    0.000584   0.000344  -0.000384   0.000261  -0.000783
   33  C  5  Y    0.000140  -0.000239   0.000209  -0.000182   0.000188
   34  C  5  Z    0.000159  -0.000258   0.000228  -0.000195   0.000196
   35  C  5  S   -0.005815   0.024839  -0.106850   0.024418  -0.001214
   36  C  5  X    0.002360  -0.014576  -0.000100   0.011937   0.001151
   37  C  5  Y   -0.001945   0.005152  -0.005770   0.006055  -0.001729
   38  C  5  Z   -0.002104   0.005455  -0.006313   0.006721  -0.001869
   39  C  6  S   -0.000853   0.986643   0.004644   0.001357   0.000569
   40  C  6  S   -0.003696   0.113683  -0.002474  -0.000730  -0.000975
   41  C  6  X   -0.001020  -0.000425   0.000350  -0.000726  -0.000411
   42  C  6  Y   -0.000453  -0.000153   0.000234  -0.000134  -0.000076
   43  C  6  Z   -0.000498  -0.000172   0.000255  -0.000152  -0.000088
   44  C  6  S    0.022730  -0.096407   0.025511   0.000056   0.003499
   45  C  6  X   -0.007625  -0.004431   0.012333   0.000232   0.003783
   46  C  6  Y   -0.005313   0.003441  -0.005733   0.001292   0.000347
   47  C  6  Z   -0.005842   0.003713  -0.006090   0.001392   0.000418
   48  N  7  S    0.984974  -0.000249   0.000045  -0.000055  -0.000017
   49  N  7  S    0.110684  -0.001374  -0.000139  -0.000550  -0.000142
   50  N  7  X    0.000352   0.000043  -0.000524  -0.000475  -0.000029
   51  N  7  Y    0.000185   0.000012   0.000097   0.000042  -0.000088
   52  N  7  Z    0.000204   0.000018   0.000096   0.000039  -0.000095
   53  N  7  S   -0.068492   0.012878  -0.001134   0.001288   0.000812
   54  N  7  X   -0.004512   0.007122  -0.000355   0.002314   0.000328
   55  N  7  Y   -0.002113   0.003054  -0.000622  -0.000163   0.000598
   56  N  7  Z   -0.002331   0.003358  -0.000658  -0.000147   0.000650
   57  H  8  S   -0.000035  -0.000476   0.000076  -0.001460   0.000818
   58  H  8  S    0.000296  -0.000124  -0.001503   0.000598   0.016352
   59  H  9  S   -0.000035  -0.000478   0.000076  -0.001461   0.000828
   60  H  9  S    0.000291  -0.000123  -0.001498   0.000589   0.016362
   61  H 10  S   -0.000457  -0.000197  -0.001474   0.000794  -0.001410
   62  H 10  S    0.000094  -0.001485   0.000715   0.016452   0.001218
   63  H 11  S   -0.000459  -0.000199  -0.001475   0.000801  -0.001408
   64  H 11  S    0.000094  -0.001472   0.000717   0.016449   0.001230
   65  H 12  S    0.000469  -0.001494   0.000829  -0.001462   0.000028
   66  H 12  S   -0.001257   0.001032   0.016342   0.001141  -0.001511
   67  H 13  S    0.000464  -0.001494   0.000837  -0.001464   0.000030
   68  H 13  S   -0.001235   0.001032   0.016351   0.001146  -0.001518
   69  H 14  S   -0.001582   0.000285  -0.001484   0.000046  -0.000412
   70  H 14  S   -0.001336   0.016971   0.001060  -0.001414  -0.000061
   71  H 15  S   -0.001585   0.000290  -0.001483   0.000047  -0.000409
   72  H 15  S   -0.001338   0.016980   0.001071  -0.001426  -0.000061
   73  H 16  S    0.002652  -0.000903   0.000008  -0.000443  -0.000003
   74  H 16  S    0.007533   0.002031  -0.000931   0.000514   0.000311
   75  H 17  S    0.002632  -0.000547  -0.000049   0.000296  -0.000174
   76  H 17  S    0.007487   0.001255   0.001533   0.000650   0.000197
   77  H 18  S    0.000071  -0.000163   0.000051  -0.000277  -0.001170
   78  H 18  S    0.000398   0.000104   0.001276   0.001612  -0.000101
   79  H 19  S   -0.000015  -0.000093  -0.000470   0.000045  -0.001477
   80  H 19  S   -0.000062   0.000280  -0.000189  -0.001329   0.000458
   81  H 20  S    0.002649  -0.000906   0.000007  -0.000449  -0.000002
   82  H 20  S    0.007544   0.002010  -0.000912   0.000529   0.000312

                      6          7          8          9         10
                  -10.2008    -1.2058    -0.9710    -0.8994    -0.8361
                     A          A          A          A          A   
    1  C  1  S    0.986219  -0.000023  -0.013657   0.076682   0.110931
    2  C  1  S    0.112276   0.000090   0.015765  -0.076897  -0.107622
    3  C  1  X   -0.000196  -0.000321  -0.010851   0.037523   0.024184
    4  C  1  Y    0.000083  -0.000004  -0.002659   0.013231   0.013473
    5  C  1  Z    0.000086  -0.000009  -0.003032   0.014891   0.015012
    6  C  1  S   -0.091010   0.001019   0.019827  -0.173020  -0.291272
    7  C  1  X    0.004552   0.000221   0.006185   0.002098   0.004865
    8  C  1  Y    0.001590  -0.000094   0.001272  -0.000073   0.001910
    9  C  1  Z    0.001803  -0.000090   0.001478  -0.000030   0.002176
   10  H  2  S   -0.000045   0.000022   0.006355  -0.034847  -0.055151
   11  H  2  S    0.016106  -0.000126   0.000018  -0.000022  -0.001462
   12  C  3  S    0.012708  -0.000049  -0.039622   0.129627   0.087389
   13  C  3  S   -0.000675   0.001317   0.040266  -0.123629  -0.081381
   14  C  3  X   -0.000257  -0.000240  -0.022953   0.019326  -0.057182
   15  C  3  Y   -0.000223   0.000087   0.006478  -0.020704  -0.013065
   16  C  3  Z   -0.000248   0.000093   0.006838  -0.022437  -0.014931
   17  C  3  S    0.018685  -0.008205   0.080608  -0.322562  -0.248101
   18  C  3  X    0.011311   0.004115   0.006467   0.008096  -0.004947
   19  C  3  Y    0.005040  -0.002591   0.001351  -0.004540  -0.005863
   20  C  3  Z    0.005646  -0.002795   0.001567  -0.004950  -0.006500
   21  C  4  S    0.003121  -0.001982  -0.087212   0.117945  -0.039283
   22  C  4  S   -0.000675   0.003035   0.086432  -0.111660   0.033984
   23  C  4  X   -0.001164  -0.004073  -0.034659  -0.040946  -0.078619
   24  C  4  Y   -0.000329  -0.000205  -0.016395   0.017015  -0.011270
   25  C  4  Z   -0.000371  -0.000268  -0.018235   0.018114  -0.013103
   26  C  4  S   -0.000121   0.005182   0.189481  -0.308121   0.125704
   27  C  4  X    0.004045   0.011186   0.001351   0.011375  -0.009779
   28  C  4  Y    0.002203  -0.003172  -0.001110   0.006636  -0.005539
   29  C  4  Z    0.002438  -0.003340  -0.001234   0.007415  -0.006154
   30  C  5  S    0.000951  -0.015339  -0.143234   0.013937  -0.107692
   31  C  5  S   -0.001005   0.014660   0.138428  -0.013996   0.097646
   32  C  5  X   -0.000395  -0.016332  -0.027302  -0.086291   0.033118
   33  C  5  Y    0.000044   0.002165   0.026478   0.001226  -0.008922
   34  C  5  Z    0.000044   0.002203   0.028551   0.000403  -0.009343
   35  C  5  S    0.004559   0.028157   0.348195  -0.035407   0.350039
   36  C  5  X    0.004237  -0.007417  -0.005500   0.004178  -0.014650
   37  C  5  Y    0.000347  -0.000785   0.006609   0.001183  -0.002157
   38  C  5  Z    0.000426  -0.000904   0.007211   0.001298  -0.002416
   39  C  6  S    0.000138  -0.063178  -0.136893  -0.106108   0.080813
   40  C  6  S   -0.000201   0.067961   0.134215   0.098826  -0.074493
   41  C  6  X   -0.000093  -0.048042   0.050913  -0.028108   0.109710
   42  C  6  Y    0.000012  -0.025495  -0.014867   0.000867  -0.037289
   43  C  6  Z    0.000012  -0.028100  -0.015670   0.000633  -0.039480
   44  C  6  S    0.001042   0.096357   0.358283   0.333677  -0.291194
   45  C  6  X    0.000694   0.005329  -0.001778  -0.006677   0.043513
   46  C  6  Y   -0.000417   0.005041  -0.006039  -0.004037  -0.013015
   47  C  6  Z   -0.000449   0.005529  -0.006646  -0.004483  -0.013772
   48  N  7  S   -0.000004  -0.219712   0.044679   0.022884  -0.007866
   49  N  7  S   -0.000062   0.200534  -0.039644  -0.020705   0.007182
   50  N  7  X   -0.000106  -0.009403   0.102713   0.101038  -0.053428
   51  N  7  Y    0.000014  -0.006555   0.038319   0.055642  -0.117839
   52  N  7  Z    0.000014  -0.007156   0.042488   0.061290  -0.128549
   53  N  7  S    0.000005   0.679198  -0.181690  -0.103245   0.045749
   54  N  7  X    0.000341   0.001335   0.066997   0.076471  -0.038088
   55  N  7  Y   -0.000062  -0.000400   0.024582   0.043140  -0.101200
   56  N  7  Z   -0.000061  -0.000371   0.027267   0.047517  -0.110319
   57  H  8  S   -0.001193   0.000411   0.017519  -0.058990  -0.042717
   58  H  8  S    0.001363  -0.000540  -0.000320   0.003354   0.001364
   59  H  9  S   -0.001194   0.000412   0.017524  -0.058981  -0.042701
   60  H  9  S    0.001359  -0.000533  -0.000324   0.003368   0.001379
   61  H 10  S   -0.000286   0.001505   0.038611  -0.055268   0.017119
   62  H 10  S   -0.001371   0.000273  -0.002832   0.002584  -0.004102
   63  H 11  S   -0.000288   0.001508   0.038605  -0.055233   0.017119
   64  H 11  S   -0.001369   0.000261  -0.002860   0.002616  -0.004077
   65  H 12  S   -0.000443   0.004747   0.063982  -0.009479   0.065801
   66  H 12  S   -0.000075   0.001656  -0.006515  -0.004287   0.009833
   67  H 13  S   -0.000442   0.004763   0.063966  -0.009483   0.065776
   68  H 13  S   -0.000079   0.001621  -0.006547  -0.004296   0.009802
   69  H 14  S   -0.000087   0.022043   0.067247   0.061376  -0.067701
   70  H 14  S    0.000247  -0.003785  -0.004103   0.001949  -0.015171
   71  H 15  S   -0.000086   0.022049   0.067231   0.061387  -0.067654
   72  H 15  S    0.000244  -0.003779  -0.004144   0.001938  -0.015195
   73  H 16  S   -0.000081   0.098675  -0.038409  -0.037321   0.061227
   74  H 16  S    0.000098   0.002047  -0.012556  -0.015890   0.034407
   75  H 17  S    0.000074   0.097882  -0.050452  -0.035405  -0.020261
   76  H 17  S    0.000148   0.002855  -0.019553  -0.014168  -0.010852
   77  H 18  S   -0.000154   0.000038   0.005028  -0.031975  -0.055751
   78  H 18  S    0.015433  -0.000793  -0.004314   0.004090  -0.003944
   79  H 19  S   -0.000041   0.000021   0.006346  -0.034825  -0.055142
   80  H 19  S    0.016106  -0.000116   0.000020   0.000013  -0.001453
   81  H 20  S   -0.000082   0.098699  -0.038324  -0.037384   0.062034
   82  H 20  S    0.000102   0.002018  -0.012525  -0.015871   0.034800

                     11         12         13         14         15
                   -0.7934    -0.7903    -0.7467    -0.7059    -0.6750
                     A          A          A          A          A   
    1  C  1  S   -0.077187   0.000361  -0.102020   0.087021   0.044280
    2  C  1  S    0.073345  -0.000345   0.095414  -0.081591  -0.040648
    3  C  1  X    0.000911  -0.000008   0.032928  -0.048693  -0.034275
    4  C  1  Y   -0.005266   0.000226   0.004395  -0.037194  -0.036681
    5  C  1  Z   -0.005754  -0.000164   0.005179  -0.041214  -0.040537
    6  C  1  S    0.224522  -0.001044   0.327767  -0.296516  -0.164627
    7  C  1  X   -0.001248  -0.000008   0.008179  -0.006544  -0.001972
    8  C  1  Y   -0.002563  -0.000193  -0.002846  -0.016412  -0.017645
    9  C  1  Z   -0.002835   0.000198  -0.003045  -0.018000  -0.019317
   10  H  2  S    0.041437  -0.000335   0.062263  -0.070642  -0.045169
   11  H  2  S    0.003186  -0.000212   0.010536  -0.025135  -0.020863
   12  C  3  S   -0.020890   0.000080   0.029180  -0.104152  -0.076072
   13  C  3  S    0.019646  -0.000074  -0.026097   0.095367   0.067316
   14  C  3  X    0.061788  -0.000283   0.088456  -0.037350   0.016405
   15  C  3  Y    0.000474   0.000973  -0.003772  -0.060072  -0.055348
   16  C  3  Z    0.001226  -0.000903  -0.003058  -0.066052  -0.060424
   17  C  3  S    0.060447  -0.000247  -0.100322   0.371966   0.297421
   18  C  3  X    0.009459  -0.000042   0.015557  -0.025890  -0.001724
   19  C  3  Y   -0.001220   0.001574  -0.006096  -0.027388  -0.022742
   20  C  3  Z   -0.001233  -0.001438  -0.006465  -0.030151  -0.024910
   21  C  4  S    0.073567  -0.000342   0.097309   0.055167   0.059496
   22  C  4  S   -0.068043   0.000304  -0.088115  -0.050273  -0.050821
   23  C  4  X    0.020117  -0.000016  -0.054773   0.074709   0.011873
   24  C  4  Y   -0.005396   0.005548  -0.030181  -0.074940  -0.038315
   25  C  4  Z   -0.005709  -0.005053  -0.033404  -0.081003  -0.042038
   26  C  4  S   -0.229088   0.001136  -0.339185  -0.215331  -0.247566
   27  C  4  X    0.009935  -0.000068  -0.001509   0.035588  -0.006539
   28  C  4  Y   -0.003282   0.000705  -0.010059  -0.040283  -0.012209
   29  C  4  Z   -0.003430  -0.000673  -0.010916  -0.043606  -0.013594
   30  C  5  S   -0.010437   0.000043  -0.106471  -0.025974   0.004796
   31  C  5  S    0.011308  -0.000067   0.093216   0.022784  -0.003459
   32  C  5  X   -0.075712   0.000601  -0.040883  -0.000178  -0.043555
   33  C  5  Y   -0.026665   0.024591  -0.049383  -0.087361   0.037157
   34  C  5  Z   -0.030087  -0.022394  -0.054230  -0.095179   0.039329
   35  C  5  S    0.039224  -0.000096   0.407531   0.117726  -0.025764
   36  C  5  X   -0.038561   0.000162  -0.027663  -0.002919   0.011975
   37  C  5  Y   -0.017500   0.011553  -0.017707  -0.052838   0.025172
   38  C  5  Z   -0.019606  -0.010540  -0.019510  -0.057562   0.027030
   39  C  6  S   -0.001599  -0.000018   0.025528   0.025727  -0.053235
   40  C  6  S    0.001092   0.000030  -0.022640  -0.023830   0.046018
   41  C  6  X    0.034133   0.000543   0.088991  -0.095967   0.158136
   42  C  6  Y   -0.064380   0.086833  -0.019290  -0.077374   0.134164
   43  C  6  Z   -0.070593  -0.079255  -0.020136  -0.085093   0.146707
   44  C  6  S   -0.002158   0.000072  -0.117043  -0.121645   0.262623
   45  C  6  X    0.025856   0.000293   0.023086  -0.055298   0.069792
   46  C  6  Y   -0.035955   0.058360  -0.009472  -0.045910   0.071400
   47  C  6  Z   -0.039520  -0.053234  -0.010110  -0.050529   0.077800
   48  N  7  S    0.000988  -0.000014   0.007136  -0.012145   0.032298
   49  N  7  S   -0.001470   0.000022  -0.005004   0.009547  -0.023954
   50  N  7  X    0.239662   0.000960  -0.207068   0.091516  -0.204826
   51  N  7  Y   -0.172339   0.300571   0.065287   0.096781  -0.143136
   52  N  7  Z   -0.188234  -0.274966   0.069400   0.106015  -0.156811
   53  N  7  S   -0.001929   0.000025  -0.031442   0.055977  -0.166064
   54  N  7  X    0.217730   0.000852  -0.188162   0.101493  -0.230033
   55  N  7  Y   -0.153960   0.269801   0.054704   0.093894  -0.151487
   56  N  7  Z   -0.168118  -0.246821   0.058095   0.102994  -0.166107
   57  H  8  S    0.012364   0.000623  -0.014549   0.091610   0.074393
   58  H  8  S    0.001535  -0.000630   0.001353   0.033840   0.030259
   59  H  9  S    0.012363  -0.000719  -0.014501   0.091553   0.074255
   60  H  9  S    0.001548   0.000628   0.001386   0.033818   0.030174
   61  H 10  S   -0.045150  -0.003192  -0.071704  -0.071037  -0.056732
   62  H 10  S   -0.006152  -0.002389  -0.017893  -0.035368  -0.022459
   63  H 11  S   -0.045105   0.003601  -0.071692  -0.070929  -0.056442
   64  H 11  S   -0.006125   0.002452  -0.017899  -0.035308  -0.022264
   65  H 12  S    0.017150   0.014258   0.088959   0.058386  -0.019630
   66  H 12  S    0.012090   0.014660   0.025281   0.035490  -0.008923
   67  H 13  S    0.016986  -0.014409   0.088875   0.058290  -0.020029
   68  H 13  S    0.011941  -0.014829   0.025258   0.035448  -0.009157
   69  H 14  S   -0.028442  -0.048346  -0.028338  -0.054071   0.104479
   70  H 14  S   -0.018887  -0.024766  -0.013091  -0.029748   0.054553
   71  H 15  S   -0.027825   0.048754  -0.028294  -0.053838   0.104584
   72  H 15  S   -0.018654   0.024942  -0.013054  -0.029604   0.054596
   73  H 16  S    0.089016  -0.199788  -0.041677  -0.045640   0.061277
   74  H 16  S    0.050928  -0.114552  -0.021209  -0.030251   0.047326
   75  H 17  S   -0.202731   0.002666   0.142386   0.009692   0.017687
   76  H 17  S   -0.114325   0.001535   0.090610   0.006879   0.014008
   77  H 18  S    0.044991  -0.000213   0.070335  -0.059969  -0.028926
   78  H 18  S    0.007099  -0.000032   0.016239  -0.019545  -0.010714
   79  H 19  S    0.041443  -0.000058   0.062272  -0.070551  -0.045041
   80  H 19  S    0.003194   0.000178   0.010546  -0.025084  -0.020774
   81  H 20  S    0.093396   0.197214  -0.043225  -0.046182   0.061397
   82  H 20  S    0.053404   0.113032  -0.022133  -0.030572   0.047409

                     16         17         18         19         20
                   -0.6432    -0.5800    -0.5779    -0.5452    -0.5303
                     A          A          A          A          A   
    1  C  1  S   -0.000081   0.000059  -0.019347   0.012152   0.000005
    2  C  1  S    0.000074  -0.000046   0.015874  -0.009615   0.000000
    3  C  1  X    0.000235  -0.001133   0.063776  -0.169826  -0.001432
    4  C  1  Y    0.014336  -0.078221   0.040246   0.058174  -0.136358
    5  C  1  Z   -0.012910   0.071692   0.044928   0.061421   0.124674
    6  C  1  S    0.000319  -0.000283   0.093006  -0.057345  -0.000062
    7  C  1  X    0.000094  -0.000705   0.031649  -0.116936  -0.001062
    8  C  1  Y    0.008098  -0.049991   0.020486   0.048930  -0.101719
    9  C  1  Z   -0.007291   0.045824   0.022887   0.051956   0.092998
   10  H  2  S   -0.008820   0.051552   0.034725   0.021236   0.095470
   11  H  2  S   -0.006774   0.042557   0.021113   0.018783   0.077672
   12  C  3  S    0.000154  -0.000031   0.033853  -0.014817  -0.000013
   13  C  3  S   -0.000131   0.000021  -0.028701   0.014195   0.000000
   14  C  3  X    0.000291  -0.001534  -0.081667  -0.044372  -0.001355
   15  C  3  Y    0.041413  -0.144964   0.001884   0.137369  -0.141045
   16  C  3  Z   -0.037614   0.133138   0.001506   0.149221   0.128968
   17  C  3  S   -0.000651   0.000138  -0.144738   0.044820   0.000124
   18  C  3  X    0.000215  -0.001112  -0.056797  -0.029539  -0.001085
   19  C  3  Y    0.024544  -0.107131  -0.006799   0.098935  -0.111202
   20  C  3  Z   -0.022338   0.098376  -0.007843   0.107506   0.101677
   21  C  4  S   -0.000163  -0.000014  -0.010291   0.009067   0.000010
   22  C  4  S    0.000137   0.000028   0.009388  -0.008713  -0.000015
   23  C  4  X    0.001014  -0.001211  -0.011537   0.251440  -0.000102
   24  C  4  Y    0.094557  -0.161526  -0.093351   0.066143   0.006946
   25  C  4  Z   -0.086521   0.148322  -0.101846   0.074676  -0.006331
   26  C  4  S    0.000699  -0.000030   0.031278  -0.018197  -0.000001
   27  C  4  X    0.000719  -0.000905   0.004185   0.164685  -0.000182
   28  C  4  Y    0.064382  -0.121239  -0.064889   0.042176  -0.002110
   29  C  4  Z   -0.058962   0.111317  -0.070590   0.047680   0.002023
   30  C  5  S    0.000025   0.000056  -0.003724   0.011078  -0.000021
   31  C  5  S   -0.000005  -0.000058  -0.000800  -0.013179   0.000049
   32  C  5  X    0.001646  -0.000771   0.266778  -0.156376   0.001579
   33  C  5  Y    0.171807  -0.061686  -0.119360  -0.145149   0.184519
   34  C  5  Z   -0.158032   0.056370  -0.127577  -0.160180  -0.168988
   35  C  5  S   -0.000191  -0.000222   0.061262  -0.030554  -0.000060
   36  C  5  X    0.001141  -0.000632   0.161592  -0.135004   0.001545
   37  C  5  Y    0.120147  -0.061007  -0.073613  -0.117089   0.165623
   38  C  5  Z   -0.110471   0.055903  -0.078861  -0.129377  -0.151871
   39  C  6  S    0.000068  -0.000053   0.019850  -0.014705  -0.000004
   40  C  6  S   -0.000069   0.000033  -0.021595   0.011183   0.000010
   41  C  6  X    0.001571   0.001501  -0.226873   0.015581  -0.000715
   42  C  6  Y    0.201717   0.168476   0.172396   0.024386  -0.116641
   43  C  6  Z   -0.186206  -0.155070   0.185271   0.027512   0.106947
   44  C  6  S   -0.000286   0.000320  -0.072737   0.071145  -0.000000
   45  C  6  X    0.001449   0.001260  -0.193634  -0.005660  -0.000442
   46  C  6  Y    0.171213   0.148827   0.141750   0.011057  -0.094345
   47  C  6  Z   -0.157996  -0.137117   0.152278   0.012724   0.086431
   48  N  7  S   -0.000039   0.000059   0.001137   0.021688  -0.000058
   49  N  7  S    0.000029  -0.000043  -0.000519  -0.016601   0.000051
   50  N  7  X   -0.000549  -0.000582   0.052200  -0.080986   0.000242
   51  N  7  Y   -0.092932  -0.044038  -0.040458  -0.027336   0.015275
   52  N  7  Z    0.085911   0.040289  -0.043469  -0.030446  -0.013731
   53  N  7  S    0.000211  -0.000332  -0.012414  -0.123363   0.000315
   54  N  7  X   -0.000504  -0.000534   0.051596  -0.091600   0.000060
   55  N  7  Y   -0.088122  -0.036361  -0.036602  -0.039083   0.003351
   56  N  7  Z    0.081546   0.033047  -0.039262  -0.043140  -0.002451
   57  H  8  S    0.025858  -0.095992  -0.025479  -0.063649  -0.097352
   58  H  8  S    0.020109  -0.071756  -0.009659  -0.054193  -0.074669
   59  H  9  S   -0.026223   0.095854  -0.025209  -0.063839   0.097480
   60  H  9  S   -0.020293   0.071642  -0.009442  -0.054420   0.074768
   61  H 10  S   -0.060110   0.108774  -0.040840   0.029122  -0.000570
   62  H 10  S   -0.043823   0.081285  -0.029445   0.033406   0.005437
   63  H 11  S    0.060467  -0.108729  -0.040819   0.029044   0.000588
   64  H 11  S    0.043979  -0.081254  -0.029422   0.033291  -0.005464
   65  H 12  S    0.112089  -0.048377   0.078572   0.076625   0.150141
   66  H 12  S    0.079062  -0.042089   0.073941   0.071676   0.134840
   67  H 13  S   -0.112081   0.048482   0.078152   0.076100  -0.150494
   68  H 13  S   -0.079053   0.042289   0.073642   0.071269  -0.135310
   69  H 14  S   -0.140496  -0.131717   0.095597   0.034321   0.105818
   70  H 14  S   -0.091215  -0.100632   0.083636   0.032144   0.107137
   71  H 15  S    0.140314   0.132021   0.095212   0.033501  -0.106274
   72  H 15  S    0.091161   0.100887   0.083354   0.031378  -0.107538
   73  H 16  S    0.077282   0.045855   0.033362   0.004663  -0.025114
   74  H 16  S    0.059178   0.048567   0.040334   0.017850  -0.043196
   75  H 17  S   -0.000601  -0.000275  -0.069404   0.024832   0.000168
   76  H 17  S   -0.000474  -0.000190  -0.066887   0.028915   0.000076
   77  H 18  S    0.000026  -0.000063   0.026067  -0.125105   0.000323
   78  H 18  S    0.000007  -0.000032   0.014419  -0.092749   0.000272
   79  H 19  S    0.009050  -0.051745   0.034539   0.020864  -0.095872
   80  H 19  S    0.006900  -0.042650   0.020978   0.018476  -0.077992
   81  H 20  S   -0.076770  -0.045457   0.034166   0.004773   0.024890
   82  H 20  S   -0.058780  -0.048211   0.041196   0.018160   0.042949

                     21         22         23         24         25
                   -0.5021    -0.4799    -0.4556    -0.4427    -0.4343
                     A          A          A          A          A   
    1  C  1  S    0.005395   0.000000   0.019746  -0.003536   0.000103
    2  C  1  S   -0.004141   0.000010  -0.021740   0.005600  -0.000130
    3  C  1  X    0.054811  -0.001352   0.283142   0.154489   0.001410
    4  C  1  Y   -0.151479  -0.161991   0.111128  -0.153632   0.178508
    5  C  1  Z   -0.165414   0.147804   0.125521  -0.169243  -0.160092
    6  C  1  S   -0.032318  -0.000051  -0.051496   0.009634  -0.000299
    7  C  1  X    0.041004  -0.001087   0.197734   0.142768   0.000891
    8  C  1  Y   -0.110375  -0.128316   0.076051  -0.124190   0.144626
    9  C  1  Z   -0.120523   0.117120   0.086014  -0.136540  -0.129627
   10  H  2  S   -0.091041   0.121840   0.058045  -0.102019  -0.156244
   11  H  2  S   -0.074021   0.104909   0.073391  -0.110046  -0.169405
   12  C  3  S    0.008499   0.000037   0.017629  -0.004435   0.000118
   13  C  3  S   -0.008767  -0.000032  -0.018426   0.008815  -0.000177
   14  C  3  X    0.189977  -0.000337  -0.247527  -0.143065  -0.001616
   15  C  3  Y   -0.046126  -0.034296  -0.142733   0.135165  -0.199879
   16  C  3  Z   -0.048415   0.031323  -0.159946   0.149326   0.179868
   17  C  3  S   -0.024068  -0.000207  -0.072822  -0.016342  -0.000103
   18  C  3  X    0.136308  -0.000246  -0.189648  -0.071529  -0.001664
   19  C  3  Y   -0.033900  -0.034502  -0.121006   0.100623  -0.160096
   20  C  3  Z   -0.035683   0.031499  -0.135323   0.111652   0.144152
   21  C  4  S    0.001746   0.000001  -0.010599  -0.034185   0.000255
   22  C  4  S   -0.009091  -0.000046   0.004223   0.029486  -0.000238
   23  C  4  X   -0.042114   0.002290   0.143987   0.197780  -0.000308
   24  C  4  Y    0.178787   0.201426   0.054139  -0.101343   0.089933
   25  C  4  Z    0.195370  -0.183997   0.061594  -0.109589  -0.080299
   26  C  4  S    0.045000   0.000275   0.080212   0.175478  -0.001188
   27  C  4  X   -0.061299   0.001917   0.098891   0.168905  -0.000654
   28  C  4  Y    0.128933   0.175417   0.030900  -0.100663   0.058873
   29  C  4  Z    0.140662  -0.160460   0.035530  -0.108681  -0.051894
   30  C  5  S    0.009118   0.000085   0.034387   0.005574   0.000103
   31  C  5  S   -0.012109  -0.000099  -0.027459  -0.001498  -0.000108
   32  C  5  X   -0.024566  -0.001566  -0.160693  -0.051104  -0.000284
   33  C  5  Y   -0.126610  -0.125240  -0.059822   0.006421  -0.007743
   34  C  5  Z   -0.138679   0.114113  -0.067026   0.006450   0.006525
   35  C  5  S   -0.029891  -0.000316  -0.194323  -0.044950  -0.000495
   36  C  5  X   -0.062029  -0.001426  -0.124246  -0.045805   0.000007
   37  C  5  Y   -0.105141  -0.095889  -0.072613  -0.002418   0.009535
   38  C  5  Z   -0.115540   0.087193  -0.080417  -0.003353  -0.009479
   39  C  6  S    0.019720   0.000003  -0.018361  -0.020319   0.000105
   40  C  6  S   -0.018600  -0.000009   0.013602   0.017603  -0.000107
   41  C  6  X   -0.089369   0.000065   0.050888   0.050852  -0.000308
   42  C  6  Y    0.052144   0.025521  -0.027155  -0.023528  -0.007953
   43  C  6  Z    0.055833  -0.023265  -0.028929  -0.024769   0.007516
   44  C  6  S   -0.104599  -0.000010   0.111226   0.110481  -0.000460
   45  C  6  X   -0.070451  -0.000101   0.058397   0.035048  -0.000097
   46  C  6  Y    0.054367   0.004820  -0.038687  -0.032868  -0.011350
   47  C  6  Z    0.058329  -0.004006  -0.041448  -0.035031   0.010786
   48  N  7  S    0.005594   0.000064   0.013373   0.007328  -0.000015
   49  N  7  S   -0.005607  -0.000066  -0.010326  -0.004611  -0.000002
   50  N  7  X   -0.003518  -0.000125  -0.046975  -0.028207   0.000099
   51  N  7  Y   -0.006147   0.004272  -0.009494  -0.008449   0.002816
   52  N  7  Z   -0.006590  -0.004146  -0.010650  -0.009480  -0.002514
   53  N  7  S   -0.027439  -0.000317  -0.080558  -0.049201   0.000152
   54  N  7  X    0.007138   0.000066  -0.057034  -0.043489   0.000221
   55  N  7  Y   -0.003736   0.011865  -0.018619  -0.016936   0.002242
   56  N  7  Z   -0.003772  -0.011369  -0.020568  -0.018800  -0.001905
   57  H  8  S    0.025445  -0.030810   0.076784  -0.095386  -0.177771
   58  H  8  S    0.032446  -0.033017   0.086996  -0.111149  -0.198406
   59  H  9  S    0.025301   0.030828   0.075650  -0.092390   0.179809
   60  H  9  S    0.032369   0.033101   0.085866  -0.107862   0.200943
   61  H 10  S    0.110639  -0.168036   0.048651  -0.049106  -0.090564
   62  H 10  S    0.107146  -0.161536   0.059119  -0.078255  -0.125084
   63  H 11  S    0.109803   0.168603   0.047561  -0.047792   0.091819
   64  H 11  S    0.106463   0.162206   0.057837  -0.076396   0.126918
   65  H 12  S    0.079551  -0.118615   0.010735  -0.017549  -0.016939
   66  H 12  S    0.094031  -0.140388   0.031534  -0.034752  -0.046072
   67  H 13  S    0.078917   0.119130   0.010423  -0.017380   0.017314
   68  H 13  S    0.093377   0.141094   0.031017  -0.034159   0.046914
   69  H 14  S    0.026823  -0.034342   0.001956   0.000268   0.004125
   70  H 14  S    0.046547  -0.063347   0.004729  -0.013200  -0.005342
   71  H 15  S    0.026610   0.034581   0.001837   0.000077  -0.004141
   72  H 15  S    0.046169   0.063576   0.004416  -0.013272   0.005554
   73  H 16  S    0.005400   0.002835  -0.004077  -0.001770  -0.002434
   74  H 16  S    0.020566   0.018590   0.001743  -0.004359  -0.001609
   75  H 17  S   -0.007310   0.000067   0.024269   0.013243   0.000006
   76  H 17  S   -0.005489   0.000156   0.035266   0.017991   0.000020
   77  H 18  S    0.109247   0.000731   0.088277   0.200135  -0.001908
   78  H 18  S    0.097557   0.000685   0.096219   0.189198  -0.001768
   79  H 19  S   -0.089980  -0.122555   0.057322  -0.098249   0.158757
   80  H 19  S   -0.073150  -0.105565   0.072611  -0.106104   0.172167
   81  H 20  S    0.005522  -0.002863  -0.004243  -0.001797   0.002393
   82  H 20  S    0.020932  -0.018500   0.001648  -0.004446   0.001674

                     26         27         28         29         30
                   -0.1481    -0.0831    -0.0820    -0.0601    -0.0256
                     A          A          A          A          A   
    1  C  1  S    0.003579   0.000238  -0.003707  -0.001537   0.001006
    2  C  1  S   -0.002817  -0.000110   0.001671   0.001839   0.002496
    3  C  1  X    0.008472   0.000439  -0.007619  -0.003974  -0.020740
    4  C  1  Y    0.000793   0.003093  -0.003325   0.001824  -0.021539
    5  C  1  Z    0.000965  -0.002560  -0.004136   0.001884  -0.023514
    6  C  1  S   -0.022545  -0.001956   0.030761   0.017849  -0.058226
    7  C  1  X    0.005995   0.001080  -0.018920  -0.008972  -0.038265
    8  C  1  Y    0.000962   0.007919  -0.005756   0.010128  -0.067292
    9  C  1  Z    0.001068  -0.006961  -0.007657   0.010784  -0.073067
   10  H  2  S   -0.003010  -0.000339   0.002743   0.007478   0.003241
   11  H  2  S    0.001066   0.009840   0.004809   0.011625   0.079422
   12  C  3  S   -0.001733  -0.000188   0.004111   0.011917   0.020919
   13  C  3  S   -0.000369   0.000061  -0.001899  -0.001984  -0.009408
   14  C  3  X   -0.013528  -0.001317   0.021400   0.066192   0.015167
   15  C  3  Y    0.005389   0.006695  -0.014152  -0.043624  -0.001712
   16  C  3  Z    0.005681  -0.004160  -0.015852  -0.046872  -0.000870
   17  C  3  S    0.033655   0.001256  -0.028545  -0.126322  -0.258089
   18  C  3  X   -0.040600  -0.003058   0.041835   0.195718   0.039892
   19  C  3  Y    0.014789   0.008695  -0.037988  -0.140017   0.035790
   20  C  3  Z    0.015588  -0.002703  -0.041372  -0.150818   0.041366
   21  C  4  S    0.019741   0.001160  -0.013333  -0.056481   0.023171
   22  C  4  S   -0.011432  -0.000314   0.003365   0.038718   0.001258
   23  C  4  X    0.055321   0.002040  -0.023958  -0.048636  -0.027118
   24  C  4  Y    0.024137   0.017311  -0.011144   0.014149  -0.074213
   25  C  4  Z    0.026949  -0.014485  -0.014380   0.014502  -0.080336
   26  C  4  S   -0.174775  -0.014521   0.163671   0.551275  -0.474757
   27  C  4  X    0.051374   0.004403  -0.051242   0.159273   0.024695
   28  C  4  Y    0.068984   0.058207  -0.032938   0.063497  -0.265996
   29  C  4  Z    0.076026  -0.048952  -0.043803   0.069818  -0.287815
   30  C  5  S   -0.019134   0.000944  -0.012759  -0.050308   0.028744
   31  C  5  S    0.013576   0.000213  -0.003207   0.026177  -0.010685
   32  C  5  X   -0.003160  -0.000889   0.032965  -0.011560  -0.004103
   33  C  5  Y   -0.032998   0.071625  -0.044225  -0.051129   0.002439
   34  C  5  Z   -0.035903  -0.060278  -0.057071  -0.055834   0.005108
   35  C  5  S    0.170906  -0.017448   0.235346   0.711867  -0.431330
   36  C  5  X    0.133118   0.006024  -0.022702   0.039289   0.094954
   37  C  5  Y   -0.096325   0.154542  -0.174047  -0.112279   0.184930
   38  C  5  Z   -0.103663  -0.118314  -0.209381  -0.121125   0.208927
   39  C  6  S   -0.015311   0.000643  -0.004118  -0.120011   0.055781
   40  C  6  S   -0.000195  -0.000791   0.007158   0.078612  -0.034568
   41  C  6  X    0.084491   0.003432  -0.032157  -0.301208  -0.091617
   42  C  6  Y    0.072119   0.065708  -0.043656  -0.089389  -0.205717
   43  C  6  Z    0.078932  -0.055428  -0.054102  -0.100859  -0.220731
   44  C  6  S    0.332227  -0.003904  -0.002429   1.235964  -0.898346
   45  C  6  X    0.203828   0.008687  -0.063206  -0.801746  -0.196693
   46  C  6  Y    0.149139   0.179826  -0.044616  -0.131174  -0.719707
   47  C  6  Z    0.163372  -0.164969  -0.065808  -0.153921  -0.772868
   48  N  7  S   -0.154565  -0.000517   0.004245   0.061506  -0.008334
   49  N  7  S    0.097730   0.000632  -0.006923  -0.039474   0.006875
   50  N  7  X   -0.079175  -0.007564   0.170226  -0.256959  -0.180115
   51  N  7  Y   -0.037002   0.263876  -0.195035  -0.084048  -0.051193
   52  N  7  Z   -0.040455  -0.218238  -0.240006  -0.095033  -0.057066
   53  N  7  S    1.457742   0.002413  -0.004397  -0.540447   0.104571
   54  N  7  X   -0.186063  -0.019603   0.421700  -0.678277  -0.468891
   55  N  7  Y   -0.092209   0.609900  -0.459359  -0.237613  -0.083321
   56  N  7  Z   -0.100693  -0.503004  -0.564061  -0.267119  -0.095687
   57  H  8  S    0.000013  -0.001465  -0.002181   0.005277  -0.005883
   58  H  8  S    0.013474  -0.015621  -0.031683  -0.075398   0.082014
   59  H  9  S   -0.000001   0.001627  -0.001997   0.005370  -0.005933
   60  H  9  S    0.013578   0.020180  -0.029919  -0.074988   0.078833
   61  H 10  S    0.001023   0.010024   0.007654   0.023961   0.019345
   62  H 10  S    0.018512   0.107034   0.013233  -0.223130   0.410099
   63  H 11  S    0.000994  -0.010789   0.006102   0.024072   0.019867
   64  H 11  S    0.018774  -0.104482  -0.000683  -0.224219   0.414368
   65  H 12  S    0.026535  -0.001080  -0.019470  -0.028451  -0.011494
   66  H 12  S   -0.100828  -0.214789  -0.280053  -0.443542   0.186549
   67  H 13  S    0.026739   0.004015  -0.019729  -0.028506  -0.012732
   68  H 13  S   -0.100304   0.249874  -0.250002  -0.443599   0.173887
   69  H 14  S    0.000858   0.049443   0.025553   0.000335   0.063027
   70  H 14  S   -0.200373   0.337504   0.126773  -0.459855   1.007923
   71  H 15  S    0.000793  -0.051629   0.019811  -0.000182   0.064397
   72  H 15  S   -0.200565  -0.342079   0.091430  -0.465868   1.022522
   73  H 16  S   -0.077377   0.149190  -0.082418   0.003819  -0.032512
   74  H 16  S   -0.660855   1.082864  -0.594429  -0.006054  -0.200872
   75  H 17  S   -0.083548  -0.010652   0.163510  -0.066287  -0.055111
   76  H 17  S   -0.699462  -0.077195   1.182959  -0.361029  -0.438376
   77  H 18  S    0.007123   0.000515  -0.007466  -0.016533  -0.005629
   78  H 18  S    0.021076   0.001491  -0.021853  -0.044876  -0.021295
   79  H 19  S   -0.002998  -0.000065   0.002755   0.007378   0.003350
   80  H 19  S    0.001040  -0.010083   0.003353   0.011236   0.080647
   81  H 20  S   -0.077172  -0.137543  -0.101093   0.003427  -0.032510
   82  H 20  S   -0.659347  -0.998719  -0.731184  -0.010328  -0.198799

                     31         32         33         34         35
                   -0.0113     0.0016     0.0303     0.0348     0.0475
                     A          A          A          A          A   
    1  C  1  S   -0.000051   0.021284   0.079991   0.001217  -0.091436
    2  C  1  S    0.000103  -0.015213  -0.041067  -0.000597   0.044390
    3  C  1  X    0.000377  -0.060390  -0.030394   0.000786   0.000779
    4  C  1  Y    0.017538  -0.034712  -0.042281   0.059850  -0.051017
    5  C  1  Z   -0.016133  -0.039066  -0.045551  -0.055142  -0.056987
    6  C  1  S   -0.000071  -0.263418  -1.008548  -0.014963   1.135093
    7  C  1  X    0.001703  -0.240369  -0.225714   0.000609   0.020029
    8  C  1  Y    0.041836  -0.151309  -0.139199   0.159890  -0.139623
    9  C  1  Z   -0.038168  -0.168923  -0.152168  -0.147123  -0.156733
   10  H  2  S    0.006218  -0.006167   0.002346   0.013869   0.004148
   11  H  2  S    0.082172   0.212284   0.516032   0.278130  -0.247287
   12  C  3  S   -0.000428   0.088803   0.029363  -0.000071  -0.025749
   13  C  3  S    0.000177  -0.037037  -0.016126   0.000117  -0.000792
   14  C  3  X    0.000360   0.020805   0.021482   0.001376  -0.017728
   15  C  3  Y    0.048814   0.058731  -0.004774   0.089711  -0.089248
   16  C  3  Z   -0.045377   0.063035  -0.003261  -0.082447  -0.098566
   17  C  3  S    0.005355  -1.148277  -0.389914  -0.000428   0.529875
   18  C  3  X    0.002034  -0.049669   0.160771   0.006967  -0.377732
   19  C  3  Y    0.132856   0.186253   0.007222   0.225839  -0.291826
   20  C  3  Z   -0.122335   0.199084   0.013698  -0.207918  -0.324489
   21  C  4  S   -0.000109   0.045984   0.078189   0.000492   0.035249
   22  C  4  S    0.000017  -0.018181  -0.033663  -0.000213  -0.010530
   23  C  4  X    0.000034   0.028975   0.105301   0.002389  -0.034252
   24  C  4  Y    0.075427  -0.029240  -0.063735   0.097104  -0.079623
   25  C  4  Z   -0.070814  -0.033015  -0.066172  -0.089129  -0.088758
   26  C  4  S    0.001109  -0.672615  -0.982404  -0.005399  -0.533201
   27  C  4  X   -0.001973   0.300264   0.462557   0.009717  -0.347821
   28  C  4  Y    0.163167  -0.156321  -0.158661   0.250523  -0.115924
   29  C  4  Z   -0.154853  -0.170067  -0.162185  -0.230797  -0.134963
   30  C  5  S   -0.000399   0.083565  -0.113268  -0.001807   0.077935
   31  C  5  S    0.000122  -0.033692   0.051419   0.000749  -0.026236
   32  C  5  X   -0.000257   0.119361   0.065295   0.001520   0.113347
   33  C  5  Y    0.101198   0.070158  -0.082734   0.171225  -0.127689
   34  C  5  Z   -0.093639   0.074586  -0.085571  -0.157554  -0.138580
   35  C  5  S    0.004845  -1.097236   1.504115   0.024134  -1.017401
   36  C  5  X   -0.003562   0.569065   0.303099   0.004622   0.609384
   37  C  5  Y    0.267786   0.292389  -0.232058   0.642096  -0.531352
   38  C  5  Z   -0.248709   0.314696  -0.235997  -0.588167  -0.575018
   39  C  6  S    0.001442  -0.119422   0.016036   0.000937  -0.089519
   40  C  6  S   -0.000786   0.068215  -0.001901  -0.000399   0.044219
   41  C  6  X    0.001475  -0.036058   0.090764  -0.001375   0.107353
   42  C  6  Y    0.214395  -0.015785   0.020952  -0.169158  -0.061024
   43  C  6  Z   -0.200208  -0.019294   0.020831   0.156875  -0.063874
   44  C  6  S   -0.019052   1.430638  -0.175259  -0.012326   1.213009
   45  C  6  X    0.003797   0.049898   0.188498  -0.010131   0.816266
   46  C  6  Y    0.690374  -0.115885   0.113258  -0.714691  -0.247788
   47  C  6  Z   -0.642996  -0.129947   0.112343   0.663059  -0.255644
   48  N  7  S   -0.000261   0.027929   0.005716  -0.000069   0.016150
   49  N  7  S    0.000087  -0.012836  -0.003931   0.000066  -0.017671
   50  N  7  X   -0.001602  -0.019706   0.071873   0.000058  -0.028779
   51  N  7  Y   -0.109795  -0.061534   0.063131   0.008398   0.031030
   52  N  7  Z    0.101199  -0.064999   0.069314  -0.005546   0.033788
   53  N  7  S    0.002984  -0.294248  -0.077426   0.000214  -0.113391
   54  N  7  X   -0.003567  -0.133862   0.130544   0.000619  -0.078534
   55  N  7  Y   -0.306964  -0.167131   0.156848   0.056922   0.084363
   56  N  7  Z    0.283792  -0.177641   0.172339  -0.048074   0.091019
   57  H  8  S   -0.010782   0.000034   0.002233  -0.030938  -0.050943
   58  H  8  S   -0.227033   0.578739   0.129269  -0.408419  -0.543163
   59  H  9  S    0.010695   0.000284   0.001750   0.031330  -0.050557
   60  H  9  S    0.221443   0.584128   0.121816   0.407476  -0.538976
   61  H 10  S    0.018022   0.017696   0.017476   0.077570   0.050405
   62  H 10  S    0.322043   0.371623   0.588746   0.543785   0.467251
   63  H 11  S   -0.018064   0.017031   0.019060  -0.077629   0.049678
   64  H 11  S   -0.317978   0.364613   0.600691  -0.538574   0.458673
   65  H 12  S   -0.083554   0.018562  -0.038603  -0.029148  -0.029779
   66  H 12  S   -0.580609   0.651069  -0.854810  -0.817252  -0.180983
   67  H 13  S    0.082634   0.019942  -0.039166   0.028763  -0.029584
   68  H 13  S    0.572803   0.665651  -0.871506   0.800053  -0.176452
   69  H 14  S    0.077395  -0.023726  -0.004228  -0.059917   0.001112
   70  H 14  S    1.039784  -0.547953   0.027393  -0.892625  -0.172573
   71  H 15  S   -0.076271  -0.024321  -0.005163   0.060010   0.001904
   72  H 15  S   -1.017323  -0.556038   0.012656   0.898532  -0.165027
   73  H 16  S   -0.056296  -0.017633   0.053493  -0.037115  -0.004273
   74  H 16  S   -0.417992  -0.094171   0.230189  -0.025439   0.132918
   75  H 17  S   -0.000087   0.034753  -0.026254  -0.000716   0.037867
   76  H 17  S    0.000342   0.206033   0.010429  -0.003989  -0.026205
   77  H 18  S   -0.000147   0.016048   0.024339   0.000367  -0.030046
   78  H 18  S   -0.001264   0.215977   0.439099   0.006593  -0.633865
   79  H 19  S   -0.006003  -0.006202   0.002553  -0.013810   0.003751
   80  H 19  S   -0.082248   0.210335   0.520026  -0.266607  -0.254639
   81  H 20  S    0.055468  -0.016673   0.053269   0.038210  -0.004280
   82  H 20  S    0.412694  -0.088160   0.231637   0.031801   0.135984

                     36         37         38         39         40
                    0.0698     0.0748     0.0989     0.0990     0.1069
                     A          A          A          A          A   
    1  C  1  S    0.000670  -0.051153   0.050304  -0.043178   0.085060
    2  C  1  S    0.000120   0.006661  -0.020423   0.017476  -0.043626
    3  C  1  X    0.001347  -0.085448   0.020573  -0.019244  -0.065779
    4  C  1  Y   -0.087732   0.083861  -0.149957  -0.003491   0.023110
    5  C  1  Z    0.076636   0.094348  -0.035257   0.148345   0.024115
    6  C  1  S   -0.012409   0.804259  -0.711365   0.610065  -1.023979
    7  C  1  X    0.009224  -0.443117   0.165084  -0.145510  -0.332138
    8  C  1  Y   -0.226427   0.271768  -0.507399   0.050148   0.238642
    9  C  1  Z    0.195187   0.301552  -0.181455   0.495054   0.251818
   10  H  2  S   -0.021145  -0.040005  -0.002394  -0.102160  -0.007306
   11  H  2  S   -0.360040  -0.620678   0.280420  -0.971643   0.235591
   12  C  3  S   -0.001365   0.067782   0.031251  -0.025352  -0.103887
   13  C  3  S    0.000599  -0.031290  -0.017151   0.013976   0.048990
   14  C  3  X   -0.001013   0.003894   0.085885  -0.075935   0.059491
   15  C  3  Y   -0.096210   0.031824  -0.126640  -0.120685  -0.107379
   16  C  3  Z    0.086334   0.037136   0.088655   0.134748  -0.112669
   17  C  3  S    0.016052  -0.789106  -0.346804   0.279417   1.390366
   18  C  3  X    0.001435  -0.183516   0.301073  -0.269232   0.234760
   19  C  3  Y   -0.263570  -0.117151  -0.471360  -0.503672  -0.544193
   20  C  3  Z    0.247908  -0.125783   0.383796   0.505548  -0.576343
   21  C  4  S    0.000278  -0.011506  -0.099312   0.083707   0.032621
   22  C  4  S   -0.000301   0.011897   0.045897  -0.038603  -0.007706
   23  C  4  X   -0.003506   0.080796   0.029347  -0.022200   0.066985
   24  C  4  Y   -0.166171   0.109788   0.132500   0.136235   0.052210
   25  C  4  Z    0.146365   0.129255  -0.099699  -0.141900   0.057054
   26  C  4  S   -0.004043   0.168685   1.303011  -1.099224  -0.403398
   27  C  4  X   -0.017633   0.447027   0.009929   0.001628   0.571335
   28  C  4  Y   -0.635249   0.556919   0.586412   0.591794   0.310200
   29  C  4  Z    0.552424   0.646692  -0.431243  -0.626753   0.340460
   30  C  5  S    0.000357  -0.017612   0.058204  -0.049492   0.014139
   31  C  5  S   -0.000391   0.017949  -0.016952   0.014524  -0.012297
   32  C  5  X   -0.002875   0.189201   0.064020  -0.054132   0.154419
   33  C  5  Y    0.185409  -0.039570  -0.069835   0.034381   0.079225
   34  C  5  Z   -0.169319  -0.050221  -0.051873   0.065177   0.087367
   35  C  5  S   -0.004498   0.236620  -0.816439   0.694237  -0.163325
   36  C  5  X   -0.020310   1.142183   0.178730  -0.149375   0.668436
   37  C  5  Y    0.817728  -0.139343  -0.401694   0.126021   0.414195
   38  C  5  Z   -0.747989  -0.180564  -0.228877   0.384058   0.456236
   39  C  6  S    0.000337  -0.014766  -0.013459   0.011487  -0.024451
   40  C  6  S    0.000167  -0.004926   0.001403  -0.001317   0.011534
[...]
   15             0.000000   0.002049   0.027193   0.026199   0.040020
   16             0.000000   0.078382   0.009801   0.008705   0.025519
   17             0.000000   0.078052   0.018504   0.008306   0.002161
   18             0.003074  -0.000000  -0.000212   0.005706   0.025139
   19             0.003220  -0.000000   0.000305   0.009260   0.022534
   20             0.000000   0.078371   0.009748   0.008725   0.026256

                     11         12         13         14         15

                  2.000000   2.000000   2.000000   2.000000   2.000000

    1             0.195915   0.000002   0.313067   0.318229   0.059107
    2             0.012938   0.000001   0.027551   0.051960   0.012922
    3             0.033097   0.000054   0.064170   0.477204   0.164244
    4             0.177518   0.000368   0.299877   0.264874   0.100438
    5             0.080381   0.010602   0.380266   0.137929   0.038335
    6             0.090197   0.126643   0.064298   0.128368   0.525056
    7             0.894765   1.229225   0.373812   0.148437   0.725732
    8             0.000875  -0.000002   0.001114   0.088039   0.035926
    9             0.000876  -0.000002   0.001103   0.087928   0.035748
   10             0.017411   0.000152   0.040723   0.053191   0.020831
   11             0.017382   0.000176   0.040725   0.052943   0.020549
   12             0.006112   0.003514   0.063733   0.027577   0.003988
   13             0.006030   0.003583   0.063610   0.027498   0.004176
   14             0.009861   0.021922   0.009232   0.014804   0.085818
   15             0.009554   0.022244   0.009191   0.014596   0.086084
   16             0.060511   0.294678   0.013867   0.009618   0.029981
   17             0.289755   0.000055   0.152413   0.000157   0.004732
   18             0.017401   0.000000   0.038585   0.035016   0.003474
   19             0.012957   0.000000   0.027599   0.051748   0.012788
   20             0.066465   0.286786   0.015063   0.009883   0.030072

                     16         17         18         19         20

                  2.000000   2.000000   2.000000   2.000000   2.000000

    1             0.003113   0.090163   0.059092   0.315503   0.266715
    2             0.000849   0.026657   0.009919   0.004760   0.081047
    3             0.025853   0.325930   0.079294   0.314116   0.290270
    4             0.141068   0.396611   0.131546   0.466035   0.000126
    5             0.437913   0.070175   0.621217   0.464217   0.444157
    6             0.602819   0.336681   0.712165   0.011495   0.128241
    7             0.085223   0.013527   0.024797   0.058602   0.000996
    8             0.007063   0.086076   0.005083   0.035525   0.081529
    9             0.007279   0.085837   0.004895   0.035799   0.081931
   10             0.035718   0.107657   0.012254   0.010088   0.000490
   11             0.036184   0.107586   0.012314   0.009984   0.000484
   12             0.111067   0.025252   0.063268   0.046044   0.184298
   13             0.110992   0.025321   0.062698   0.045229   0.185410
   14             0.164511   0.126704   0.075139   0.008101   0.081166
   15             0.164144   0.127197   0.074605   0.007622   0.082004
   16             0.032896   0.010951   0.007063   0.001658   0.004489
   17             0.000003   0.000000   0.023135   0.005619   0.000000
   18             0.000000   0.000000   0.004349   0.153452   0.000003
   19             0.000897   0.026929   0.009743   0.004445   0.082244
   20             0.032409   0.010747   0.007424   0.001708   0.004402

                     21         22         23         24         25

                  2.000000   2.000000   2.000000   2.000000   2.000000

    1             0.389033   0.346162   0.646990   0.510966   0.387660
    2             0.069582   0.120595   0.053836   0.078304   0.213701
    3             0.253912   0.023838   0.664333   0.325651   0.429616
    4             0.450079   0.498531   0.119374   0.412520   0.067993
    5             0.224486   0.151336   0.188324   0.029998   0.000005
    6             0.067228   0.003498   0.025831   0.031812   0.000515
    7             0.000831   0.000289   0.012753   0.009707   0.000035
    8             0.008358   0.012267   0.069670   0.069573   0.257413
    9             0.008256   0.012268   0.066768   0.061903   0.268092
   10             0.106795   0.230135   0.026032   0.024586   0.068601
   11             0.105018   0.232071   0.024650   0.022499   0.072141
   12             0.057571   0.110572   0.003860   0.003540   0.004035
   13             0.056868   0.111747   0.003706   0.003405   0.004370
   14             0.009149   0.011357   0.000088   0.000429   0.000101
   15             0.009032   0.011514   0.000077   0.000436   0.000108
   16             0.001167   0.000531   0.000143  -0.000032   0.000013
   17             0.000060   0.000000   0.003546   0.001716   0.000000
   18             0.114155   0.000009   0.038305   0.344840   0.000096
   19             0.067210   0.122761   0.051567   0.068180   0.225491
   20             0.001207   0.000520   0.000145  -0.000033   0.000013

               ----- POPULATIONS IN EACH AO -----
                             MULLIKEN      LOWDIN
              1  C  1  S      1.98640     1.97429
              2  C  1  S      0.36784     0.42115
              3  C  1  X      0.55224     0.52208
              4  C  1  Y      0.56505     0.52653
              5  C  1  Z      0.56365     0.52557
              6  C  1  S      1.10661     0.58021
              7  C  1  X      0.42097     0.54628
              8  C  1  Y      0.49917     0.58226
              9  C  1  Z      0.49247     0.57979
             10  H  2  S      0.46977     0.46867
             11  H  2  S      0.33024     0.43615
             12  C  3  S      1.98751     1.97408
             13  C  3  S      0.36241     0.41836
             14  C  3  X      0.53643     0.51406
             15  C  3  Y      0.56462     0.52812
             16  C  3  Z      0.56329     0.52748
             17  C  3  S      1.09307     0.56263
             18  C  3  X      0.32135     0.50394
             19  C  3  Y      0.48189     0.56458
             20  C  3  Z      0.47458     0.56267
             21  C  4  S      1.98761     1.97413
             22  C  4  S      0.36281     0.42239
             23  C  4  X      0.53347     0.51364
             24  C  4  Y      0.56469     0.52854
             25  C  4  Z      0.56215     0.52654
             26  C  4  S      1.09135     0.56435
             27  C  4  X      0.31554     0.49804
             28  C  4  Y      0.47941     0.56530
             29  C  4  Z      0.46920     0.56238
             30  C  5  S      1.98771     1.97414
             31  C  5  S      0.36237     0.42249
             32  C  5  X      0.53651     0.51679
             33  C  5  Y      0.56846     0.53274
             34  C  5  Z      0.56708     0.53201
             35  C  5  S      1.10267     0.56499
             36  C  5  X      0.31050     0.50096
             37  C  5  Y      0.49181     0.56864
             38  C  5  Z      0.48477     0.56715
             39  C  6  S      1.98747     1.97452
             40  C  6  S      0.37435     0.43800
             41  C  6  X      0.46806     0.44719
             42  C  6  Y      0.57576     0.54115
             43  C  6  Z      0.56693     0.53298
             44  C  6  S      1.08350     0.58139
             45  C  6  X      0.26289     0.44308
             46  C  6  Y      0.48733     0.55003
             47  C  6  Z      0.46936     0.54286
             48  N  7  S      1.98625     1.97627
             49  N  7  S      0.37744     0.48411
             50  N  7  X      0.63492     0.61103
             51  N  7  Y      0.63602     0.60572
             52  N  7  Z      0.63587     0.60600
             53  N  7  S      1.33395     0.74793
             54  N  7  X      0.69702     0.70103
             55  N  7  Y      0.69425     0.69166
             56  N  7  Z      0.69465     0.69287
             57  H  8  S      0.47164     0.47661
             58  H  8  S      0.32582     0.43337
             59  H  9  S      0.47156     0.47660
             60  H  9  S      0.32604     0.43350
             61  H 10  S      0.46994     0.47430
             62  H 10  S      0.31848     0.43049
             63  H 11  S      0.46983     0.47422
             64  H 11  S      0.31856     0.43055
             65  H 12  S      0.46782     0.47141
             66  H 12  S      0.30921     0.42659
             67  H 13  S      0.46772     0.47137
             68  H 13  S      0.30945     0.42672
             69  H 14  S      0.46811     0.46972
             70  H 14  S      0.24918     0.40232
             71  H 15  S      0.46808     0.46973
             72  H 15  S      0.24919     0.40233
             73  H 16  S      0.42097     0.42683
             74  H 16  S      0.17043     0.31024
             75  H 17  S      0.42145     0.42708
             76  H 17  S      0.16821     0.30850
             77  H 18  S      0.46857     0.46637
             78  H 18  S      0.31482     0.42735
             79  H 19  S      0.46969     0.46862
             80  H 19  S      0.33020     0.43614
             81  H 20  S      0.42102     0.42686
             82  H 20  S      0.17035     0.31025

          ----- MULLIKEN ATOMIC OVERLAP POPULATIONS -----
          (OFF-DIAGONAL ELEMENTS NEED TO BE MULTIPLIED BY 2)

             1           2           3           4           5

    1    5.3030220
    2    0.3689045   0.5244905
    3    0.2838037  -0.0421101   5.3373537
    4   -0.0667663  -0.0029777   0.2689506   5.3928541
    5    0.0034473  -0.0000036  -0.0539396   0.2517194   5.4506206
    6   -0.0000742   0.0000012   0.0032876  -0.0590960   0.2303288
    7    0.0000000   0.0000000  -0.0000180   0.0017382  -0.0367907
    8   -0.0379992   0.0033528   0.3726207  -0.0461568  -0.0024546
    9   -0.0381215  -0.0025800   0.3725757  -0.0462503  -0.0024926
   10   -0.0003774   0.0036672  -0.0397125   0.3704278  -0.0455163
   11   -0.0003394  -0.0002162  -0.0397582   0.3704128  -0.0456039
   12   -0.0000051   0.0000032  -0.0006632  -0.0354700   0.3669717
   13   -0.0000050   0.0000010  -0.0006747  -0.0355658   0.3668923
   14   -0.0000000  -0.0000003  -0.0000407   0.0009819  -0.0374200
   15    0.0000000   0.0000001  -0.0000414   0.0009891  -0.0374297
   16    0.0000000   0.0000000  -0.0000006  -0.0000388   0.0006975
   17   -0.0000000   0.0000000   0.0000004  -0.0000568   0.0022392
   18    0.3700055  -0.0250414  -0.0343716   0.0034752  -0.0000777
   19    0.3688962  -0.0274840  -0.0421243  -0.0029058  -0.0000056
   20    0.0000000  -0.0000000  -0.0000006  -0.0000380   0.0006801

             6           7           8           9          10

    6    5.4217962
    7    0.1179043   6.7536578
    8    0.0000051   0.0000002   0.5384881
    9    0.0000064   0.0000002  -0.0301759   0.5388757
   10   -0.0023951  -0.0000068   0.0036423  -0.0030086   0.5276217
   11   -0.0023722  -0.0000067  -0.0030283   0.0036495  -0.0292189
   12   -0.0455116  -0.0009461   0.0037631  -0.0002104   0.0034494
   13   -0.0456243  -0.0009462  -0.0002096   0.0037886  -0.0028227
   14    0.3623522  -0.0250091   0.0000022   0.0000027   0.0030817
   15    0.3623347  -0.0250458   0.0000028   0.0000022  -0.0001701
   16   -0.0245679   0.3020292   0.0000001  -0.0000001   0.0000022
   17   -0.0181391   0.3018235   0.0000000   0.0000000   0.0000015
   18    0.0000003  -0.0000000  -0.0017583  -0.0018167  -0.0000248
   19    0.0000012   0.0000000  -0.0026389   0.0033597  -0.0002181
   20   -0.0245980   0.3019909  -0.0000001   0.0000002   0.0000047

            11          12          13          14          15

   11    0.5277541
   12   -0.0028211   0.5126891
   13    0.0034586  -0.0276855   0.5131021
   14   -0.0001727   0.0030125  -0.0027490   0.4369474
   15    0.0030560  -0.0027672   0.0030174  -0.0229846   0.4370104
   16    0.0000046  -0.0001565   0.0033751  -0.0019588   0.0023507
   17    0.0000015  -0.0000309  -0.0000294  -0.0011112  -0.0011560
   18   -0.0000258   0.0000000   0.0000000   0.0000000   0.0000000
   19    0.0036149   0.0000009   0.0000032   0.0000001  -0.0000003
   20    0.0000023   0.0034154  -0.0001546   0.0023520  -0.0018967

            16          17          18          19          20

   16    0.3435215
   17   -0.0164626   0.3390419
   18    0.0000000   0.0000000   0.4980713
   19   -0.0000000   0.0000000  -0.0250447   0.5244290
   20   -0.0173892  -0.0164656   0.0000000   0.0000000   0.3434753

          TOTAL MULLIKEN AND LOWDIN ATOMIC POPULATIONS
       ATOM         MULL.POP.    CHARGE          LOW.POP.     CHARGE
    1 C             6.554391   -0.554391         6.258144   -0.258144
    2 H             0.800007    0.199993         0.904823    0.095177
    3 C             6.385137   -0.385137         6.155922   -0.155922
    4 C             6.366226   -0.366226         6.155308   -0.155308
    5 C             6.411863   -0.411863         6.179913   -0.179913
    6 C             6.275640   -0.275640         6.051203   -0.051203
    7 N             7.690375   -0.690375         7.116631   -0.116631
    8 H             0.797456    0.202544         0.909979    0.090021
    9 H             0.797605    0.202395         0.910099    0.089901
   10 H             0.788427    0.211573         0.904789    0.095211
   11 H             0.788391    0.211609         0.904770    0.095230
   12 H             0.777038    0.222962         0.897994    0.102006
   13 H             0.777171    0.222829         0.898088    0.101912
   14 H             0.717286    0.282714         0.872047    0.127953
   15 H             0.717272    0.282728         0.872064    0.127936
   16 H             0.591406    0.408594         0.737063    0.262937
   17 H             0.589656    0.410344         0.735575    0.264425
   18 H             0.783391    0.216609         0.893724    0.106276
   19 H             0.799884    0.200116         0.904755    0.095245
   20 H             0.591378    0.408622         0.737111    0.262889

          -------------------------------
          BOND ORDER AND VALENCE ANALYSIS     BOND ORDER THRESHOLD=0.050
          -------------------------------

                   BOND                       BOND                       BOND
  ATOM PAIR DIST  ORDER      ATOM PAIR DIST  ORDER      ATOM PAIR DIST  ORDER
    1   2  1.096  0.919        1   3  1.544  0.945        1  18  1.094  0.917
    1  19  1.096  0.919        3   4  1.547  0.921        3   8  1.098  0.907
    3   9  1.098  0.907        4   5  1.553  0.908        4  10  1.098  0.902
    4  11  1.098  0.902        5   6  1.530  0.918        5  12  1.098  0.896
    5  13  1.098  0.896        6   7  1.569  0.715        6  14  1.092  0.878
    6  15  1.092  0.878        7  16  1.035  0.800        7  17  1.035  0.801
    7  20  1.035  0.800

                       TOTAL       BONDED        FREE
      ATOM            VALENCE     VALENCE     VALENCE
    1 C                 3.684       3.684      -0.000
    2 H                 0.916       0.916       0.000
    3 C                 3.655       3.655      -0.000
    4 C                 3.614       3.614      -0.000
    5 C                 3.603       3.603      -0.000
    6 C                 3.384       3.384      -0.000
    7 N                 3.130       3.130      -0.000
    8 H                 0.910       0.910       0.000
    9 H                 0.910       0.910       0.000
   10 H                 0.909       0.909       0.000
   11 H                 0.909       0.909       0.000
   12 H                 0.906       0.906       0.000
   13 H                 0.906       0.906       0.000
   14 H                 0.882       0.882       0.000
   15 H                 0.882       0.882       0.000
   16 H                 0.806       0.806       0.000
   17 H                 0.804       0.804       0.000
   18 H                 0.912       0.912       0.000
   19 H                 0.916       0.916       0.000
   20 H                 0.806       0.806       0.000

          ---------------------
          ELECTROSTATIC MOMENTS
          ---------------------

 POINT   1           X           Y           Z (BOHR)    CHARGE
                -3.418454   -0.064261    0.066624        1.00 (A.U.)
         DX          DY          DZ         /D/  (DEBYE)
   -11.589561   -1.206010   -1.421131   11.738484
 ...... END OF PROPERTY EVALUATION ......
 CPU     0: STEP CPU TIME=     0.03 TOTAL CPU TIME=        118.5 (      2.0 MIN)
 TOTAL WALL CLOCK TIME=        120.5 SECONDS, CPU UTILIZATION IS    98.38%
  $VIB   
          IVIB=   0 IATOM=   0 ICOORD=   0 E=     -251.9377376548
 -1.496178779E-05 1.522715333E-05 3.227219655E-05 1.607718550E-05-2.646266923E-05
  9.045651061E-07 1.878774417E-05 2.858305169E-05 1.879456609E-05 4.881342775E-05
 -2.343895690E-05-1.606916227E-05-2.985990966E-05 3.296537621E-05 3.457625043E-05
 -1.733296722E-05-1.903186136E-05-2.712914884E-05 3.764696896E-05-5.425285062E-05
 -3.861882792E-05-9.975703753E-06-2.263228481E-05 2.065361933E-06-9.188466183E-06
  3.591642415E-06-1.987126729E-05 4.797348699E-06-2.345022031E-06-7.416698333E-06
  6.284643127E-06-5.992512970E-06-4.347882092E-06-2.240625493E-05 7.239988866E-06
  1.226050828E-05-2.389935466E-05 1.239507313E-05 8.384643408E-06 1.245154857E-05
  4.293129044E-06 1.482622930E-05 1.246634770E-05 1.464586511E-05 6.930774526E-06
 -7.801344270E-06 2.012555704E-05-1.374675927E-05-2.196206875E-05 7.508489136E-06
  2.066188946E-06-5.721995577E-06 1.313164134E-05 9.698273359E-06 1.793634418E-05
  5.347536104E-06-2.954143332E-05-1.215170586E-05-1.089834552E-05 1.396162141E-05
 -1.158956136E+01-1.206009733E+00-1.421131266E+00
 ......END OF GEOMETRY SEARCH......
 CPU     0: STEP CPU TIME=     0.01 TOTAL CPU TIME=        118.5 (      2.0 MIN)
 TOTAL WALL CLOCK TIME=        120.5 SECONDS, CPU UTILIZATION IS    98.38%
               751088  WORDS OF DYNAMIC MEMORY USED
 EXECUTION OF GAMESS TERMINATED NORMALLY Sun May 17 15:39:20 2020
 DDI: 263640 bytes (0.3 MB / 0 MWords) used by master data server.
Note: The following floating-point exceptions are signalling: IEEE_UNDERFLOW_FLAGNote: The following floating-point exceptions are signalling: IEEE_UNDERFLOW_FLAGNote: The following floating-point exceptions are signalling: IEEE_UNDERFLOW_FLAGNote: The following floating-point exceptions are signalling:Note: The following floating-point exceptions are signalling: IEEE_UNDERFLOW_FLAG IEEE_DENORMAL
 ----------------------------------------
 CPU timing information for all processes
 ========================================
 0: 117.360 + 1.188 = 118.549
 1: 117.984 + 0.504 = 118.488
 2: 118.326 + 0.396 = 118.722
 3: 117.709 + 0.504 = 118.214
 4: 117.696 + 0.467 = 118.164
 5: 117.413 + 0.291 = 117.705
 ----------------------------------------
 IEEE_DENORMAL
 IEEE_DENORMAL
 IEEE_UNDERFLOW_FLAG IEEE_DENORMAL IEEE_DENORMAL

Note: The following floating-point exceptions are signalling: IEEE_UNDERFLOW_FLAG
 IEEE_DENORMAL
 ddikick.x: exited gracefully.
unset echo
----- accounting info -----
Files used on the master node pietdev were:
-rwxr-xr-x 1 piet piet      970 mei 17 15:37 /home/piet/scr/lysine_1__geoopt.F05*
-rw-r--r-- 1 piet piet 57344000 mei 17 15:39 /home/piet/scr/lysine_1__geoopt.F10
-rw-r--r-- 1 piet piet  5203008 mei 17 15:39 /home/piet/scr/lysine_1__geoopt.F22
-rw-r--r-- 1 piet piet  5203008 mei 17 15:39 /home/piet/scr/lysine_1__geoopt.F22.001
-rw-r--r-- 1 piet piet  5203008 mei 17 15:39 /home/piet/scr/lysine_1__geoopt.F22.002
-rw-r--r-- 1 piet piet  5203008 mei 17 15:39 /home/piet/scr/lysine_1__geoopt.F22.003
-rw-r--r-- 1 piet piet  5203008 mei 17 15:39 /home/piet/scr/lysine_1__geoopt.F22.004
-rw-r--r-- 1 piet piet  5203008 mei 17 15:39 /home/piet/scr/lysine_1__geoopt.F22.005
ls: No match.
ls: No match.
ls: No match.
zo 17 mei 2020 15:39:23 CEST
0.106u 0.027s 2:03.64 0.0%	0+0k 0+8io 0pf+0w
