----- GAMESS execution script 'rungms' -----
This job is running on host pietdev
under operating system Linux at zo 17 mei 2020 15:39:29 CEST
Available scratch disk space (Kbyte units) at beginning of the job is
Filesystem     1K-blocks     Used Available Use% Mounted on
/dev/sda2      244568380 30380192 201695132  14% /
GAMESS temporary binary files will be written to /home/piet/scr
GAMESS supplementary output files will be written to /home/piet/gamess/scr
Copying input file lysine_1__charge_geodisk.inp to your run's scratch directory...
cp lysine_1__charge_geodisk.inp /home/piet/scr/lysine_1__charge_geodisk.F05
unset echo
 
Assuming a single but multicore node.
 
/home/piet/gamess/ddikick.x /home/piet/gamess/gamess.03.x lysine_1__charge_geodisk -ddi 1 6 pietdev:cpus=6 -scr /home/piet/scr

 Distributed Data Interface kickoff program.
 Initiating 6 compute processes on 1 nodes to run the following command:
 /home/piet/gamess/gamess.03.x lysine_1__charge_geodisk 

          ******************************************************
          *         GAMESS VERSION = 30 SEP 2019 (R2)          *
          *             FROM IOWA STATE UNIVERSITY             *
          * M.W.SCHMIDT, K.K.BALDRIDGE, J.A.BOATZ, S.T.ELBERT, *
          *   M.S.GORDON, J.H.JENSEN, S.KOSEKI, N.MATSUNAGA,   *
          *          K.A.NGUYEN, S.J.SU, T.L.WINDUS,           *
          *       TOGETHER WITH M.DUPUIS, J.A.MONTGOMERY       *
          *         J.COMPUT.CHEM.  14, 1347-1363(1993)        *
          **************** 64 BIT LINUX VERSION ****************

  SINCE 1993, STUDENTS AND POSTDOCS WORKING AT IOWA STATE UNIVERSITY
  AND ALSO IN THEIR VARIOUS JOBS AFTER LEAVING ISU HAVE MADE IMPORTANT
  CONTRIBUTIONS TO THE CODE:
     IVANA ADAMOVIC, CHRISTINE AIKENS, YURI ALEXEEV, POOJA ARORA,
     ANDREY ASADCHEV, ROB BELL, PRADIPTA BANDYOPADHYAY, JONATHAN BENTZ,
     COLLEEN BERTONI, BRETT BODE, KURT BRORSEN, CALEB CARLIN, GALINA CHABAN,
     WEI CHEN, CHEOL HO CHOI, PAUL DAY, ALBERT DEFUSCO, NUWAN DESILVA,
     TIM DUDLEY, DMITRI FEDOROV, ALEX FINDLATER, GRAHAM FLETCHER, 
     MARK FREITAG, KURT GLAESEMANN, EMILIE B GUIDEZ, ANASTASIA GUNINA, 
     DAN KEMP, SAROM SOK LEANG, GRANT MERRILL,
     NORIYUKI MINEZAWA, JONATHAN MULLIN,
     TAKESHI NAGATA, SEAN NEDD, HEATHER NETZLOFF, BOSILJKA NJEGIC, RYAN OLSON,
     MIKE PAK, BUU PHAM, DAVID POOLE,
     SPENCER PRUITT, LUKE ROSKOP, TOSAPORN SATTASATHUCHANA,
     JIM SHOEMAKER, LYUDMILA SLIPCHENKO,
     TONY SMITH, JIE SONG, TETSUYA TAKETSUGU, SIMON WEBB,
     JORGE LUIS GALVEZ VALLEJO, PENG XU, SOOHAENG YOO,
     FEDERICO ZAHARIEV

  ADDITIONAL CODE HAS BEEN PROVIDED BY COLLABORATORS IN OTHER GROUPS:
     IOWA STATE UNIVERSITY:
          JOE IVANIC, AARON WEST, LAIMUTIS BYTAUTAS, KLAUS RUEDENBERG
     UNIVERSITY OF TOKYO: KIMIHIKO HIRAO, TAKAHITO NAKAJIMA,
          TAKAO TSUNEDA, MUNEAKI KAMIYA, SUSUMU YANAGISAWA,
          KIYOSHI YAGI, MAHITO CHIBA, SEIKEN TOKURA, NAOAKI KAWAKAMI
     UNIVERSITY OF AARHUS: FRANK JENSEN
     UNIVERSITY OF IOWA: VISVALDAS KAIRYS, HUI LI
     NATIONAL INST. OF STANDARDS AND TECHNOLOGY: WALT STEVENS, DAVID GARMER
     UNIVERSITY OF PISA: BENEDETTA MENNUCCI, JACOPO TOMASI
     UNIVERSITY OF MEMPHIS: HENRY KURTZ, PRAKASHAN KORAMBATH
     UNIVERSITY OF ALBERTA: TOBY ZENG, MARIUSZ KLOBUKOWSKI
     UNIVERSITY OF NEW ENGLAND: MARK SPACKMAN
     MIE UNIVERSITY: HIROAKI UMEDA
     NAT. INST. OF ADVANCED INDUSTRIAL SCIENCE AND TECHNOLOGY: KAZUO KITAURA
     MICHIGAN STATE UNIVERSITY:
          KAROL KOWALSKI, MARTA WLOCH, JEFFREY GOUR, JESSE LUTZ,
          WEI LI, JUN SHEN, J. EMILIANO DEUSTUA, PIOTR PIECUCH
     UNIVERSITY OF MINNESOTA:
          ANDREW SAND, PRACHI SHARMA, YINAN SHU
     UNIVERSITY OF SILESIA: MONIKA MUSIAL, STANISLAW KUCHARSKI
     FACULTES UNIVERSITAIRES NOTRE-DAME DE LA PAIX:
          OLIVIER QUINET, BENOIT CHAMPAGNE
     UNIVERSITY OF CALIFORNIA - SANTA BARBARA: BERNARD KIRTMAN
     INSTITUTE FOR MOLECULAR SCIENCE:
          KAZUYA ISHIMURA, MICHIO KATOUDA, AND SHIGERU NAGASE
     UNIVERSITY OF NOTRE DAME: ANNA POMOGAEVA, DAN CHIPMAN
     KYUSHU UNIVERSITY:
          HARUYUKI NAKANO,
          FENG LONG GU, JACEK KORCHOWIEC, MARCIN MAKOWSKI, AND YURIKO AOKI,
          HIROTOSHI MORI AND EISAKU MIYOSHI
     PENNSYLVANIA STATE UNIVERSITY:
          TZVETELIN IORDANOV, CHET SWALINA, JONATHAN SKONE,
          SHARON HAMMES-SCHIFFER
     WASEDA UNIVERSITY:
          MASATO KOBAYASHI, TOMOKO AKAMA, TSUGUKI TOUMA,
          TAKESHI YOSHIKAWA, YASUHIRO IKABATA, JUNJI SEINO,
          YUYA NAKAJIMA, HIROMI NAKAI
     NANJING UNIVERSITY: SHUHUA LI
     UNIVERSITY OF NEBRASKA:
          PEIFENG SU, DEJUN SI, NANDUN THELLAMUREGE, YALI WANG, HUI LI
     UNIVERSITY OF ZURICH: ROBERTO PEVERATI, KIM BALDRIDGE
     N. COPERNICUS UNIVERSITY AND JACKSON STATE UNIVERSITY:
          MARIA BARYSZ
     UNIVERSITY OF COPENHAGEN: Jimmy Kromann, CASPER STEINMANN
     TOKYO INSTITUTE OF TECHNOLOGY: HIROYA NAKATA
     NAGOYA UNIVERSITY: YOSHIO NISHIMOTO, STEPHAN IRLE
     MOSCOW STATE UNIVERSITY: VLADIMIR MIRONOV
     A.N.NESMEYANOV INSTITUTE OF ORGANOELEMENT COMPOUNDS OF RUSSIAN ACADEMY OF SCIENCES:
          IGOR S. GERASIMOV
     JOHANNES KEPLER UNIVERSITY LINZ:
          CHRISTIAN FRIEDL


 PARALLEL VERSION RUNNING ON        6 PROCESSORS IN        1 NODES.

 EXECUTION OF GAMESS BEGUN Sun May 17 15:39:29 2020

            ECHO OF THE FIRST FEW INPUT CARDS -
 INPUT CARD> $BASIS GBASIS=N21 NGAUSS=3 $END                                                
 INPUT CARD> $CONTRL SCFTYP=RHF DFTTYP=B3LYP MAXIT=60 MULT=1 ICHARG=1 $END                  
 INPUT CARD> $SYSTEM MEMDDI=1000 MWORDS=30 $END                                             
 INPUT CARD> $SCF DIRSCF=.TRUE. $END                                                        
 INPUT CARD> $ELPOT  IEPOT=1 WHERE=PDC $END                                                 
 INPUT CARD> $PDC PTSEL=GEODESIC CONSTR=CHARGE $END                                         
 INPUT CARD> $DATA                                                                          
 INPUT CARD>                                                                                
 INPUT CARD>C1                                                                              
 INPUT CARD>C 6.0000000 1.4302548261 0.3465941159 0.4864169698                              
 INPUT CARD>H 1.0000000 1.4274969012 0.1269457544 1.5600891405                              
 INPUT CARD>C 6.0000000 0.1946842985 -0.2702266925 -0.2033685064                            
 INPUT CARD>C 6.0000000 -1.1226340326 0.2845924342 0.3879248189                             
 INPUT CARD>C 6.0000000 -2.3653644185 -0.3381220063 -0.3041232568                           
 INPUT CARD>C 6.0000000 -3.6505743017 0.2300821800 0.3020105082                             
 INPUT CARD>N 7.0000000 -4.9055442154 -0.4033282294 -0.3955462017                           
 INPUT CARD>H 1.0000000 0.2266070533 -0.0554917720 -1.2793869893                            
 INPUT CARD>H 1.0000000 0.2123994890 -1.3614872991 -0.0840426590                            
 INPUT CARD>H 1.0000000 -1.1551902733 0.0682582759 1.4636946693                             
 INPUT CARD>H 1.0000000 -1.1426074255 1.3754204585 0.2641513706                             
 INPUT CARD>H 1.0000000 -2.3245535679 -0.1157130838 -1.3786374727                           
 INPUT CARD>H 1.0000000 -2.3368678058 -1.4282018417 -0.1732325174                           
 INPUT CARD>H 1.0000000 -3.7494021656 -0.0092730957 1.3629788190                            
 INPUT CARD>H 1.0000000 -3.7394443179 1.3077444403 0.1483328381                             
 INPUT CARD>H 1.0000000 -4.8959109311 -1.4307782086 -0.2677967092                           
 INPUT CARD>H 1.0000000 -5.7868391912 -0.0268782456 -0.0041316680                           
 INPUT CARD>H 1.0000000 2.3511909737 -0.0612426536 0.0581417834                             
 INPUT CARD>H 1.0000000 1.4466833811 1.4346548756 0.3552893150                              
 INPUT CARD>H 1.0000000 -4.8797042763 -0.2044794066 -1.4112242522                           
 INPUT CARD> $END                                                                           
   30000000 WORDS OF MEMORY AVAILABLE

     BASIS OPTIONS
     -------------
     GBASIS=N21          IGAUSS=       3      POLAR=NONE    
     NDFUNC=       0     NFFUNC=       0     DIFFSP=       F
     NPFUNC=       0      DIFFS=       F     BASNAM=        


     RUN TITLE
     ---------
                                                                                 

 THE POINT GROUP OF THE MOLECULE IS C1      
 THE ORDER OF THE PRINCIPAL AXIS IS     0

 ATOM      ATOMIC                      COORDINATES (BOHR)
           CHARGE         X                   Y                   Z
 C           6.0     2.7027897139        0.6549679080        0.9191947887
 H           1.0     2.6975779916        0.2398926911        2.9481409920
 C           6.0     0.3678999783       -0.5106544034       -0.3843107516
 C           6.0    -2.1214707061        0.5378017188        0.7330716116
 C           6.0    -4.4698906121       -0.6389579423       -0.5747096218
 C           6.0    -6.8985851280        0.4347922749        0.5707171059
 N           7.0    -9.2701343878       -0.7621798367       -0.7474739367
 H           1.0     0.4282252376       -0.1048642437       -2.4176908420
 H           1.0     0.4013768341       -2.5728379311       -0.1588175968
 H           1.0    -2.1829930802        0.1289894378        2.7659818547
 H           1.0    -2.1592149457        2.5991677845        0.4991737097
 H           1.0    -4.3927692871       -0.2186660216       -2.6052470598
 H           1.0    -4.4160398225       -2.6989101360       -0.3273619900
 H           1.0    -7.0853427108       -0.0175236099        2.5756564950
 H           1.0    -7.0665251072        2.4712786541        0.2803084190
 H           1.0    -9.2519301201       -2.7037787635       -0.5060624008
 H           1.0   -10.9355404064       -0.0507925192       -0.0078077204
 H           1.0     4.4431066851       -0.1157318341        0.1098720391
 H           1.0     2.7338351813        2.7111046018        0.6713994517
 H           1.0    -9.2213039833       -0.3864100486       -2.6668271439

          INTERNUCLEAR DISTANCES (ANGS.)
          ------------------------------

                1 C          2 H          3 C          4 C          5 C     

   1 C       0.0000000    1.0959128 *  1.5436666 *  2.5555403 *  3.9370694  
   2 H       1.0959128 *  0.0000000    2.1880027 *  2.8110477 *  4.2517494  
   3 C       1.5436666 *  2.1880027 *  0.0000000    1.5468612 *  2.5629301 *
   4 C       2.5555403 *  2.8110477 *  1.5468612 *  0.0000000    1.5527661 *
   5 C       3.9370694    4.2517494    2.5629301 *  1.5527661 *  0.0000000  
   6 C       5.0855094    5.2326099    3.9104642    2.5299871 *  1.5303655 *
   7 N       6.4406981    6.6492939    5.1055831    3.9239612    2.5426607 *
   8 H       2.1745125 *  3.0883725    1.0977003 *  2.1716439 *  2.7837628 *
   9 H       2.1739682 *  2.5288464 *  1.0979081 *  2.1713236 *  2.7821896 *
  10 H       2.7779613 *  2.5851517 *  2.1715969 *  1.0977892 *  2.1805611 *
  11 H       2.7798392 *  3.1374480    2.1714232 *  1.0980094 *  2.1804354 *
  12 H       4.2179073    4.7720939    2.7841859 *  2.1738439 *  1.0980492 *
  13 H       4.2161892    4.4264353    2.7839847 *  2.1732293 *  1.0982798 *
  14 H       5.2653441    5.1824407    4.2517477    2.8172678 *  2.1915591 *
  15 H       5.2691460    5.4849451    4.2533581    2.8199185 *  2.1912755 *
  16 H       6.6142470    6.7641080    5.2216080    4.1964373    2.7566071 *
  17 H       7.2433808    7.3835692    5.9897861    4.6910054    3.4486747  
  18 H       1.0944742 *  1.7732658 *  2.1823343 *  3.5065395    4.7385433  
  19 H       1.0960568 *  1.7782052 *  2.1877435 *  2.8151555 *  4.2554989  
  20 H       6.6121334    6.9799235    5.2165753    4.1942467    2.7505341 *

                6 C          7 N          8 H          9 H         10 H     

   1 C       5.0855094    6.4406981    2.1745125 *  2.1739682 *  2.7779613 *
   2 H       5.2326099    6.6492939    3.0883725    2.5288464 *  2.5851517 *
   3 C       3.9104642    5.1055831    1.0977003 *  1.0979081 *  2.1715969 *
   4 C       2.5299871 *  3.9239612    2.1716439 *  2.1713236 *  1.0977892 *
   5 C       1.5303655 *  2.5426607 *  2.7837628 *  2.7821896 *  2.1805611 *
   6 C       0.0000000    1.5693131 *  4.1970115    4.1957952    2.7572883 *
   7 N       1.5693131 *  0.0000000    5.2193047    5.2161721    4.2124014  
   8 H       4.1970115    5.2193047    0.0000000    1.7705011 *  3.0739510  
   9 H       4.1957952    5.2161721    1.7705011 *  0.0000000    2.5119644 *
  10 H       2.7572883 *  4.2124014    3.0739510    2.5119644 *  0.0000000  
  11 H       2.7573775 *  4.2141240    2.5109299 *  3.0737513    1.7741858 *
  12 H       2.1685209 *  2.7768154 *  2.5538007 *  3.1087071    3.0789784  
  13 H       2.1683142 *  2.7745068 *  3.1111596    2.5516993 *  2.5130231 *
  14 H       1.0921134 *  2.1411105 *  4.7741892    4.4292467    2.5973236 *
  15 H       1.0921862 *  2.1408790 *  4.4301648    4.7745016    3.1535491  
  16 H       2.1526729 *  1.0354063 *  5.3995294    5.1120839    4.3861331  
  17 H       2.1733337 *  1.0351815 *  6.1472458    6.1464162    4.8596025  
  18 H       6.0137782    7.2789464    2.5105524 *  2.5070464 *  3.7798226  
  19 H       5.2379261    6.6552785    2.5261215 *  3.0878602    3.1409153  
  20 H       2.1528534 *  1.0352828 *  5.1101853    5.3879123    4.7129130  

               11 H         12 H         13 H         14 H         15 H     

   1 C       2.7798392 *  4.2179073    4.2161892    5.2653441    5.2691460  
   2 H       3.1374480    4.7720939    4.4264353    5.1824407    5.4849451  
   3 C       2.1714232 *  2.7841859 *  2.7839847 *  4.2517477    4.2533581  
   4 C       1.0980094 *  2.1738439 *  2.1732293 *  2.8172678 *  2.8199185 *
   5 C       2.1804354 *  1.0980492 *  1.0982798 *  2.1915591 *  2.1912755 *
   6 C       2.7573775 *  2.1685209 *  2.1683142 *  1.0921134 *  1.0921862 *
   7 N       4.2141240    2.7768154 *  2.7745068 *  2.1411105 *  2.1408790 *
   8 H       2.5109299 *  2.5538007 *  3.1111596    4.7741892    4.4301648  
   9 H       3.0737513    3.1087071    2.5516993 *  4.4292467    4.7745016  
  10 H       1.7741858 *  3.0789784    2.5130231 *  2.5973236 *  3.1535491  
  11 H       0.0000000    2.5138081 *  3.0786134    3.1496312    2.6002992 *
  12 H       2.5138081 *  0.0000000    1.7820717 *  3.0915988    2.5218615 *
  13 H       3.0786134    1.7820717 *  0.0000000    2.5236001 *  3.0912825  
  14 H       3.1496312    3.0915988    2.5236001 *  0.0000000    1.7916471 *
  15 H       2.6002992 *  2.5218615 *  3.0912825    1.7916471 *  0.0000000  
  16 H       4.7164613    3.0943888    2.5607910 *  2.4483848 *  3.0016804  
  17 H       4.8587350    3.7262018    3.7275468    2.4536607 *  2.4487321 *
  18 H       3.7832616    4.8918185    4.8887633    6.2387929    6.2432442  
  19 H       2.5915713 *  4.4308432    4.7739442    5.4863167    5.1918068  
  20 H       4.3896310    2.5568998 *  3.0815803    3.0019812    2.4534123 *

               16 H         17 H         18 H         19 H         20 H     

   1 C       6.6142470    7.2433808    1.0944742 *  1.0960568 *  6.6121334  
   2 H       6.7641080    7.3835692    1.7732658 *  1.7782052 *  6.9799235  
   3 C       5.2216080    5.9897861    2.1823343 *  2.1877435 *  5.2165753  
   4 C       4.1964373    4.6910054    3.5065395    2.8151555 *  4.1942467  
   5 C       2.7566071 *  3.4486747    4.7385433    4.2554989    2.7505341 *
   6 C       2.1526729 *  2.1733337 *  6.0137782    5.2379261    2.1528534 *
   7 N       1.0354063 *  1.0351815 *  7.2789464    6.6552785    1.0352828 *
   8 H       5.3995294    6.1472458    2.5105524 *  2.5261215 *  5.1101853  
   9 H       5.1120839    6.1464162    2.5070464 *  3.0878602    5.3879123  
  10 H       4.3861331    4.8596025    3.7798226    3.1409153    4.7129130  
  11 H       4.7164613    4.8587350    3.7832616    2.5915713 *  4.3896310  
  12 H       3.0943888    3.7262018    4.8918185    4.4308432    2.5568998 *
  13 H       2.5607910 *  3.7275468    4.8887633    4.7739442    3.0815803  
  14 H       2.4483848 *  2.4536607 *  6.2387929    5.4863167    3.0019812  
  15 H       3.0016804    2.4487321 *  6.2432442    5.1918068    2.4534123 *
  16 H       0.0000000    1.6835105 *  7.3825707    6.9876638    1.6767522 *
  17 H       1.6835105 *  0.0000000    8.1383410    7.3884444    1.6835514 *
  18 H       7.3825707    8.1383410    0.0000000    1.7731723 *  7.3800677  
  19 H       6.9876638    7.3884444    1.7731723 *  0.0000000    6.7698236  
  20 H       1.6767522 *  1.6835514 *  7.3800677    6.7698236    0.0000000  

  * ... LESS THAN  3.000


     ATOMIC BASIS SET
     ----------------
 THE CONTRACTED PRIMITIVE FUNCTIONS HAVE BEEN UNNORMALIZED
 THE CONTRACTED BASIS FUNCTIONS ARE NOW NORMALIZED TO UNITY

  SHELL TYPE  PRIMITIVE        EXPONENT          CONTRACTION COEFFICIENT(S)

 C         

      1   S       1           172.2560000    0.061766907377
      1   S       2            25.9109000    0.358794042852
      1   S       3             5.5333500    0.700713083689

      2   L       4             3.6649800   -0.395895162119    0.236459946619
      2   L       5             0.7705450    1.215834355681    0.860618805716

      3   L       6             0.1958570    1.000000000000    1.000000000000

 H         

      4   S       7             5.4471780    0.156284978695
      4   S       8             0.8245472    0.904690876670

      5   S       9             0.1831916    1.000000000000

 C         

      6   S      10           172.2560000    0.061766907377
      6   S      11            25.9109000    0.358794042852
      6   S      12             5.5333500    0.700713083689

      7   L      13             3.6649800   -0.395895162119    0.236459946619
      7   L      14             0.7705450    1.215834355681    0.860618805716

      8   L      15             0.1958570    1.000000000000    1.000000000000

 C         

      9   S      16           172.2560000    0.061766907377
      9   S      17            25.9109000    0.358794042852
      9   S      18             5.5333500    0.700713083689

     10   L      19             3.6649800   -0.395895162119    0.236459946619
     10   L      20             0.7705450    1.215834355681    0.860618805716

     11   L      21             0.1958570    1.000000000000    1.000000000000

 C         

     12   S      22           172.2560000    0.061766907377
     12   S      23            25.9109000    0.358794042852
     12   S      24             5.5333500    0.700713083689

     13   L      25             3.6649800   -0.395895162119    0.236459946619
     13   L      26             0.7705450    1.215834355681    0.860618805716

     14   L      27             0.1958570    1.000000000000    1.000000000000

 C         

     15   S      28           172.2560000    0.061766907377
     15   S      29            25.9109000    0.358794042852
     15   S      30             5.5333500    0.700713083689

     16   L      31             3.6649800   -0.395895162119    0.236459946619
     16   L      32             0.7705450    1.215834355681    0.860618805716

     17   L      33             0.1958570    1.000000000000    1.000000000000

 N         

     18   S      34           242.7660000    0.059865700508
     18   S      35            36.4851000    0.352955002994
     18   S      36             7.8144900    0.706513005993

     19   L      37             5.4252200   -0.413300077430    0.237972016222
     19   L      38             1.1491500    1.224417266851    0.858953058551

     20   L      39             0.2832050    1.000000000000    1.000000000000

 H         

     21   S      40             5.4471780    0.156284978695
     21   S      41             0.8245472    0.904690876670

     22   S      42             0.1831916    1.000000000000

 H         

     23   S      43             5.4471780    0.156284978695
     23   S      44             0.8245472    0.904690876670

     24   S      45             0.1831916    1.000000000000

 H         

     25   S      46             5.4471780    0.156284978695
     25   S      47             0.8245472    0.904690876670

     26   S      48             0.1831916    1.000000000000

 H         

     27   S      49             5.4471780    0.156284978695
     27   S      50             0.8245472    0.904690876670

     28   S      51             0.1831916    1.000000000000

 H         

     29   S      52             5.4471780    0.156284978695
     29   S      53             0.8245472    0.904690876670

     30   S      54             0.1831916    1.000000000000

 H         

     31   S      55             5.4471780    0.156284978695
     31   S      56             0.8245472    0.904690876670

     32   S      57             0.1831916    1.000000000000

 H         

     33   S      58             5.4471780    0.156284978695
     33   S      59             0.8245472    0.904690876670

     34   S      60             0.1831916    1.000000000000

 H         

     35   S      61             5.4471780    0.156284978695
     35   S      62             0.8245472    0.904690876670

     36   S      63             0.1831916    1.000000000000

 H         

     37   S      64             5.4471780    0.156284978695
     37   S      65             0.8245472    0.904690876670

     38   S      66             0.1831916    1.000000000000

 H         

     39   S      67             5.4471780    0.156284978695
     39   S      68             0.8245472    0.904690876670

     40   S      69             0.1831916    1.000000000000

 H         

     41   S      70             5.4471780    0.156284978695
     41   S      71             0.8245472    0.904690876670

     42   S      72             0.1831916    1.000000000000

 H         

     43   S      73             5.4471780    0.156284978695
     43   S      74             0.8245472    0.904690876670

     44   S      75             0.1831916    1.000000000000

 H         

     45   S      76             5.4471780    0.156284978695
     45   S      77             0.8245472    0.904690876670

     46   S      78             0.1831916    1.000000000000

 TOTAL NUMBER OF BASIS SET SHELLS             =   46
 NUMBER OF CARTESIAN GAUSSIAN BASIS FUNCTIONS =   82
 NUMBER OF ELECTRONS                          =   50
 CHARGE OF MOLECULE                           =    1
 SPIN MULTIPLICITY                            =    1
 NUMBER OF OCCUPIED ORBITALS (ALPHA)          =   25
 NUMBER OF OCCUPIED ORBITALS (BETA )          =   25
 TOTAL NUMBER OF ATOMS                        =   20
 THE NUCLEAR REPULSION ENERGY IS      251.9981774827

 SELECTED MURRAY-HANDY-LAMING RADIAL GRID

 LEGACY BECKE'S FUZZY CELL METHOD

 SELECTED ORIGINAL BECKE'S PARTITION FUNCTION

     LEBEDEV GRID-BASED DFT OPTIONS
     ------------------------------
     DFTTYP=B3LYP   
     NRAD  =      96     NLEB  =     302
     NRAD0 =      24     NLEB0 =     110
     SWOFF =    5.00E-03 (PURE SCF -> DFT)
     SWITCH=    3.00E-04 (COARSE -> TIGHT GRID)
     THRESH=    0.00E+00 GTHRE=    1.00E+00

 GRIMME'S EMPIRICAL DISPERSION CORRECTION= F

     $CONTRL OPTIONS
     ---------------
 SCFTYP=RHF          RUNTYP=ENERGY       EXETYP=RUN     
 MPLEVL=       0     CITYP =NONE         CCTYP =NONE         VBTYP =NONE    
 DFTTYP=B3LYP        TDDFT =NONE    
 MULT  =       1     ICHARG=       1     NZVAR =       0     COORD =UNIQUE  
 PP    =NONE         RELWFN=NONE         LOCAL =NONE         NUMGRD=       F
 ISPHER=      -1     NOSYM =       0     MAXIT =      60     UNITS =ANGS    
 PLTORB=       F     MOLPLT=       F     AIMPAC=       F     FRIEND=        
 NPRINT=       7     IREST =       0     GEOM  =INPUT   
 NORMF =       0     NORMP =       0     ITOL  =      20     ICUT  =       9
 INTTYP=BEST         GRDTYP=BEST         QMTTOL= 1.0E-06

     $SYSTEM OPTIONS
     ---------------
  REPLICATED MEMORY=    30000000 WORDS (ON EVERY NODE).
 DISTRIBUTED MEMDDI=        1000 MILLION WORDS IN AGGREGATE,
 MEMDDI DISTRIBUTED OVER   6 PROCESSORS IS   166666666 WORDS/PROCESSOR.
 TOTAL MEMORY REQUESTED ON EACH PROCESSOR=   196666666 WORDS.
 TIMLIM=      525600.00 MINUTES, OR     365.0 DAYS.
 PARALL= T  BALTYP=  DLB     KDIAG=    0  COREFL= F
 MXSEQ2=     300 MXSEQ3=     150  mem10=         0

     INPUT FOR POTENTIAL-DERIVED CHARGES 
     -----------------------------------
     VDWSCL=    1.40   RMAX=    3.00   DELR=    0.80
     VDWINC=    0.20 PTDENS=    0.28
     LAYER =       4  NFREQ=      30 MAXPDC=   10000
     CONSTR=CHARGE    UNITS=ANGS      PTSEL=GEODESIC
     CENTER=  0.0000  0.0000  0.0000
     DPOLE =  0.0000  0.0000  0.0000
     QPOLE =  0.0000  0.0000  0.0000  0.0000  0.0000  0.0000


          ----------------
          PROPERTIES INPUT
          ----------------

     MOMENTS            FIELD           POTENTIAL          DENSITY
 IEMOM =       1   IEFLD =       0   IEPOT =       1   IEDEN =       0
 WHERE =COMASS     WHERE =NUCLEI     WHERE =PDC        WHERE =NUCLEI  
 OUTPUT=BOTH       OUTPUT=BOTH       OUTPUT=BOTH       OUTPUT=BOTH    
 IEMINT=       0   IEFINT=       0                     IEDINT=       0
                                                       MORB  =       0
          EXTRAPOLATION IN EFFECT
          DIIS IN EFFECT
 ORBITAL PRINTING OPTION: NPREO=     1    82     2     1

     -------------------------------
     INTEGRAL TRANSFORMATION OPTIONS
     -------------------------------
     NWORD  =            0
     CUTOFF = 1.0E-09     MPTRAN =       0
     DIRTRF =       T     AOINTS =DUP     

          ----------------------
          INTEGRAL INPUT OPTIONS
          ----------------------
 NOPK  =       1 NORDER=       0 SCHWRZ=       T

     ------------------------------------------
     THE POINT GROUP IS C1 , NAXIS= 0, ORDER= 1
     ------------------------------------------

     DIMENSIONS OF THE SYMMETRY SUBSPACES ARE
 A   =   82

 ..... DONE SETTING UP THE RUN .....
 CPU     0: STEP CPU TIME=     0.02 TOTAL CPU TIME=          0.0 (      0.0 MIN)
 TOTAL WALL CLOCK TIME=          0.0 SECONDS, CPU UTILIZATION IS    66.67%

          ********************
          1 ELECTRON INTEGRALS
          ********************
 ...... END OF ONE-ELECTRON INTEGRALS ......
 CPU     0: STEP CPU TIME=     0.01 TOTAL CPU TIME=          0.0 (      0.0 MIN)
 TOTAL WALL CLOCK TIME=          0.0 SECONDS, CPU UTILIZATION IS    75.00%

          -------------
          GUESS OPTIONS
          -------------
          GUESS =HUCKEL            NORB  =       0          NORDER=       0
          MIX   =       F          PRTMO =       F          PUNMO =       F
          TOLZ  = 1.0E-08          TOLE  = 1.0E-05
          SYMDEN=       F          PURIFY=       F

 INITIAL GUESS ORBITALS GENERATED BY HUCKEL   ROUTINE.
 HUCKEL GUESS REQUIRES     70820 WORDS.

 SYMMETRIES FOR INITIAL GUESS ORBITALS FOLLOW.   BOTH SET(S).
    25 ORBITALS ARE OCCUPIED (    6 CORE ORBITALS).
     7=A        8=A        9=A       10=A       11=A       12=A       13=A   
    14=A       15=A       16=A       17=A       18=A       19=A       20=A   
    21=A       22=A       23=A       24=A       25=A       26=A       27=A   
    28=A       29=A       30=A       31=A       32=A       33=A       34=A   
    35=A   
 ...... END OF INITIAL ORBITAL SELECTION ......
 CPU     0: STEP CPU TIME=     0.02 TOTAL CPU TIME=          0.0 (      0.0 MIN)
 TOTAL WALL CLOCK TIME=          0.1 SECONDS, CPU UTILIZATION IS    83.33%

                    ----------------------
                    AO INTEGRAL TECHNOLOGY
                    ----------------------
     S,P,L SHELL ROTATED AXIS INTEGRALS, REPROGRAMMED BY
        KAZUYA ISHIMURA (IMS) AND JOSE SIERRA (SYNSTAR).
     S,P,D,L SHELL ROTATED AXIS INTEGRALS PROGRAMMED BY
        KAZUYA ISHIMURA (INSTITUTE FOR MOLECULAR SCIENCE).
     S,P,D,F,G SHELL TO TOTAL QUARTET ANGULAR MOMENTUM SUM 5,
        ERIC PROGRAM BY GRAHAM FLETCHER (ELORET AND NASA ADVANCED
        SUPERCOMPUTING DIVISION, AMES RESEARCH CENTER).
     S,P,D,F,G,L SHELL GENERAL RYS QUADRATURE PROGRAMMED BY
        MICHEL DUPUIS (PACIFIC NORTHWEST NATIONAL LABORATORY).

          --------------------
          2 ELECTRON INTEGRALS
          --------------------

 DIRECT SCF METHOD SKIPS INTEGRAL STORAGE ON DISK.
 DIRECT TRANSFORMATION SKIPS AO INTEGRAL STORAGE ON DISK.
  ...... END OF TWO-ELECTRON INTEGRALS .....
 CPU     0: STEP CPU TIME=     0.01 TOTAL CPU TIME=          0.1 (      0.0 MIN)
 TOTAL WALL CLOCK TIME=          0.1 SECONDS, CPU UTILIZATION IS    75.00%

          --------------------------
             R-B3LYP SCF CALCULATION
          --------------------------

     NUCLEAR ENERGY =       251.9981774827
     MAXIT =   60     NPUNCH=    2
     EXTRAP=T  DAMP=F  SHIFT=F  RSTRCT=F  DIIS=T  DEM=F  SOSCF=F
         DENSITY MATRIX CONVERGENCE THRESHOLD=  2.00E-05
     COARSE -> FINE DFT GRID SWITCH THRESHOLD=  3.00E-04 (SWITCH IN $DFT)
                   HF -> DFT SWITCH THRESHOLD=  5.00E-03 (SWOFF IN $DFT)
     MEMORY REQUIRED FOR RHF ITERS=    750542 WORDS.

 DIRECT SCF CALCULATION, SCHWRZ=T   FDIFF=T,  DIRTHR=  0.00E+00 NITDIR=10
 SCHWARZ INEQUALITY OVERHEAD:      3206 INTEGRALS, T=        0.00

 DFT CODE IS SWITCHING FROM THE FINE GRID NRAD= 96,  NLEB=  302
                      TO THE COARSE GRID NRAD0= 24, NLEB0=  110

     EXCHANGE FUNCTIONAL   =B88&HFX   
     CORRELATION FUNCTIONAL=LYP88&VWN5
     DFT THRESHOLD         =.690E-08
     GRID CHANGE THRESHOLD =.300E-03
 FOR AN EULER-MACLAURIN QUADRATURE USING  96 RADIAL POINTS:
 SMALLEST GAUSSIAN PRIMITIVE EXPONENT=        0.1831915800 OF TYPE -S-
 ON ATOM NUMBER   2 HAS RADIAL NORMALIZATION=  1.000000
  LARGEST GAUSSIAN PRIMITIVE EXPONENT=      242.7660000000 OF TYPE -S-
 ON ATOM NUMBER   7 HAS RADIAL NORMALIZATION=  1.000000
 DFT IS SWITCHED OFF, PERFORMING PURE SCF UNTIL SWOFF THRESHOLD IS REACHED.

                                                                                   NONZERO     BLOCKS
 ITER EX DEM     TOTAL ENERGY        E CHANGE  DENSITY CHANGE    DIIS ERROR      INTEGRALS    SKIPPED
   1  0  0     -249.6796388462  -249.6796388462   0.702202672   0.660022610        3813961     234654
          * * *   INITIATING DIIS PROCEDURE   * * *
   2  1  0     -250.2851468917    -0.6055080456   0.129693463   0.141253640        3800749     242036
   3  2  0     -250.3331046100    -0.0479577183   0.041362173   0.062059624        3753133     257409
   4  3  0     -250.3453694554    -0.0122648454   0.022043112   0.007098103        3669483     278248
   5  4  0     -250.3457222677    -0.0003528123   0.003304817   0.001895017        3616740     286980
 CONVERGED TO SWOFF, SO DFT CALCULATION IS NOW SWITCHED ON.
          * * *   INITIATING DIIS PROCEDURE   * * *
   6  5  0     -251.9165138059    -1.5707915382   0.066362119   0.075534492        3815369     233302
   7  6  0     -251.9303682880    -0.0138544821   0.042148861   0.033886656        3764988     255439
   8  7  0     -251.9327622996    -0.0023940115   0.020461441   0.023831159        3716979     265484
   9  8  0     -251.9353840312    -0.0026217316   0.001288662   0.001045520        3658127     278224
  10  9  0     -251.9353875825    -0.0000035513   0.000275106   0.000291725        3344294     325583
 DFT CODE IS SWITCHING BACK TO THE FINE GRID
          * * *   INITIATING DIIS PROCEDURE   * * *
  11 10  0     -251.9377260072    -0.0023384247   0.003771359   0.001504596        3816918     232197
  12 11  0     -251.9377369090    -0.0000109018   0.000657195   0.000384956        3525718     302370
  13 12  0     -251.9377368638     0.0000000452   0.000319056   0.000423332        3297942     329713
  14 13  0     -251.9377376508    -0.0000007871   0.000028035   0.000029104        3188463     342788
  15 14  0     -251.9377376544    -0.0000000035   0.000010872   0.000010414        2845087     376655
  16 15  0     -251.9377376548    -0.0000000004   0.000001910   0.000000850        2652500     397345

          -----------------
          DENSITY CONVERGED
          -----------------
     TIME TO FORM FOCK OPERATORS=      12.1 SECONDS (       0.8 SEC/ITER)
     FOCK TIME ON FIRST ITERATION=       0.1, LAST ITERATION=       1.8
     TIME TO SOLVE SCF EQUATIONS=       0.2 SECONDS (       0.0 SEC/ITER)

 FINAL R-B3LYP ENERGY IS     -251.9377376548 AFTER  16 ITERATIONS
 DFT EXCHANGE + CORRELATION ENERGY =       -31.2655402905
 TOTAL ELECTRON NUMBER             =        50.0002476193

          ------------
          EIGENVECTORS
          ------------

                      1          2          3          4          5
                  -14.5816   -10.3704   -10.2916   -10.2546   -10.2287
                     A          A          A          A          A   
    1  C  1  S    0.000006  -0.000176  -0.001216  -0.003140  -0.012552
    2  C  1  S   -0.000011  -0.000273  -0.001175  -0.001427  -0.004134
    3  C  1  X    0.000180   0.000066   0.000430   0.000922  -0.000405
    4  C  1  Y   -0.000024   0.000024  -0.000103  -0.000061  -0.000041
    5  C  1  Z   -0.000024   0.000028  -0.000105  -0.000051  -0.000052
    6  C  1  S   -0.000820   0.001550   0.003376   0.001460   0.024830
    7  C  1  X   -0.000122  -0.000739  -0.003434  -0.000721  -0.011337
    8  C  1  Y    0.000380  -0.000700   0.000383   0.000485  -0.005142
    9  C  1  Z    0.000410  -0.000785   0.000368   0.000492  -0.005739
   10  H  2  S   -0.000018  -0.000093  -0.000482   0.000027  -0.001476
   11  H  2  S   -0.000060   0.000294  -0.000174  -0.001372   0.000412
   12  C  3  S   -0.000035  -0.000839  -0.001934  -0.013419   0.986681
   13  C  3  S   -0.000188  -0.001147  -0.000732  -0.004282   0.115409
   14  C  3  X   -0.000178   0.000462   0.000787  -0.000426  -0.000218
   15  C  3  Y   -0.000063   0.000102   0.000199  -0.000099   0.000156
   16  C  3  Z   -0.000072   0.000115   0.000226  -0.000116   0.000175
   17  C  3  S    0.001955   0.003864  -0.001326   0.024507  -0.103958
   18  C  3  X    0.000007  -0.004512  -0.000527  -0.012844   0.001348
   19  C  3  Y    0.000990  -0.000263  -0.001696   0.004692  -0.005058
   20  C  3  Z    0.001088  -0.000333  -0.001868   0.005002  -0.005563
   21  C  4  S   -0.000118  -0.001428  -0.009486   0.986714   0.012536
   22  C  4  S   -0.000734  -0.001132  -0.004080   0.115465  -0.001369
   23  C  4  X    0.000616   0.001066  -0.000252  -0.000341   0.000137
   24  C  4  Y   -0.000063  -0.000243   0.000142  -0.000198   0.000198
   25  C  4  Z   -0.000060  -0.000254   0.000153  -0.000221   0.000215
   26  C  4  S    0.001777   0.000064   0.026616  -0.103862   0.023845
   27  C  4  X   -0.004306  -0.003264  -0.012632  -0.000085   0.013162
   28  C  4  Y    0.000363   0.001938  -0.006271   0.005109  -0.005583
   29  C  4  Z    0.000344   0.002081  -0.006960   0.005573  -0.005926
   30  C  5  S    0.000176  -0.005217   0.986823   0.008541   0.002061
   31  C  5  S    0.000545  -0.003517   0.115772  -0.001866  -0.000345
   32  C  5  X    0.000545   0.000265  -0.000320   0.000366  -0.000802
   33  C  5  Y    0.000129  -0.000204   0.000270  -0.000135   0.000188
   34  C  5  Z    0.000146  -0.000221   0.000297  -0.000144   0.000196
   35  C  5  S   -0.005800   0.024504  -0.105848   0.023715  -0.001358
   36  C  5  X    0.002435  -0.014293  -0.000384   0.011613   0.001253
   37  C  5  Y   -0.001902   0.005125  -0.005947   0.005902  -0.001805
   38  C  5  Z   -0.002062   0.005446  -0.006530   0.006563  -0.001957
   39  C  6  S   -0.000877   0.986653   0.004409   0.001374   0.000569
   40  C  6  S   -0.003811   0.113619  -0.002453  -0.000766  -0.001000
   41  C  6  X   -0.000962  -0.000419   0.000429  -0.000762  -0.000409
   42  C  6  Y   -0.000416  -0.000202   0.000215  -0.000137  -0.000079
   43  C  6  Z   -0.000457  -0.000224   0.000234  -0.000155  -0.000090
   44  C  6  S    0.021714  -0.095434   0.025047   0.000252   0.003708
   45  C  6  X   -0.007104  -0.004513   0.012069   0.000370   0.003756
   46  C  6  Y   -0.005111   0.003544  -0.005737   0.001291   0.000268
   47  C  6  Z   -0.005612   0.003823  -0.006103   0.001389   0.000331
   48  N  7  S    0.984942  -0.000308   0.000049  -0.000053  -0.000016
   49  N  7  S    0.110298  -0.001526  -0.000081  -0.000529  -0.000128
   50  N  7  X    0.000347   0.000145  -0.000497  -0.000464  -0.000025
   51  N  7  Y    0.000174   0.000080   0.000096   0.000039  -0.000085
   52  N  7  Z    0.000191   0.000092   0.000095   0.000037  -0.000092
   53  N  7  S   -0.066895   0.012584  -0.001168   0.001212   0.000712
   54  N  7  X   -0.004238   0.007150  -0.000352   0.002217   0.000290
   55  N  7  Y   -0.001939   0.003025  -0.000611  -0.000130   0.000565
   56  N  7  Z   -0.002135   0.003320  -0.000644  -0.000112   0.000612
   57  H  8  S   -0.000030  -0.000474   0.000090  -0.001457   0.000747
   58  H  8  S    0.000284  -0.000107  -0.001534   0.000582   0.016308
   59  H  9  S   -0.000030  -0.000476   0.000090  -0.001459   0.000758
   60  H  9  S    0.000278  -0.000107  -0.001530   0.000569   0.016321
   61  H 10  S   -0.000435  -0.000192  -0.001472   0.000717  -0.001415
   62  H 10  S    0.000101  -0.001512   0.000681   0.016430   0.001188
   63  H 11  S   -0.000437  -0.000196  -0.001472   0.000722  -0.001413
   64  H 11  S    0.000101  -0.001498   0.000689   0.016421   0.001203
   65  H 12  S    0.000496  -0.001484   0.000757  -0.001465   0.000028
   66  H 12  S   -0.001218   0.000980   0.016294   0.001097  -0.001516
   67  H 13  S    0.000491  -0.001485   0.000767  -0.001467   0.000030
   68  H 13  S   -0.001194   0.000977   0.016309   0.001097  -0.001522
   69  H 14  S   -0.001526   0.000219  -0.001479   0.000027  -0.000423
   70  H 14  S   -0.001339   0.016915   0.001052  -0.001415  -0.000056
   71  H 15  S   -0.001529   0.000222  -0.001477   0.000028  -0.000420
   72  H 15  S   -0.001339   0.016921   0.001067  -0.001428  -0.000056
   73  H 16  S    0.002604  -0.000976   0.000018  -0.000436  -0.000004
   74  H 16  S    0.007525   0.001958  -0.000869   0.000522   0.000293
   75  H 17  S    0.002562  -0.000602  -0.000049   0.000274  -0.000174
   76  H 17  S    0.007477   0.001259   0.001473   0.000619   0.000194
   77  H 18  S    0.000073  -0.000156   0.000048  -0.000263  -0.001185
   78  H 18  S    0.000396   0.000123   0.001258   0.001691  -0.000101
   79  H 19  S   -0.000017  -0.000094  -0.000480   0.000026  -0.001475
   80  H 19  S   -0.000064   0.000282  -0.000176  -0.001385   0.000435
   81  H 20  S    0.002601  -0.000978   0.000015  -0.000443  -0.000003
   82  H 20  S    0.007538   0.001936  -0.000845   0.000540   0.000294

                      6          7          8          9         10
                  -10.2019    -1.1934    -0.9673    -0.8953    -0.8310
                     A          A          A          A          A   
    1  C  1  S    0.986233  -0.000030  -0.014089   0.079007   0.112477
    2  C  1  S    0.112239   0.000084   0.016240  -0.079123  -0.108899
    3  C  1  X   -0.000257  -0.000317  -0.010996   0.037319   0.021863
    4  C  1  Y    0.000062  -0.000003  -0.002703   0.013290   0.012801
    5  C  1  Z    0.000062  -0.000008  -0.003089   0.014981   0.014269
    6  C  1  S   -0.090551   0.001059   0.021069  -0.180113  -0.298351
    7  C  1  X    0.004676   0.000227   0.006155   0.002786   0.005339
    8  C  1  Y    0.001634  -0.000150   0.001169   0.000145   0.002077
    9  C  1  Z    0.001857  -0.000148   0.001380   0.000218   0.002367
   10  H  2  S   -0.000056   0.000027   0.006678  -0.036461  -0.056742
   11  H  2  S    0.016094  -0.000113   0.000122  -0.000481  -0.002147
   12  C  3  S    0.011839  -0.000085  -0.040456   0.131083   0.083647
   13  C  3  S   -0.000749   0.001282   0.041036  -0.124863  -0.077722
   14  C  3  X   -0.000150  -0.000254  -0.023034   0.017825  -0.059620
   15  C  3  Y   -0.000170   0.000094   0.006656  -0.020788  -0.012237
   16  C  3  Z   -0.000190   0.000101   0.007033  -0.022564  -0.014099
   17  C  3  S    0.018523  -0.007534   0.083010  -0.327762  -0.238901
   18  C  3  X    0.011074   0.003692   0.006023   0.008306  -0.005910
   19  C  3  Y    0.005014  -0.002472   0.001607  -0.005373  -0.006212
   20  C  3  Z    0.005628  -0.002666   0.001846  -0.005873  -0.006903
   21  C  4  S    0.003146  -0.002082  -0.088411   0.115906  -0.045032
   22  C  4  S   -0.000698   0.003051   0.087682  -0.109661   0.039254
   23  C  4  X   -0.001175  -0.004021  -0.034243  -0.043725  -0.075546
   24  C  4  Y   -0.000324  -0.000237  -0.016394   0.016085  -0.011533
   25  C  4  Z   -0.000366  -0.000301  -0.018225   0.017055  -0.013389
   26  C  4  S   -0.000009   0.005308   0.192576  -0.303991   0.142452
   27  C  4  X    0.004018   0.010349   0.001532   0.010123  -0.009667
   28  C  4  Y    0.002228  -0.003009  -0.001293   0.006929  -0.006066
   29  C  4  Z    0.002468  -0.003174  -0.001423   0.007717  -0.006745
   30  C  5  S    0.000958  -0.015340  -0.144055   0.008369  -0.106591
   31  C  5  S   -0.001009   0.014452   0.138999  -0.008778   0.096351
   32  C  5  X   -0.000390  -0.015802  -0.026078  -0.085269   0.039745
   33  C  5  Y    0.000042   0.002299   0.026765   0.002404  -0.010293
   34  C  5  Z    0.000041   0.002370   0.028939   0.001717  -0.010785
   35  C  5  S    0.004514   0.028932   0.352053  -0.020739   0.348969
   36  C  5  X    0.004137  -0.007818  -0.004717   0.003151  -0.012123
   37  C  5  Y    0.000363  -0.000681   0.008050   0.001404  -0.001601
   38  C  5  Z    0.000443  -0.000789   0.008830   0.001527  -0.001749
   39  C  6  S    0.000137  -0.060524  -0.135807  -0.106938   0.087020
   40  C  6  S   -0.000195   0.065665   0.133145   0.099438  -0.079950
   41  C  6  X   -0.000099  -0.044627   0.053737  -0.020620   0.100988
   42  C  6  Y    0.000011  -0.023727  -0.013320   0.002477  -0.039274
   43  C  6  Z    0.000011  -0.026114  -0.013999   0.002458  -0.041796
   44  C  6  S    0.000973   0.096307   0.356545   0.337610  -0.314942
   45  C  6  X    0.000668   0.003732  -0.000620  -0.005031   0.041410
   46  C  6  Y   -0.000400   0.004105  -0.005916  -0.004313  -0.012226
   47  C  6  Z   -0.000434   0.004503  -0.006491  -0.004767  -0.012971
   48  N  7  S   -0.000004  -0.219755   0.044365   0.023555  -0.009744
   49  N  7  S   -0.000060   0.200855  -0.039363  -0.021228   0.008811
   50  N  7  X   -0.000103  -0.010938   0.093206   0.092545  -0.055120
   51  N  7  Y    0.000015  -0.007482   0.034395   0.049446  -0.107890
   52  N  7  Z    0.000014  -0.008168   0.038072   0.054415  -0.117735
   53  N  7  S    0.000007   0.679759  -0.178079  -0.104469   0.053140
   54  N  7  X    0.000334   0.000066   0.059680   0.068980  -0.038664
   55  N  7  Y   -0.000061  -0.001264   0.021576   0.037897  -0.092280
   56  N  7  Z   -0.000059  -0.001325   0.023888   0.041705  -0.100622
   57  H  8  S   -0.001203   0.000398   0.018014  -0.060320  -0.041486
   58  H  8  S    0.001311  -0.000504  -0.000125   0.002626   0.000763
   59  H  9  S   -0.001205   0.000399   0.018024  -0.060315  -0.041466
   60  H  9  S    0.001305  -0.000499  -0.000121   0.002644   0.000784
   61  H 10  S   -0.000282   0.001481   0.039564  -0.055214   0.020268
   62  H 10  S   -0.001432   0.000248  -0.002400   0.001695  -0.003885
   63  H 11  S   -0.000285   0.001483   0.039547  -0.055173   0.020270
   64  H 11  S   -0.001423   0.000235  -0.002441   0.001732  -0.003847
   65  H 12  S   -0.000448   0.004710   0.064883  -0.007174   0.066425
   66  H 12  S   -0.000061   0.001625  -0.005602  -0.004391   0.010856
   67  H 13  S   -0.000447   0.004730   0.064876  -0.007181   0.066396
   68  H 13  S   -0.000066   0.001593  -0.005646  -0.004410   0.010816
   69  H 14  S   -0.000088   0.021719   0.067928   0.062825  -0.072499
   70  H 14  S    0.000250  -0.003057  -0.003268   0.002826  -0.016712
   71  H 15  S   -0.000087   0.021727   0.067901   0.062844  -0.072466
   72  H 15  S    0.000244  -0.003051  -0.003315   0.002821  -0.016747
   73  H 16  S   -0.000082   0.098839  -0.035557  -0.033829   0.056386
   74  H 16  S    0.000098   0.003607  -0.011935  -0.014735   0.032819
   75  H 17  S    0.000071   0.097966  -0.046994  -0.033528  -0.015210
   76  H 17  S    0.000142   0.004350  -0.018879  -0.013936  -0.008521
   77  H 18  S   -0.000173   0.000028   0.005219  -0.033321  -0.057395
   78  H 18  S    0.015367  -0.000790  -0.004393   0.003733  -0.004937
   79  H 19  S   -0.000052   0.000026   0.006662  -0.036422  -0.056730
   80  H 19  S    0.016093  -0.000100   0.000125  -0.000428  -0.002138
   81  H 20  S   -0.000083   0.098868  -0.035464  -0.033881   0.057206
   82  H 20  S    0.000104   0.003571  -0.011910  -0.014710   0.033228

                     11         12         13         14         15
                   -0.7869    -0.7830    -0.7443    -0.7035    -0.6687
                     A          A          A          A          A   
    1  C  1  S    0.077233   0.000286  -0.097537   0.092726   0.033655
    2  C  1  S   -0.073158  -0.000274   0.091077  -0.086772  -0.030798
    3  C  1  X   -0.003556  -0.000016   0.032374  -0.052107  -0.025708
    4  C  1  Y    0.004322   0.000233   0.004747  -0.040687  -0.032218
    5  C  1  Z    0.004689  -0.000189   0.005587  -0.045164  -0.035628
    6  C  1  S   -0.227552  -0.000835   0.314312  -0.317434  -0.126960
    7  C  1  X    0.001012  -0.000012   0.007888  -0.006018   0.000346
    8  C  1  Y    0.002738  -0.000180  -0.002891  -0.017705  -0.015864
    9  C  1  Z    0.003026   0.000182  -0.003088  -0.019439  -0.017365
   10  H  2  S   -0.042121  -0.000309   0.059735  -0.075692  -0.036457
   11  H  2  S   -0.003781  -0.000218   0.010359  -0.027471  -0.017957
   12  C  3  S    0.016542   0.000042   0.028716  -0.113927  -0.063826
   13  C  3  S   -0.015623  -0.000038  -0.025594   0.103924   0.056255
   14  C  3  X   -0.061758  -0.000221   0.081939  -0.035658   0.021549
   15  C  3  Y    0.000369   0.001044  -0.004037  -0.064672  -0.049924
   16  C  3  Z   -0.000344  -0.000961  -0.003370  -0.071155  -0.054499
   17  C  3  S   -0.047484  -0.000136  -0.098621   0.408565   0.251821
   18  C  3  X   -0.009532  -0.000034   0.013811  -0.026024   0.001995
   19  C  3  Y    0.001749   0.001600  -0.006457  -0.027974  -0.020382
   20  C  3  Z    0.001798  -0.001461  -0.006870  -0.030822  -0.022335
   21  C  4  S   -0.075885  -0.000277   0.094357   0.060231   0.054637
   22  C  4  S    0.070012   0.000241  -0.085226  -0.054613  -0.046271
   23  C  4  X   -0.014295   0.000029  -0.052870   0.076118  -0.002812
   24  C  4  Y    0.007638   0.005759  -0.031610  -0.076054  -0.032835
   25  C  4  Z    0.008204  -0.005243  -0.034978  -0.082290  -0.036275
   26  C  4  S    0.238697   0.000948  -0.330475  -0.235606  -0.227987
   27  C  4  X   -0.009347  -0.000059  -0.000762   0.034102  -0.012380
   28  C  4  Y    0.003658   0.000852  -0.010242  -0.039449  -0.009119
   29  C  4  Z    0.003858  -0.000816  -0.011140  -0.042771  -0.010319
   30  C  5  S    0.019319   0.000050  -0.107118  -0.021838   0.002929
   31  C  5  S   -0.019007  -0.000072   0.093814   0.019460  -0.001965
   32  C  5  X    0.073879   0.000512  -0.033998  -0.005355  -0.036757
   33  C  5  Y    0.028174   0.024908  -0.051224  -0.079909   0.044953
   34  C  5  Z    0.031666  -0.022727  -0.056220  -0.087219   0.047799
   35  C  5  S   -0.070734  -0.000118   0.409826   0.099332  -0.019257
   36  C  5  X    0.039799   0.000118  -0.023901  -0.000687   0.013797
   37  C  5  Y    0.017739   0.011973  -0.017399  -0.048295   0.030618
   38  C  5  Z    0.019859  -0.010974  -0.019122  -0.052656   0.032908
   39  C  6  S   -0.001501  -0.000033   0.029761   0.016748  -0.050014
   40  C  6  S    0.001836   0.000043  -0.026285  -0.016378   0.044577
   41  C  6  X   -0.038917   0.000478   0.078481  -0.082819   0.168855
   42  C  6  Y    0.063764   0.085186  -0.024398  -0.061503   0.137832
   43  C  6  Z    0.069795  -0.077840  -0.025856  -0.067772   0.150588
   44  C  6  S    0.013924   0.000117  -0.135457  -0.077261   0.240719
   45  C  6  X   -0.026442   0.000267   0.019469  -0.052686   0.084247
   46  C  6  Y    0.035914   0.058592  -0.010571  -0.038990   0.077601
   47  C  6  Z    0.039428  -0.053491  -0.011355  -0.043029   0.084535
   48  N  7  S   -0.001402  -0.000013   0.005056  -0.008433   0.031876
   49  N  7  S    0.001841   0.000022  -0.003231   0.006422  -0.022907
   50  N  7  X   -0.229138   0.000891  -0.205594   0.079604  -0.225134
   51  N  7  Y    0.173664   0.299214   0.078049   0.081789  -0.152933
   52  N  7  Z    0.189506  -0.273914   0.083602   0.089643  -0.167384
   53  N  7  S    0.003461   0.000025  -0.021645   0.036495  -0.160634
   54  N  7  X   -0.208748   0.000790  -0.185441   0.086263  -0.250142
   55  N  7  Y    0.155521   0.268968   0.067005   0.078431  -0.160996
   56  N  7  Z    0.169660  -0.246226   0.071779   0.086075  -0.176348
   57  H  8  S   -0.010363   0.000690  -0.014359   0.100033   0.064549
   58  H  8  S   -0.001765  -0.000578   0.001295   0.037300   0.027370
   59  H  9  S   -0.010365  -0.000745  -0.014307   0.099957   0.064394
   60  H  9  S   -0.001775   0.000581   0.001337   0.037268   0.027278
   61  H 10  S    0.047830  -0.003398  -0.070997  -0.074646  -0.051149
   62  H 10  S    0.007517  -0.002520  -0.018765  -0.037003  -0.020163
   63  H 11  S    0.047785   0.003731  -0.070978  -0.074482  -0.050834
   64  H 11  S    0.007501   0.002579  -0.018781  -0.036888  -0.019947
   65  H 12  S   -0.022896   0.014575   0.090500   0.052151  -0.022059
   66  H 12  S   -0.013444   0.014821   0.026540   0.033396  -0.011998
   67  H 13  S   -0.022759  -0.014714   0.090400   0.052053  -0.022553
   68  H 13  S   -0.013334  -0.014991   0.026497   0.033369  -0.012302
   69  H 14  S    0.030174  -0.048502  -0.033282  -0.040189   0.104166
   70  H 14  S    0.019643  -0.025345  -0.015249  -0.023369   0.055759
   71  H 15  S    0.029624   0.048871  -0.033231  -0.039905   0.104316
   72  H 15  S    0.019439   0.025484  -0.015192  -0.023190   0.055830
   73  H 16  S   -0.090044  -0.200170  -0.047872  -0.038254   0.064297
   74  H 16  S   -0.053340  -0.118481  -0.025474  -0.025775   0.051237
   75  H 17  S    0.198576   0.002726   0.148099   0.006605   0.022370
   76  H 17  S    0.115375   0.001619   0.095598   0.004535   0.018481
   77  H 18  S   -0.045936  -0.000173   0.067615  -0.063893  -0.020439
   78  H 18  S   -0.007875  -0.000028   0.015962  -0.021211  -0.007755
   79  H 19  S   -0.042137  -0.000009   0.059764  -0.075549  -0.036284
   80  H 19  S   -0.003796   0.000185   0.010386  -0.027387  -0.017828
   81  H 20  S   -0.094398   0.197497  -0.049803  -0.038811   0.064416
   82  H 20  S   -0.055874   0.116849  -0.026653  -0.026109   0.051318

                     16         17         18         19         20
                   -0.6443    -0.5812    -0.5756    -0.5417    -0.5318
                     A          A          A          A          A   
    1  C  1  S   -0.000091   0.000080  -0.018400   0.012830   0.000016
    2  C  1  S    0.000084  -0.000065   0.015183  -0.010293  -0.000009
    3  C  1  X    0.000237  -0.001214   0.057655  -0.177397  -0.001458
    4  C  1  Y    0.013686  -0.076224   0.040197   0.057616  -0.134188
    5  C  1  Z   -0.012287   0.069817   0.045006   0.060735   0.122400
    6  C  1  S    0.000350  -0.000369   0.088087  -0.060303  -0.000111
    7  C  1  X    0.000088  -0.000747   0.028248  -0.122919  -0.001071
    8  C  1  Y    0.007717  -0.048519   0.020971   0.049037  -0.099627
    9  C  1  Z   -0.006922   0.044433   0.023504   0.051992   0.090874
   10  H  2  S   -0.008506   0.050573   0.033735   0.021974   0.094076
   11  H  2  S   -0.006539   0.041994   0.020759   0.019659   0.076725
   12  C  3  S    0.000174  -0.000041   0.033177  -0.016131  -0.000027
   13  C  3  S   -0.000149   0.000029  -0.027985   0.014794   0.000012
   14  C  3  X    0.000282  -0.001587  -0.081612  -0.037901  -0.001308
   15  C  3  Y    0.039942  -0.143272   0.005642   0.135291  -0.142164
   16  C  3  Z   -0.036182   0.131523   0.005813   0.147119   0.129741
   17  C  3  S   -0.000729   0.000175  -0.142057   0.052255   0.000190
   18  C  3  X    0.000218  -0.001149  -0.056842  -0.025934  -0.001054
   19  C  3  Y    0.023624  -0.105723  -0.004397   0.098395  -0.112106
   20  C  3  Z   -0.021458   0.097045  -0.005084   0.107066   0.102314
   21  C  4  S   -0.000207  -0.000009  -0.010209   0.010846   0.000025
   22  C  4  S    0.000176   0.000024   0.008730  -0.009813  -0.000033
   23  C  4  X    0.001037  -0.001229  -0.004109   0.247545  -0.000287
   24  C  4  Y    0.092293  -0.162776  -0.089163   0.067443   0.002182
   25  C  4  Z   -0.084342   0.149445  -0.097113   0.076196  -0.001851
   26  C  4  S    0.000878  -0.000057   0.033689  -0.028071  -0.000047
   27  C  4  X    0.000733  -0.000907   0.007665   0.165606  -0.000313
   28  C  4  Y    0.062773  -0.122203  -0.062973   0.044218  -0.005384
   29  C  4  Z   -0.057426   0.112185  -0.068370   0.050009   0.005100
   30  C  5  S    0.000024   0.000062  -0.003159   0.009970  -0.000027
   31  C  5  S   -0.000003  -0.000063  -0.001062  -0.011313   0.000057
   32  C  5  X    0.001604  -0.000932   0.262108  -0.161718   0.001556
   33  C  5  Y    0.169743  -0.065812  -0.124806  -0.139945   0.186662
   34  C  5  Z   -0.156090   0.060223  -0.133755  -0.154867  -0.170700
   35  C  5  S   -0.000183  -0.000260   0.056347  -0.029172  -0.000045
   36  C  5  X    0.001099  -0.000723   0.159754  -0.137684   0.001518
   37  C  5  Y    0.119148  -0.063470  -0.078537  -0.113541   0.166361
   38  C  5  Z   -0.109524   0.058208  -0.084371  -0.125803  -0.152338
   39  C  6  S    0.000076  -0.000062   0.019456  -0.015614   0.000011
   40  C  6  S   -0.000076   0.000047  -0.020667   0.012539  -0.000005
   41  C  6  X    0.001328   0.001471  -0.226641   0.021567  -0.000600
   42  C  6  Y    0.204508   0.167433   0.174757   0.019384  -0.114689
   43  C  6  Z   -0.188737  -0.154219   0.188082   0.022312   0.105043
   44  C  6  S   -0.000317   0.000326  -0.072480   0.072155  -0.000054
   45  C  6  X    0.001234   0.001217  -0.192202   0.002244  -0.000329
   46  C  6  Y    0.171116   0.146298   0.142556   0.007258  -0.091980
   47  C  6  Z   -0.157855  -0.134870   0.153367   0.008837   0.084177
   48  N  7  S   -0.000050   0.000063   0.001375   0.021609  -0.000077
   49  N  7  S    0.000036  -0.000048  -0.000757  -0.016383   0.000066
   50  N  7  X   -0.000367  -0.000601   0.049141  -0.085611   0.000303
   51  N  7  Y   -0.092882  -0.042322  -0.039217  -0.028617   0.014203
   52  N  7  Z    0.085911   0.038687  -0.042211  -0.031806  -0.012653
   53  N  7  S    0.000260  -0.000346  -0.013247  -0.121360   0.000418
   54  N  7  X   -0.000321  -0.000557   0.048371  -0.096918   0.000138
   55  N  7  Y   -0.087913  -0.035010  -0.035307  -0.040499   0.003040
   56  N  7  Z    0.081411   0.031765  -0.037944  -0.044622  -0.002035
   57  H  8  S    0.025057  -0.095457  -0.027203  -0.061164  -0.098496
   58  H  8  S    0.019523  -0.071266  -0.011083  -0.053235  -0.075088
   59  H  9  S   -0.025482   0.095324  -0.026757  -0.061359   0.098731
   60  H  9  S   -0.019745   0.071152  -0.010733  -0.053512   0.075263
   61  H 10  S   -0.059041   0.110441  -0.038360   0.029132   0.003143
   62  H 10  S   -0.043171   0.082332  -0.027607   0.033849   0.008743
   63  H 11  S    0.059480  -0.110381  -0.038436   0.028995  -0.003079
   64  H 11  S    0.043350  -0.082290  -0.027656   0.033645  -0.008715
   65  H 12  S    0.111242  -0.051855   0.081571   0.073437   0.151923
   66  H 12  S    0.077699  -0.044752   0.076463   0.069190   0.135132
   67  H 13  S   -0.111188   0.051878   0.081151   0.072745  -0.152315
   68  H 13  S   -0.077661   0.044900   0.076193   0.068640  -0.135646
   69  H 14  S   -0.143276  -0.131398   0.096262   0.031916   0.104060
   70  H 14  S   -0.093257  -0.099869   0.085702   0.029673   0.104580
   71  H 15  S    0.143081   0.131628   0.095890   0.030924  -0.104591
   72  H 15  S    0.093195   0.100067   0.085425   0.028742  -0.105035
   73  H 16  S    0.075989   0.043073   0.031644   0.004490  -0.022876
   74  H 16  S    0.058007   0.045402   0.038658   0.017740  -0.039867
   75  H 17  S   -0.000711  -0.000259  -0.065378   0.026670   0.000153
   76  H 17  S   -0.000561  -0.000162  -0.062574   0.031186   0.000043
   77  H 18  S    0.000017  -0.000019   0.022659  -0.130255   0.000553
   78  H 18  S    0.000003   0.000001   0.012375  -0.097555   0.000461
   79  H 19  S    0.008764  -0.050860   0.033442   0.021219  -0.094756
   80  H 19  S    0.006684  -0.042134   0.020540   0.019023  -0.077264
   81  H 20  S   -0.075413  -0.042670   0.032512   0.004591   0.022635
   82  H 20  S   -0.057565  -0.045050   0.039586   0.018072   0.039588

                     21         22         23         24         25
                   -0.5007    -0.4822    -0.4520    -0.4424    -0.4373
                     A          A          A          A          A   
    1  C  1  S    0.005747  -0.000003   0.019711  -0.000709  -0.000126
    2  C  1  S   -0.004664   0.000013  -0.021227   0.002677   0.000166
    3  C  1  X    0.063038  -0.001408   0.258253   0.184774  -0.000646
    4  C  1  Y   -0.150517  -0.161253   0.132577  -0.134172  -0.182926
    5  C  1  Z   -0.164539   0.146884   0.149873  -0.150019   0.161816
    6  C  1  S   -0.032582  -0.000033  -0.053903   0.001347   0.000364
    7  C  1  X    0.046769  -0.001136   0.179127   0.163819  -0.000117
    8  C  1  Y   -0.110175  -0.127227   0.094170  -0.109463  -0.147305
    9  C  1  Z   -0.120443   0.115959   0.106508  -0.122072   0.130163
   10  H  2  S   -0.091328   0.120770   0.070908  -0.094565   0.157318
   11  H  2  S   -0.074369   0.103344   0.087690  -0.100566   0.169138
   12  C  3  S    0.008115   0.000044   0.017510  -0.002865  -0.000162
   13  C  3  S   -0.008258  -0.000037  -0.018196   0.006543   0.000244
   14  C  3  X    0.183794  -0.000417  -0.231537  -0.174161   0.000868
   15  C  3  Y   -0.046483  -0.040379  -0.155860   0.118584   0.200542
   16  C  3  Z   -0.048921   0.036940  -0.175288   0.133316  -0.178313
   17  C  3  S   -0.023527  -0.000244  -0.070421  -0.020333   0.000078
   18  C  3  X    0.133395  -0.000304  -0.184054  -0.098144   0.001311
   19  C  3  Y   -0.034398  -0.039263  -0.131192   0.086283   0.159109
   20  C  3  Z   -0.036325   0.035851  -0.147310   0.097585  -0.141647
   21  C  4  S    0.001253  -0.000007  -0.006408  -0.034610  -0.000468
   22  C  4  S   -0.007981  -0.000038   0.001070   0.029004   0.000414
   23  C  4  X   -0.034356   0.002446   0.120262   0.216705   0.001584
   24  C  4  Y    0.179630   0.202993   0.062214  -0.096250  -0.087551
   25  C  4  Z    0.196663  -0.185256   0.070549  -0.104660   0.076551
   26  C  4  S    0.044153   0.000320   0.056394   0.180430   0.002287
   27  C  4  X   -0.055155   0.002058   0.082304   0.183715   0.001811
   28  C  4  Y    0.129492   0.175306   0.039678  -0.098016  -0.056442
   29  C  4  Z    0.141546  -0.160200   0.045174  -0.106090   0.048182
   30  C  5  S    0.009281   0.000097   0.032778   0.009827  -0.000091
   31  C  5  S   -0.011440  -0.000109  -0.025925  -0.004772   0.000115
   32  C  5  X   -0.032614  -0.001612  -0.152646  -0.071669   0.000041
   33  C  5  Y   -0.127683  -0.123322  -0.058856  -0.000835   0.006438
   34  C  5  Z   -0.139942   0.112141  -0.065968  -0.001712  -0.005173
   35  C  5  S   -0.033947  -0.000359  -0.185056  -0.068542   0.000364
   36  C  5  X   -0.066399  -0.001447  -0.117641  -0.061766  -0.000229
   37  C  5  Y   -0.106613  -0.093734  -0.071197  -0.011631  -0.010252
   38  C  5  Z   -0.117149   0.085061  -0.078850  -0.013788   0.010162
   39  C  6  S    0.018282  -0.000024  -0.016552  -0.023019  -0.000226
   40  C  6  S   -0.017206   0.000014   0.012071   0.019738   0.000213
   41  C  6  X   -0.084210   0.000071   0.044338   0.056184   0.000584
   42  C  6  Y    0.050228   0.024089  -0.025823  -0.028074   0.007844
   43  C  6  Z    0.053813  -0.021939  -0.027615  -0.029539  -0.007698
   44  C  6  S   -0.096627   0.000129   0.100225   0.124788   0.001085
   45  C  6  X   -0.065201  -0.000097   0.054163   0.041913   0.000275
   46  C  6  Y    0.051408   0.004201  -0.036338  -0.038633   0.010728
   47  C  6  Z    0.055170  -0.003448  -0.039040  -0.041095  -0.010591
   48  N  7  S    0.006068   0.000085   0.012635   0.009313   0.000056
   49  N  7  S   -0.005931  -0.000082  -0.009754  -0.006090  -0.000023
   50  N  7  X   -0.006755  -0.000211  -0.045002  -0.035934  -0.000263
   51  N  7  Y   -0.006499   0.004248  -0.009595  -0.010683  -0.002661
   52  N  7  Z   -0.006979  -0.004187  -0.010680  -0.011956   0.002254
   53  N  7  S   -0.030496  -0.000440  -0.075098  -0.060178  -0.000420
   54  N  7  X    0.002655  -0.000042  -0.054031  -0.052702  -0.000474
   55  N  7  Y   -0.004594   0.011178  -0.018069  -0.020553  -0.002111
   56  N  7  Z   -0.004729  -0.010844  -0.019864  -0.022748   0.001569
   57  H  8  S    0.025749  -0.035651   0.086572  -0.087077   0.176306
   58  H  8  S    0.032604  -0.037182   0.098778  -0.101805   0.194739
   59  H  9  S    0.025520   0.035615   0.084622  -0.081888  -0.179683
   60  H  9  S    0.032488   0.037208   0.096774  -0.096097  -0.198886
   61  H 10  S    0.110748  -0.169390   0.052000  -0.044345   0.086898
   62  H 10  S    0.107753  -0.161653   0.065892  -0.072490   0.119668
   63  H 11  S    0.109733   0.170021   0.050529  -0.042148  -0.088897
   64  H 11  S    0.106915   0.162364   0.064076  -0.069322  -0.122645
   65  H 12  S    0.078839  -0.116146   0.011526  -0.016360   0.014856
   66  H 12  S    0.093338  -0.136107   0.034311  -0.030612   0.042437
   67  H 13  S    0.078302   0.116690   0.011132  -0.016173  -0.015465
   68  H 13  S    0.092784   0.136868   0.033609  -0.029731  -0.043790
   69  H 14  S    0.026125  -0.032517   0.001692   0.000678  -0.004441
   70  H 14  S    0.046000  -0.060274   0.005144  -0.013069   0.004250
   71  H 15  S    0.025972   0.032793   0.001565   0.000352   0.004464
   72  H 15  S    0.045653   0.060489   0.004763  -0.013219  -0.004630
   73  H 16  S    0.004787   0.002203  -0.003399  -0.001887   0.002247
   74  H 16  S    0.019595   0.016864   0.003056  -0.003083   0.001590
   75  H 17  S   -0.004952   0.000100   0.022201   0.016006   0.000061
   76  H 17  S   -0.002454   0.000202   0.032537   0.022043   0.000072
   77  H 18  S    0.113060   0.001025   0.060986   0.204909   0.003485
   78  H 18  S    0.101227   0.000954   0.071381   0.195697   0.003239
   79  H 19  S   -0.089751  -0.121799   0.069245  -0.088172  -0.161523
   80  H 19  S   -0.073055  -0.104298   0.085911  -0.093845  -0.173677
   81  H 20  S    0.004888  -0.002235  -0.003579  -0.001913  -0.002217
   82  H 20  S    0.019940  -0.016759   0.002974  -0.003152  -0.001694

                     26         27         28         29         30
                   -0.1503    -0.0824    -0.0822    -0.0726    -0.0290
                     A          A          A          A          A   
    1  C  1  S    0.003771   0.002415   0.003115  -0.001063   0.001227
    2  C  1  S   -0.002926  -0.001274  -0.001637   0.001857   0.001902
    3  C  1  X    0.009382   0.005814   0.007604  -0.006919  -0.022810
    4  C  1  Y    0.000942   0.004265   0.000895   0.000086  -0.022982
    5  C  1  Z    0.001140   0.000094   0.004733  -0.000054  -0.025151
    6  C  1  S   -0.024185  -0.020460  -0.026406   0.009943  -0.059301
    7  C  1  X    0.007442   0.013496   0.017693  -0.011945  -0.043972
    8  C  1  Y    0.001638   0.009617   0.000096   0.001679  -0.073703
    9  C  1  Z    0.001804  -0.001693   0.010176   0.001520  -0.080093
   10  H  2  S   -0.003237  -0.002730  -0.003288   0.005828   0.001967
   11  H  2  S    0.000526   0.003191  -0.012478   0.014703   0.079814
   12  C  3  S   -0.002405  -0.004712  -0.006235   0.013912   0.022982
   13  C  3  S   -0.000058   0.001534   0.002096  -0.003330  -0.010949
   14  C  3  X   -0.016098  -0.022477  -0.029106   0.057750   0.006232
   15  C  3  Y    0.006377   0.018765   0.015067  -0.033847   0.008062
   16  C  3  Z    0.006719   0.011351   0.022806  -0.036251   0.009637
   17  C  3  S    0.038448   0.041934   0.055347  -0.149972  -0.281852
   18  C  3  X   -0.043662  -0.051277  -0.065531   0.158815   0.001311
   19  C  3  Y    0.016920   0.044591   0.048107  -0.102953   0.065512
   20  C  3  Z    0.017842   0.038909   0.058243  -0.110701   0.073221
   21  C  4  S    0.020872   0.015799   0.019813  -0.044145   0.033093
   22  C  4  S   -0.012200  -0.007894  -0.009998   0.034582  -0.005620
   23  C  4  X    0.058371   0.023071   0.028869  -0.044967  -0.022137
   24  C  4  Y    0.024642   0.017956  -0.001925   0.008002  -0.075236
   25  C  4  Z    0.027563  -0.004817   0.017156   0.007856  -0.081589
   26  C  4  S   -0.180696  -0.164786  -0.205200   0.379779  -0.571800
   27  C  4  X    0.052775   0.007797   0.008046   0.148147  -0.002708
   28  C  4  Y    0.068991   0.058687  -0.012449   0.037607  -0.272007
   29  C  4  Z    0.076127  -0.021801   0.053443   0.041756  -0.295058
   30  C  5  S   -0.018173   0.013918   0.017732  -0.033479   0.043117
   31  C  5  S    0.013592  -0.001695  -0.002190   0.021408  -0.017704
   32  C  5  X   -0.003710  -0.016721  -0.023757  -0.010531   0.005514
   33  C  5  Y   -0.031662   0.086931   0.002109  -0.028117   0.016112
   34  C  5  Z   -0.034455  -0.013037   0.085694  -0.030645   0.020101
   35  C  5  S    0.156664  -0.225223  -0.286549   0.455175  -0.617924
   36  C  5  X    0.129495   0.004652  -0.002134   0.082106   0.108395
   37  C  5  Y   -0.091260   0.226292   0.058237  -0.020440   0.211060
   38  C  5  Z   -0.098311   0.019557   0.240197  -0.020270   0.237581
   39  C  6  S   -0.011520   0.023086   0.029076  -0.112464   0.063595
   40  C  6  S   -0.002800  -0.017817  -0.022389   0.073414  -0.039361
   41  C  6  X    0.098872   0.074754   0.094188  -0.299044  -0.060913
   42  C  6  Y    0.076260   0.090351   0.023510  -0.098636  -0.193208
   43  C  6  Z    0.083487   0.006210   0.095713  -0.110949  -0.206878
   44  C  6  S    0.294179  -0.198787  -0.248708   1.099956  -0.977020
   45  C  6  X    0.227984   0.168068   0.209231  -0.728868  -0.087236
   46  C  6  Y    0.151893   0.189544  -0.018997  -0.182591  -0.679942
   47  C  6  Z    0.166439  -0.058600   0.178861  -0.209843  -0.728705
   48  N  7  S   -0.157118  -0.011070  -0.013853   0.049732  -0.016388
   49  N  7  S    0.100542   0.010166   0.012783  -0.033220   0.011527
   50  N  7  X   -0.065146  -0.052142  -0.073350  -0.321866  -0.144161
   51  N  7  Y   -0.030715   0.343041   0.028037  -0.036765  -0.048225
   52  N  7  Z   -0.033409  -0.035204   0.341416  -0.045169  -0.052631
   53  N  7  S    1.451427   0.070483   0.087237  -0.407649   0.179519
   54  N  7  X   -0.153690  -0.128892  -0.179748  -0.803976  -0.361684
   55  N  7  Y   -0.077461   0.796207   0.073798  -0.104330  -0.070647
   56  N  7  Z   -0.084176  -0.072802   0.795393  -0.125548  -0.078903
   57  H  8  S   -0.000122  -0.000696   0.001430   0.004527  -0.006299
   58  H  8  S    0.012952   0.010539   0.039936  -0.035008   0.120377
   59  H  9  S   -0.000134   0.001456  -0.000243   0.004608  -0.006326
   60  H  9  S    0.013110   0.036968   0.020251  -0.034716   0.117494
   61  H 10  S    0.000274   0.000286  -0.016415   0.022084   0.016847
   62  H 10  S    0.019756   0.104083  -0.034768  -0.152632   0.447668
   63  H 11  S    0.000243  -0.015739  -0.003773   0.022268   0.017336
   64  H 11  S    0.020049  -0.056272   0.089990  -0.153493   0.451412
   65  H 12  S    0.027414   0.014596   0.019678  -0.020269  -0.004604
   66  H 12  S   -0.091058   0.024774   0.404829  -0.269321   0.302659
   67  H 13  S    0.027665   0.016226   0.019317  -0.020268  -0.005751
   68  H 13  S   -0.090451   0.386997   0.125065  -0.270044   0.290087
   69  H 14  S    0.001186   0.024935  -0.043380  -0.003349   0.061326
   70  H 14  S   -0.188217   0.260743  -0.179728  -0.375426   1.011392
   71  H 15  S    0.001120  -0.048012   0.012123  -0.004027   0.062752
   72  H 15  S   -0.188370  -0.235571   0.194017  -0.383396   1.026303
   73  H 16  S   -0.081018   0.169625  -0.016431   0.018111  -0.037997
   74  H 16  S   -0.651338   1.218596  -0.121183   0.117808  -0.216158
   75  H 17  S   -0.085733  -0.085053  -0.109923  -0.113442  -0.043048
   76  H 17  S   -0.682662  -0.626492  -0.809333  -0.714173  -0.348147
   77  H 18  S    0.007813   0.006730   0.008620  -0.013331  -0.002777
   78  H 18  S    0.022385   0.018620   0.023870  -0.034167  -0.009735
   79  H 19  S   -0.003206  -0.002517  -0.003397   0.005708   0.002091
   80  H 19  S    0.000521  -0.012387   0.000013   0.014281   0.081036
   81  H 20  S   -0.080795  -0.058574   0.160444   0.017597  -0.037718
   82  H 20  S   -0.649707  -0.422899   1.152930   0.113254  -0.211602

                     31         32         33         34         35
                   -0.0111    -0.0010     0.0287     0.0363     0.0463
                     A          A          A          A          A   
    1  C  1  S   -0.000089   0.020095   0.084108   0.001266  -0.087541
    2  C  1  S    0.000136  -0.014937  -0.043118  -0.000611   0.041894
    3  C  1  X    0.000469  -0.056841  -0.028189   0.001081  -0.007877
    4  C  1  Y    0.017932  -0.034083  -0.041408   0.062757  -0.050641
    5  C  1  Z   -0.016428  -0.038500  -0.045228  -0.057092  -0.057600
    6  C  1  S    0.000345  -0.244985  -1.051473  -0.015241   1.079191
    7  C  1  X    0.002126  -0.225621  -0.216100   0.001912  -0.015379
    8  C  1  Y    0.043421  -0.145265  -0.136843   0.170673  -0.140111
    9  C  1  Z   -0.039339  -0.162590  -0.151437  -0.154898  -0.160504
   10  H  2  S    0.006103  -0.006338   0.003765   0.014820   0.003335
   11  H  2  S    0.082937   0.198327   0.532768   0.291202  -0.227869
   12  C  3  S   -0.000584   0.084594   0.033649  -0.000090  -0.023276
   13  C  3  S    0.000246  -0.036247  -0.017170   0.000206  -0.002083
   14  C  3  X    0.000334   0.014473   0.029327   0.001573  -0.022125
   15  C  3  Y    0.048662   0.058766  -0.004275   0.092896  -0.086394
   16  C  3  Z   -0.045388   0.062710  -0.003177  -0.084711  -0.096301
   17  C  3  S    0.007280  -1.078730  -0.444228  -0.000879   0.496038
   18  C  3  X    0.002147  -0.070880   0.195332   0.008340  -0.380764
   19  C  3  Y    0.133229   0.181767   0.007885   0.237629  -0.289016
   20  C  3  Z   -0.123110   0.193064   0.013671  -0.217141  -0.323462
   21  C  4  S   -0.000208   0.049002   0.074375  -0.000020   0.037145
   22  C  4  S    0.000049  -0.021338  -0.031612   0.000011  -0.011814
   23  C  4  X   -0.000138   0.036156   0.111933   0.002298  -0.033366
   24  C  4  Y    0.076969  -0.022047  -0.060084   0.097761  -0.073477
   25  C  4  Z   -0.072367  -0.025413  -0.063128  -0.088447  -0.083449
   26  C  4  S    0.002400  -0.674355  -0.935856   0.001224  -0.542136
   27  C  4  X   -0.002851   0.277536   0.504447   0.010120  -0.326605
   28  C  4  Y    0.170116  -0.128694  -0.154178   0.254853  -0.089288
   29  C  4  Z   -0.161304  -0.140890  -0.159701  -0.231996  -0.110179
   30  C  5  S   -0.000585   0.084455  -0.117783  -0.001631   0.071889
   31  C  5  S    0.000196  -0.034897   0.053899   0.000649  -0.023633
   32  C  5  X   -0.000602   0.124419   0.064692   0.000800   0.126755
   33  C  5  Y    0.102389   0.073435  -0.073326   0.168928  -0.136920
   34  C  5  Z   -0.095075   0.077600  -0.076509  -0.153266  -0.149299
   35  C  5  S    0.007342  -1.103364   1.547734   0.021371  -0.914965
   36  C  5  X   -0.005046   0.555154   0.294631   0.001320   0.656858
   37  C  5  Y    0.272443   0.277763  -0.187119   0.641058  -0.562872
   38  C  5  Z   -0.254617   0.296903  -0.191404  -0.579219  -0.612039
   39  C  6  S    0.001703  -0.117951   0.017051   0.001187  -0.088010
   40  C  6  S   -0.000938   0.067905  -0.002643  -0.000541   0.042656
   41  C  6  X    0.001259  -0.012225   0.076954  -0.002220   0.121940
   42  C  6  Y    0.215528   0.002486   0.014830  -0.169507  -0.068443
   43  C  6  Z   -0.201196  -0.000408   0.015481   0.157280  -0.070574
   44  C  6  S   -0.021972   1.414602  -0.197155  -0.015917   1.187446
   45  C  6  X    0.002946   0.116892   0.108868  -0.013959   0.840840
   46  C  6  Y    0.695639  -0.052002   0.085946  -0.715342  -0.273760
   47  C  6  Z   -0.647084  -0.063755   0.087907   0.663584  -0.279034
   48  N  7  S   -0.000313   0.024482   0.007606  -0.000130   0.016178
   49  N  7  S    0.000100  -0.011497  -0.004126   0.000144  -0.017637
   50  N  7  X   -0.001402   0.003604   0.061169  -0.000388  -0.024634
   51  N  7  Y   -0.103373  -0.051295   0.055449   0.005182   0.034768
   52  N  7  Z    0.095331  -0.053131   0.060708  -0.003391   0.037946
   53  N  7  S    0.003507  -0.253952  -0.099335   0.000695  -0.116545
   54  N  7  X   -0.002772  -0.062557   0.093596  -0.000399  -0.068498
   55  N  7  Y   -0.286095  -0.136953   0.132637   0.046574   0.092512
   56  N  7  Z    0.264656  -0.142723   0.144974  -0.040763   0.099717
   57  H  8  S   -0.010569   0.000331   0.004345  -0.030808  -0.050880
   58  H  8  S   -0.228390   0.557041   0.153403  -0.421591  -0.524988
   59  H  9  S    0.010445   0.000614   0.004201   0.031535  -0.050066
   60  H  9  S    0.220753   0.563817   0.148828   0.423023  -0.517237
   61  H 10  S    0.017199   0.015623   0.018483   0.074931   0.048944
   62  H 10  S    0.328784   0.352048   0.565519   0.535911   0.454878
   63  H 11  S   -0.017298   0.014844   0.019417  -0.075545   0.047548
   64  H 11  S   -0.325458   0.343581   0.572287  -0.540113   0.439271
   65  H 12  S   -0.081727   0.023188  -0.039028  -0.027560  -0.033504
   66  H 12  S   -0.584789   0.658824  -0.845203  -0.807175  -0.249292
   67  H 13  S    0.080552   0.024948  -0.039434   0.027801  -0.033248
   68  H 13  S    0.573366   0.676782  -0.857006   0.799863  -0.241631
   69  H 14  S    0.077774  -0.031048  -0.000334  -0.058773   0.003175
   70  H 14  S    1.052524  -0.598165   0.047102  -0.896022  -0.145217
   71  H 15  S   -0.076472  -0.032022  -0.000681   0.058971   0.004573
   72  H 15  S   -1.027622  -0.611630   0.040084   0.903501  -0.130414
   73  H 16  S   -0.053795  -0.013322   0.052453  -0.036429   0.000038
   74  H 16  S   -0.383977  -0.067642   0.205605  -0.035602   0.141185
   75  H 17  S   -0.000069   0.039508  -0.027674  -0.000790   0.036610
   76  H 17  S    0.000600   0.234942  -0.001570  -0.004325  -0.024244
   77  H 18  S   -0.000178   0.017082   0.024405   0.000413  -0.026582
   78  H 18  S   -0.001597   0.206524   0.449938   0.007374  -0.576967
   79  H 19  S   -0.005843  -0.006369   0.003876  -0.014807   0.002729
   80  H 19  S   -0.083575   0.196060   0.534098  -0.282052  -0.239772
   81  H 20  S    0.052848  -0.012108   0.052546   0.037020   0.000184
   82  H 20  S    0.378256  -0.059943   0.207065   0.038801   0.144852

                     36         37         38         39         40
                    0.0706     0.0723     0.0970     0.1003     0.1039
                     A          A          A          A          A   
    1  C  1  S    0.002585  -0.041665   0.062685  -0.004451   0.087156
    2  C  1  S    0.000181   0.002370  -0.024397   0.001809  -0.044147
    3  C  1  X    0.005808  -0.082483   0.029466  -0.002382  -0.020498
    4  C  1  Y   -0.093796   0.073962  -0.113525  -0.088324   0.003349
    5  C  1  Z    0.073212   0.093551  -0.115805   0.090078   0.004299
    6  C  1  S   -0.044855   0.675567  -0.900657   0.061130  -1.043037
    7  C  1  X    0.032858  -0.431853   0.243306  -0.013146  -0.162708
    8  C  1  Y   -0.253767   0.248141  -0.432656  -0.245583   0.165919
    9  C  1  Z    0.190241   0.302675  -0.448879   0.254483   0.175275
   10  H  2  S   -0.017861  -0.038842   0.062466  -0.079643   0.000084
   11  H  2  S   -0.338826  -0.582746   0.802614  -0.567509   0.322584
   12  C  3  S   -0.004900   0.065167   0.048509  -0.000066  -0.104334
   13  C  3  S    0.002152  -0.029546  -0.025816   0.000127   0.050127
   14  C  3  X   -0.002154   0.013607   0.112613  -0.008986   0.085102
   15  C  3  Y   -0.088346   0.021788  -0.019133  -0.179076  -0.114710
   16  C  3  Z    0.076292   0.035295  -0.003055   0.168536  -0.114630
   17  C  3  S    0.057289  -0.756967  -0.557907  -0.002617   1.386703
   18  C  3  X    0.005899  -0.123449   0.412208  -0.035704   0.328910
   19  C  3  Y   -0.223074  -0.145161  -0.021448  -0.716380  -0.538695
   20  C  3  Z    0.226974  -0.132518   0.047688   0.670426  -0.546060
   21  C  4  S    0.001495  -0.016629  -0.136924   0.005773   0.025179
   22  C  4  S   -0.001239   0.014492   0.061710  -0.002565  -0.003100
   23  C  4  X   -0.009552   0.097007   0.018277   0.000240   0.101079
   24  C  4  Y   -0.176228   0.109312   0.005670   0.186389   0.055729
   25  C  4  Z    0.140778   0.148264  -0.009711  -0.169861   0.057361
   26  C  4  S   -0.022347   0.250527   1.780697  -0.076456  -0.309366
   27  C  4  X   -0.049577   0.514127  -0.070549   0.004429   0.643749
   28  C  4  Y   -0.687331   0.529293   0.023779   0.821139   0.293669
   29  C  4  Z    0.532462   0.692422  -0.044823  -0.750482   0.305458
   30  C  5  S    0.001471  -0.019318   0.079018  -0.004127   0.013586
   31  C  5  S   -0.001347   0.017705  -0.024503   0.001479  -0.011857
   32  C  5  X   -0.014234   0.199711   0.056430  -0.004198   0.159871
   33  C  5  Y    0.188617  -0.016559  -0.084518  -0.008355   0.086378
   34  C  5  Z   -0.169985  -0.046199  -0.090877   0.012606   0.095152
   35  C  5  S   -0.019442   0.259163  -1.085708   0.056597  -0.170084
   36  C  5  X   -0.082459   1.127841   0.087570  -0.008179   0.640688
   37  C  5  Y    0.831950  -0.037222  -0.429359  -0.114352   0.444540
   38  C  5  Z   -0.754914  -0.163230  -0.458506   0.130564   0.490220
   39  C  6  S    0.000848  -0.011889  -0.016237   0.001106  -0.021407
   40  C  6  S    0.000518  -0.005513   0.002239  -0.000381   0.012327
   41  C  6  X   -0.011550   0.140440   0.168599  -0.006882   0.003460
   42  C  6  Y   -0.030692  -0.101434  -0.031142   0.000458  -0.022095
   43  C  6  Z    0.042893  -0.103409  -0.032075   0.002413  -0.025308
   44  C  6  S   -0.016005   0.214995   0.259907  -0.014907   0.211308
   45  C  6  X   -0.040737   0.505279   0.652983  -0.028273  -0.005995
   46  C  6  Y   -0.204826  -0.504932  -0.219241  -0.045617  -0.226962
   47  C  6  Z    0.264849  -0.507980  -0.226942   0.064022  -0.248814
   48  N  7  S   -0.000448   0.006860  -0.010888   0.000450   0.003952
   49  N  7  S   -0.000538   0.004449   0.005888  -0.000324   0.008344
   50  N  7  X   -0.002893   0.025602  -0.013637   0.000381   0.021779
   51  N  7  Y   -0.014294   0.016080   0.036133  -0.009668  -0.030962
   52  N  7  Z    0.011203   0.021372   0.040081   0.007063  -0.031897
   53  N  7  S    0.009353  -0.123572   0.129483  -0.005049  -0.101034
   54  N  7  X    0.004877  -0.078812   0.023376  -0.000631  -0.065640
   55  N  7  Y   -0.038466   0.065450   0.084889  -0.011374  -0.053651
   56  N  7  Z    0.025883   0.078726   0.093355   0.005495  -0.055772
   57  H  8  S    0.080335   0.023075  -0.019588   0.045822  -0.044749
   58  H  8  S    0.495207   0.356455   0.205168   0.927074  -1.010195
   59  H  9  S   -0.082766   0.010614  -0.023823  -0.042201  -0.047317
   60  H  9  S   -0.542961   0.285903   0.121334  -0.903561  -1.058986
   61  H 10  S   -0.020997  -0.030007  -0.020711   0.056533  -0.011466
   62  H 10  S   -0.739501  -0.690484  -0.639395   1.017790  -0.106178
   63  H 11  S    0.026261  -0.026131  -0.024886  -0.054471  -0.011958
   64  H 11  S    0.845828  -0.555411  -0.722447  -0.962386  -0.128677
   65  H 12  S   -0.057038  -0.016882  -0.017950  -0.042410   0.058921
   66  H 12  S   -0.981346  -0.325853   0.010738   0.017790   0.489152
   67  H 13  S    0.058206  -0.007597  -0.014036   0.042034   0.061406
[...]
   1474   -5.30788    3.09225   -5.56662        -6.503367       6.636886       0.133519
   1475   -5.87346    1.61156   -6.48173        -6.270045       6.407688       0.137643
   1476   -6.01108   -0.21867   -6.84204        -6.194266       6.333758       0.139492
   1477   -5.87346   -2.04890   -6.48173        -6.289616       6.429550       0.139934
   1478   -5.30788   -3.52958   -5.56662        -6.523686       6.660883       0.137197
   1479   -4.41604   -5.08328    3.53063        -6.818496       6.946658       0.128162
   1480   -2.93535   -4.52914    3.54913        -7.215939       7.336715       0.120776
   1481   -2.03167   -6.55690   -0.32736        -6.527137       6.639303       0.112167
   1482   -2.58581   -6.57540    1.15332        -6.470976       6.585083       0.114107
   1483   -3.50093   -6.00983    2.63401        -6.564165       6.683670       0.119505
   1484   -4.41604   -5.08328   -4.18535        -6.593010       6.722207       0.129198
   1485   -3.50093   -6.00983   -3.28874        -6.395835       6.515414       0.119580
   1486   -2.58581   -6.57540   -1.80805        -6.382124       6.495928       0.113804
   1487   -6.80041   -6.55690   -0.32736        -6.361029       6.513258       0.152229
   1488   -5.33115   -6.00983   -3.28874        -6.351231       6.485813       0.134582
   1489   -6.24627   -6.57540   -1.80805        -6.277527       6.421143       0.143617
   1490   -5.33115   -7.14097   -0.32736        -6.115860       6.246247       0.130388
   1491   -4.41604   -6.93570   -1.94567        -6.140073       6.263555       0.123482
   1492   -3.50093   -7.14097   -0.32736        -6.174074       6.291285       0.117210
   1493   -6.24627   -6.57540    1.15332        -6.324801       6.466863       0.142061
   1494   -5.89673   -4.52914    3.54913        -7.027088       7.172345       0.145257
   1495   -5.33115   -6.00983    2.63401        -6.477491       6.610317       0.132826
   1496   -4.41604   -6.93570    1.29095        -6.208517       6.331590       0.123073
   1497   -7.08534   -2.40189    6.43365        -5.972807       6.102223       0.129416
   1498   -5.60466   -1.84775    6.45214        -6.315377       6.441320       0.125944
   1499   -7.08534   -0.93264    7.01772        -5.841131       5.966350       0.125219
   1500   -5.46703   -0.01752    6.81245        -6.272836       6.395781       0.122945
   1501   -7.08534    0.89759    7.01772        -5.843469       5.966975       0.123506
   1502   -5.60466    1.81271    6.45214        -6.336354       6.459224       0.122871
   1503   -7.08534    2.36685    6.43365        -5.976966       6.101594       0.124628
   1504   -5.25511   -3.89401    4.05634        -7.220674       7.361138       0.140465
   1505   -6.17023   -3.32844    5.53703        -6.408714       6.541613       0.132899
   1506   -6.17023    3.29339    5.53703        -6.429194       6.555661       0.126467
   1507   -8.00046    3.29339    5.53703        -6.023888       6.154201       0.130314
   1508   -8.56603    1.81271    6.45214        -5.724563       5.853058       0.128495
   1509   -9.70382    2.60096    5.19414        -5.876810       6.016192       0.139381
   1510  -10.04672    0.89759    5.88657        -5.685620       5.824150       0.138531
   1511  -10.96183    1.46316    4.40589        -6.007802       6.165698       0.157895
   1512  -10.94334   -0.01752    4.96003        -5.868858       6.023160       0.154303
   1513  -10.04672   -0.93264    5.88657        -5.700956       5.842417       0.141461
   1514   -9.70382   -2.63600    5.19414        -5.926221       6.075131       0.148910
   1515   -8.91557   -3.89401    4.05634        -6.371972       6.532360       0.160389
   1516   -8.56603   -1.84775    6.45214        -5.735091       5.868047       0.132956
   1517   -8.00046   -3.32844    5.53703        -6.041687       6.180731       0.139044
   1518   -7.08534   -4.25432    4.19397        -6.616245       6.764134       0.147889
   1519   -8.70365   -0.01752    6.81245        -5.633984       5.763134       0.129150
   1520   -7.06653    4.85565    4.13830        -6.277636       6.407040       0.129404
   1521   -5.23630    6.34777    1.76100        -6.400049       6.522783       0.122734
   1522   -6.15141    5.78219    3.24168        -6.263884       6.388114       0.124231
   1523   -7.06653    4.85565   -3.57768        -6.453281       6.596884       0.143603
   1524   -5.58584    4.30151   -3.59618        -7.047236       7.188976       0.141740
   1525   -5.23630    6.34777   -1.20038        -6.435639       6.561669       0.126030
   1526   -6.15141    5.78219   -2.68106        -6.361400       6.493696       0.132296
   1527   -6.15141    6.91334    0.28031        -6.024161       6.147425       0.123264
   1528   -7.98164    6.91334    0.28031        -5.685863       5.812717       0.126854
   1529   -9.45090    6.32927    0.28031        -5.628746       5.763265       0.134519
   1530   -7.06653    6.70807    1.89862        -5.856892       5.980466       0.123574
   1531   -8.89675    6.34777    1.76100        -5.656344       5.786201       0.129857
   1532   -7.98164    5.78219    3.24168        -5.884267       6.012129       0.127862
   1533   -8.89675    6.34777   -1.20038        -5.717397       5.852536       0.135139
   1534   -7.06653    6.70807   -1.33800        -5.906523       6.034424       0.127901
   1535   -7.98164    5.78219   -2.68106        -6.006897       6.145266       0.138369
   1536  -10.37744    5.43265   -0.63481        -5.787131       5.935109       0.147978
   1537   -9.68501    5.08976   -2.33817        -5.991279       6.143297       0.152018
   1538   -8.54721    4.30151   -3.59618        -6.399106       6.557233       0.158128
   1539   -9.68501    5.08976    2.89879        -5.831000       5.969349       0.138349
   1540  -10.37744    5.43265    1.19542        -5.729992       5.873256       0.143264
   1541   -9.25193   -5.08815    3.35193        -5.988819       6.145034       0.156216
   1542   -7.77124   -4.53401    3.37043        -6.726351       6.887706       0.161355
   1543   -6.86756   -6.56177   -0.50606        -6.342538       6.495310       0.152773
   1544   -7.42170   -6.58027    0.97462        -6.157554       6.309105       0.151551
   1545   -8.33682   -6.01469    2.45531        -6.018914       6.171461       0.152547
   1546   -8.33682   -6.01469   -3.46744        -5.864930       6.019375       0.154445
   1547   -7.42170   -6.58027   -1.98675        -6.069786       6.221628       0.151842
   1548  -11.63630   -6.56177   -0.50606        -5.081532       5.230497       0.148965
   1549  -12.56285   -5.66515    0.40905        -5.091810       5.244573       0.152762
   1550  -12.56285   -5.66515   -1.42118        -5.072219       5.225514       0.153295
   1551  -10.16704   -6.01469   -3.46744        -5.409884       5.563526       0.153642
   1552  -11.08216   -6.58027   -1.98675        -5.154548       5.304156       0.149607
   1553  -11.87041   -5.32226   -3.12454        -5.225830       5.382312       0.156482
   1554  -10.16704   -7.14584   -0.50606        -5.251860       5.399092       0.147232
   1555   -9.25193   -6.94057   -2.12437        -5.458736       5.607745       0.149009
   1556   -8.33682   -7.14584   -0.50606        -5.686014       5.834467       0.148453
   1557  -11.87041   -5.32226    2.11242        -5.292076       5.446256       0.154180
   1558  -11.08216   -6.58027    0.97462        -5.194821       5.343505       0.148683
   1559  -10.73262   -4.53401    3.37043        -5.721268       5.879856       0.158588
   1560  -10.16704   -6.01469    2.45531        -5.512374       5.663524       0.151150
   1561   -9.25193   -6.94057    1.11225        -5.520225       5.668408       0.148182
   1562  -11.85066    4.39127   -0.00781        -5.677524       5.835739       0.158215
   1563  -13.31991    3.80720   -0.00781        -5.178439       5.329933       0.151494
   1564  -12.76577    3.82570    1.47288        -5.330006       5.481577       0.151571
   1565  -11.85066    3.26012    2.95357        -5.657691       5.812084       0.154393
   1566  -12.76577    3.82570   -1.48849        -5.381889       5.539091       0.157202
   1567  -14.24646    2.91058   -0.92292        -4.956874       5.107244       0.150371
   1568  -13.55402    2.56769   -2.62629        -5.196586       5.354950       0.158364
   1569  -14.81203    1.42989   -1.83804        -4.870064       5.021929       0.151864
   1570  -14.79353   -0.05079   -2.39218        -4.929140       5.084788       0.155649
   1571  -12.41623    1.77944    3.86868        -5.452865       5.605374       0.152509
   1572  -13.55402    2.56769    2.61067        -5.091798       5.240093       0.148295
   1573  -14.24646    2.91058    0.90731        -4.924324       5.071863       0.147539
   1574  -13.89691    0.86432    3.30311        -5.014884       5.163189       0.148305
   1575  -14.81203    1.42989    1.82242        -4.797905       4.944047       0.146142
   1576  -14.79353   -0.05079    2.37656        -4.820313       4.967729       0.147415
   1577  -15.37760   -0.05079    0.90731        -4.714441       4.861662       0.147221
   1578  -15.17233    1.56752   -0.00781        -4.744532       4.891643       0.147111
   1579  -15.37760   -0.05079   -0.92292        -4.752954       4.902885       0.149932
   1580  -14.24646   -3.01217    0.90731        -5.066330       5.224789       0.158459
   1581  -14.81203   -1.53148    1.82242        -4.858105       5.008574       0.150469
   1582  -15.17233   -1.66910   -0.00781        -4.818588       4.970615       0.152028
   1583  -14.81203   -1.53148   -1.83804        -4.952981       5.110051       0.157070
   1584  -13.89691   -0.96591    3.30311        -5.049989       5.201093       0.151104
   1585  -13.55402   -2.66927    2.61067        -5.205343       5.363219       0.157876
   1586  -12.41623   -1.88102    3.86868        -5.526539       5.686178       0.159638
   1587  -12.55385   -0.05079    4.22898        -5.430594       5.584936       0.154342
   1588    8.30110   -0.11573    2.49424        -4.873292       4.938531       0.065238
   1589    6.82748   -3.97372    0.10987        -5.100899       5.171688       0.070789
   1590    7.75402   -3.07711    1.02499        -4.889470       4.957292       0.067822
   1591    8.31959   -1.59642    1.94010        -4.810165       4.875984       0.065819
   1592    6.27334   -3.99222    1.59056        -5.305131       5.376745       0.071614
   1593    7.06159   -2.73421    2.72835        -5.131938       5.200576       0.068638
   1594    8.31959    1.36495    1.94010        -4.898647       4.963608       0.064961
   1595    7.75402    2.84564   -0.80524        -5.008379       5.075052       0.066673
   1596    8.67990    1.50258    0.10987        -4.761686       4.826531       0.064845
   1597    8.88517   -0.11573    1.02499        -4.695484       4.760155       0.064671
   1598    8.31959    1.36495   -1.72036        -4.796255       4.862486       0.066231
   1599    8.88517   -0.11573   -0.80524        -4.653696       4.719099       0.065403
   1600    8.30110   -0.11573   -2.27450        -4.754382       4.821447       0.067065
   1601    7.75402   -3.07711   -0.80524        -4.852678       4.921358       0.068681
   1602    8.31959   -1.59642   -1.72036        -4.730389       4.797772       0.067382
   1603    8.67990   -1.73404    0.10987        -4.681920       4.747885       0.065966
   1604    5.92379   -1.94596   -3.76662        -5.361417       5.435910       0.074493
   1605    7.40448   -1.03085   -3.20104        -4.940035       5.009778       0.069744
   1606    5.35822   -3.42665   -2.85150        -5.557461       5.634049       0.076588
   1607    7.06159   -2.73421   -2.50861        -5.012194       5.083141       0.070947
   1608    6.27334   -3.99222   -1.37081        -5.243415       5.316509       0.073093
   1609    5.92379    1.71450   -3.76662        -5.447592       5.520544       0.072952
   1610    7.40448    0.79938   -3.20104        -4.979382       5.048353       0.068971
   1611    6.06142   -0.11573   -4.12692        -5.345229       5.418721       0.073491
   1612    4.44311   -1.03085   -4.33219        -5.992453       6.073009       0.080556
   1613    7.06159    2.50275   -2.50861        -5.139555       5.208464       0.068909
   1614    4.44311   -4.35252   -1.50844        -5.966851       6.047262       0.080412
   1615    5.35822   -4.55779    0.10987        -5.584764       5.660513       0.075749
   1616    2.73384    5.09548    4.52939        -5.717721       5.795949       0.078227
   1617    6.04475    5.67248    1.58651        -4.989979       5.058487       0.068508
   1618    5.11821    6.56910    0.67140        -5.001778       5.072830       0.071052
   1619    5.35232    5.32959    3.28988        -5.141865       5.211669       0.069804
   1620    4.56406    6.58759    2.15209        -5.073971       5.146006       0.072035
   1621    3.64895    6.02202    3.63277        -5.326379       5.400902       0.074523
   1622    6.04475    5.67248   -0.24372        -5.010280       5.079465       0.069185
   1623    2.73384    5.09548   -3.18659        -5.897098       5.979820       0.082722
   1624    4.21452    4.54133   -3.20509        -5.633100       5.709863       0.076763
   1625    4.56406    6.58759   -0.80929        -5.114406       5.187715       0.073309
   1626    5.35232    5.32959   -1.94708        -5.209104       5.280963       0.071860
   1627    3.64895    6.02202   -2.28997        -5.427811       5.505253       0.077442
   1628    3.64895    7.15316    0.67140        -5.171095       5.246598       0.075503
   1629    1.81872    7.15316    0.67140        -5.597997       5.681249       0.083252
   1630    0.34946    6.56910    0.67140        -6.239958       6.333260       0.093303
   1631    2.73384    6.94790    2.28971        -5.374846       5.453037       0.078191
   1632    0.90361    6.58759    2.15209        -5.974220       6.062070       0.087849
   1633    1.81872    6.02202    3.63277        -5.775203       5.857241       0.082038
   1634    0.90361    6.58759   -0.80929        -6.060212       6.150485       0.090273
   1635    2.73384    6.94790   -0.94691        -5.435596       5.515602       0.080006
   1636    1.81872    6.02202   -2.28997        -5.925992       6.012064       0.086072
   1637    1.25315    4.54133   -3.20509        -6.622025       6.714461       0.092437
   1638   -9.22130   -2.77078   -6.52482        -5.545858       5.697790       0.151933
   1639   -7.74062   -2.21664   -6.54332        -5.956346       6.108459       0.152113
   1640   -8.30619   -3.69733   -5.62820        -5.994235       6.152484       0.158249
   1641   -9.22130    1.99796   -6.52482        -5.559597       5.708479       0.148882
   1642   -7.74062    1.44382   -6.54332        -5.980419       6.130812       0.150393
   1643   -9.22130    0.52870   -7.10889        -5.440435       5.587818       0.147383
   1644   -7.60299   -0.38641   -6.90362        -5.927646       6.077544       0.149898
   1645   -9.22130   -1.30152   -7.10889        -5.435311       5.583638       0.148327
   1646   -8.30619    2.92451   -5.62820        -6.032064       6.185018       0.152954
   1647  -11.05153    3.49008   -4.14751        -5.648869       5.808106       0.159236
   1648   -9.22130    3.85038   -4.28514        -6.106567       6.265462       0.158894
   1649  -10.13642    2.92451   -5.62820        -5.529082       5.680789       0.151707
   1650  -11.83979    2.23207   -5.28531        -5.254000       5.407482       0.153482
   1651  -10.70199    1.44382   -6.54332        -5.234768       5.383145       0.148377
   1652  -13.09779    1.09428   -4.49706        -5.199070       5.358533       0.159463
   1653  -12.18268    0.52870   -5.97774        -5.076952       5.227990       0.151038
   1654  -13.07930   -0.38641   -5.05120        -5.105030       5.261739       0.156709
   1655  -12.18268   -1.30152   -5.97774        -5.081207       5.233465       0.152258
   1656  -10.83961   -0.38641   -6.90362        -5.147219       5.295114       0.147895
   1657  -10.70199   -2.21664   -6.54332        -5.234216       5.384982       0.150766
   1658  -10.13642   -3.69733   -5.62820        -5.523701       5.681465       0.157764
   1659  -11.83979   -3.00489   -5.28531        -5.267611       5.425720       0.158109

 NET CHARGES:
 -------------------------------------
 ATOM                CHARGE    E.S.D.
 -------------------------------------
 C                  -0.3784    0.2043
 H                   0.1083    0.0137
 C                   0.1025    0.1745
 C                  -0.1186    0.2117
 C                  -0.1853    0.2200
 C                   0.1182    0.1880
 N                  -0.4966    0.2405
 H                   0.0217    0.0129
 H                   0.0216    0.0130
 H                   0.0684    0.0154
 H                   0.0680    0.0152
 H                   0.0848    0.0157
 H                   0.0843    0.0155
 H                   0.0916    0.0143
 H                   0.0915    0.0143
 H                   0.3622    0.0166
 H                   0.3642    0.0180
 H                   0.1215    0.0142
 H                   0.1084    0.0136
 H                   0.3618    0.0169
 -------------------------------------

 RMS DEVIATION IS            1.004 KCAL/MOLE
 RELATIVE RMS DEVIATION IS   1.199 %

 MULTIPOLE MOMENTS:
 ---------------------------------------------------------
 STATUS  ACTUAL VALUE       QUANTITY        FITTED VALUE 
 ---------------------------------------------------------
 FIXED       1.0000       TOTAL CHARGE         1.0000
            11.7385 D    DIPOLE MOMENT        11.7345 D
 FREE      -11.5896 D          DX            -11.5842 D
 FREE       -1.2060 D          DY             -1.2127 D
 FREE       -1.4211 D          DZ             -1.4263 D
 FREE        0.0000 BU         QXX            41.3029 BU
 FREE        0.0000 BU         QYY           -20.8692 BU
 FREE        0.0000 BU         QZZ           -20.4337 BU
 FREE        0.0000 BU         QXY             6.7575 BU
 FREE        0.0000 BU         QXZ             7.9386 BU
 FREE        0.0000 BU         QYZ             1.7630 BU
 ---------------------------------------------------------
 ...... END OF PROPERTY EVALUATION ......
 CPU     0: STEP CPU TIME=     0.51 TOTAL CPU TIME=         13.5 (      0.2 MIN)
 TOTAL WALL CLOCK TIME=         19.4 SECONDS, CPU UTILIZATION IS    69.63%
               750788  WORDS OF DYNAMIC MEMORY USED
 EXECUTION OF GAMESS TERMINATED NORMALLY Sun May 17 15:39:49 2020
 DDI: 263640 bytes (0.3 MB / 0 MWords) used by master data server.
Note: The following floating-point exceptions are signalling: IEEE_UNDERFLOW_FLAGNote: The following floating-point exceptions are signalling: IEEE_UNDERFLOW_FLAG IEEE_DENORMAL
Note: The following floating-point exceptions are signalling:
 ----------------------------------------
 CPU timing information for all processes
 ========================================
 0: 13.276 + 0.265 = 13.541
 1: 12.428 + 0.84 = 12.513
 2: 11.843 + 0.64 = 11.908
 3: 12.726 + 0.55 = 12.782
 4: 12.87 + 0.76 = 12.163
 5: 11.883 + 0.40 = 11.923
 ----------------------------------------
 IEEE_DENORMAL
 IEEE_UNDERFLOW_FLAG IEEE_DENORMALNote: The following floating-point exceptions are signalling: IEEE_UNDERFLOW_FLAGNote: The following floating-point exceptions are signalling: IEEE_UNDERFLOW_FLAGNote: The following floating-point exceptions are signalling:
 IEEE_DENORMAL
 IEEE_DENORMAL
 IEEE_UNDERFLOW_FLAG IEEE_DENORMAL
 ddikick.x: exited gracefully.
unset echo
----- accounting info -----
Files used on the master node pietdev were:
-rwxr-xr-x 1 piet piet     1301 mei 17 15:39 /home/piet/scr/lysine_1__charge_geodisk.F05*
-rw-r--r-- 1 piet piet 50790400 mei 17 15:39 /home/piet/scr/lysine_1__charge_geodisk.F10
ls: No match.
ls: No match.
ls: No match.
zo 17 mei 2020 15:39:52 CEST
0.111u 0.024s 0:22.58 0.5%	0+0k 0+8io 0pf+0w
