----- GAMESS execution script 'rungms' -----
This job is running on host pietdev
under operating system Linux at zo 17 mei 2020 14:29:09 CEST
Available scratch disk space (Kbyte units) at beginning of the job is
Filesystem     1K-blocks     Used Available Use% Mounted on
/dev/sda2      244568380 30379796 201695528  14% /
GAMESS temporary binary files will be written to /home/piet/scr
GAMESS supplementary output files will be written to /home/piet/gamess/scr
Copying input file histidine_1__fukui_acid.inp to your run's scratch directory...
cp histidine_1__fukui_acid.inp /home/piet/scr/histidine_1__fukui_acid.F05
unset echo
 
Assuming a single but multicore node.
 
/home/piet/gamess/ddikick.x /home/piet/gamess/gamess.03.x histidine_1__fukui_acid -ddi 1 6 pietdev:cpus=6 -scr /home/piet/scr

 Distributed Data Interface kickoff program.
 Initiating 6 compute processes on 1 nodes to run the following command:
 /home/piet/gamess/gamess.03.x histidine_1__fukui_acid 

          ******************************************************
          *         GAMESS VERSION = 30 SEP 2019 (R2)          *
          *             FROM IOWA STATE UNIVERSITY             *
          * M.W.SCHMIDT, K.K.BALDRIDGE, J.A.BOATZ, S.T.ELBERT, *
          *   M.S.GORDON, J.H.JENSEN, S.KOSEKI, N.MATSUNAGA,   *
          *          K.A.NGUYEN, S.J.SU, T.L.WINDUS,           *
          *       TOGETHER WITH M.DUPUIS, J.A.MONTGOMERY       *
          *         J.COMPUT.CHEM.  14, 1347-1363(1993)        *
          **************** 64 BIT LINUX VERSION ****************

  SINCE 1993, STUDENTS AND POSTDOCS WORKING AT IOWA STATE UNIVERSITY
  AND ALSO IN THEIR VARIOUS JOBS AFTER LEAVING ISU HAVE MADE IMPORTANT
  CONTRIBUTIONS TO THE CODE:
     IVANA ADAMOVIC, CHRISTINE AIKENS, YURI ALEXEEV, POOJA ARORA,
     ANDREY ASADCHEV, ROB BELL, PRADIPTA BANDYOPADHYAY, JONATHAN BENTZ,
     COLLEEN BERTONI, BRETT BODE, KURT BRORSEN, CALEB CARLIN, GALINA CHABAN,
     WEI CHEN, CHEOL HO CHOI, PAUL DAY, ALBERT DEFUSCO, NUWAN DESILVA,
     TIM DUDLEY, DMITRI FEDOROV, ALEX FINDLATER, GRAHAM FLETCHER, 
     MARK FREITAG, KURT GLAESEMANN, EMILIE B GUIDEZ, ANASTASIA GUNINA, 
     DAN KEMP, SAROM SOK LEANG, GRANT MERRILL,
     NORIYUKI MINEZAWA, JONATHAN MULLIN,
     TAKESHI NAGATA, SEAN NEDD, HEATHER NETZLOFF, BOSILJKA NJEGIC, RYAN OLSON,
     MIKE PAK, BUU PHAM, DAVID POOLE,
     SPENCER PRUITT, LUKE ROSKOP, TOSAPORN SATTASATHUCHANA,
     JIM SHOEMAKER, LYUDMILA SLIPCHENKO,
     TONY SMITH, JIE SONG, TETSUYA TAKETSUGU, SIMON WEBB,
     JORGE LUIS GALVEZ VALLEJO, PENG XU, SOOHAENG YOO,
     FEDERICO ZAHARIEV

  ADDITIONAL CODE HAS BEEN PROVIDED BY COLLABORATORS IN OTHER GROUPS:
     IOWA STATE UNIVERSITY:
          JOE IVANIC, AARON WEST, LAIMUTIS BYTAUTAS, KLAUS RUEDENBERG
     UNIVERSITY OF TOKYO: KIMIHIKO HIRAO, TAKAHITO NAKAJIMA,
          TAKAO TSUNEDA, MUNEAKI KAMIYA, SUSUMU YANAGISAWA,
          KIYOSHI YAGI, MAHITO CHIBA, SEIKEN TOKURA, NAOAKI KAWAKAMI
     UNIVERSITY OF AARHUS: FRANK JENSEN
     UNIVERSITY OF IOWA: VISVALDAS KAIRYS, HUI LI
     NATIONAL INST. OF STANDARDS AND TECHNOLOGY: WALT STEVENS, DAVID GARMER
     UNIVERSITY OF PISA: BENEDETTA MENNUCCI, JACOPO TOMASI
     UNIVERSITY OF MEMPHIS: HENRY KURTZ, PRAKASHAN KORAMBATH
     UNIVERSITY OF ALBERTA: TOBY ZENG, MARIUSZ KLOBUKOWSKI
     UNIVERSITY OF NEW ENGLAND: MARK SPACKMAN
     MIE UNIVERSITY: HIROAKI UMEDA
     NAT. INST. OF ADVANCED INDUSTRIAL SCIENCE AND TECHNOLOGY: KAZUO KITAURA
     MICHIGAN STATE UNIVERSITY:
          KAROL KOWALSKI, MARTA WLOCH, JEFFREY GOUR, JESSE LUTZ,
          WEI LI, JUN SHEN, J. EMILIANO DEUSTUA, PIOTR PIECUCH
     UNIVERSITY OF MINNESOTA:
          ANDREW SAND, PRACHI SHARMA, YINAN SHU
     UNIVERSITY OF SILESIA: MONIKA MUSIAL, STANISLAW KUCHARSKI
     FACULTES UNIVERSITAIRES NOTRE-DAME DE LA PAIX:
          OLIVIER QUINET, BENOIT CHAMPAGNE
     UNIVERSITY OF CALIFORNIA - SANTA BARBARA: BERNARD KIRTMAN
     INSTITUTE FOR MOLECULAR SCIENCE:
          KAZUYA ISHIMURA, MICHIO KATOUDA, AND SHIGERU NAGASE
     UNIVERSITY OF NOTRE DAME: ANNA POMOGAEVA, DAN CHIPMAN
     KYUSHU UNIVERSITY:
          HARUYUKI NAKANO,
          FENG LONG GU, JACEK KORCHOWIEC, MARCIN MAKOWSKI, AND YURIKO AOKI,
          HIROTOSHI MORI AND EISAKU MIYOSHI
     PENNSYLVANIA STATE UNIVERSITY:
          TZVETELIN IORDANOV, CHET SWALINA, JONATHAN SKONE,
          SHARON HAMMES-SCHIFFER
     WASEDA UNIVERSITY:
          MASATO KOBAYASHI, TOMOKO AKAMA, TSUGUKI TOUMA,
          TAKESHI YOSHIKAWA, YASUHIRO IKABATA, JUNJI SEINO,
          YUYA NAKAJIMA, HIROMI NAKAI
     NANJING UNIVERSITY: SHUHUA LI
     UNIVERSITY OF NEBRASKA:
          PEIFENG SU, DEJUN SI, NANDUN THELLAMUREGE, YALI WANG, HUI LI
     UNIVERSITY OF ZURICH: ROBERTO PEVERATI, KIM BALDRIDGE
     N. COPERNICUS UNIVERSITY AND JACKSON STATE UNIVERSITY:
          MARIA BARYSZ
     UNIVERSITY OF COPENHAGEN: Jimmy Kromann, CASPER STEINMANN
     TOKYO INSTITUTE OF TECHNOLOGY: HIROYA NAKATA
     NAGOYA UNIVERSITY: YOSHIO NISHIMOTO, STEPHAN IRLE
     MOSCOW STATE UNIVERSITY: VLADIMIR MIRONOV
     A.N.NESMEYANOV INSTITUTE OF ORGANOELEMENT COMPOUNDS OF RUSSIAN ACADEMY OF SCIENCES:
          IGOR S. GERASIMOV
     JOHANNES KEPLER UNIVERSITY LINZ:
          CHRISTIAN FRIEDL


 PARALLEL VERSION RUNNING ON        6 PROCESSORS IN        1 NODES.

 EXECUTION OF GAMESS BEGUN Sun May 17 14:29:09 2020

            ECHO OF THE FIRST FEW INPUT CARDS -
 INPUT CARD> $BASIS GBASIS=N21 NGAUSS=3 $END                                                
 INPUT CARD> $CONTRL SCFTYP=UHF MAXIT=60 MULT=2 ICHARG=0 $END                               
 INPUT CARD> $SYSTEM MEMDDI=1000 MWORDS=30 $END                                             
 INPUT CARD> $SCF DIRSCF=.TRUE. $END                                                        
 INPUT CARD> $STATPT OPTTOL=0.0001 NSTEP=999 $END                                           
 INPUT CARD> $DATA                                                                          
 INPUT CARD>                                                                                
 INPUT CARD>C1                                                                              
 INPUT CARD>C 6.0000000 1.1119728886 0.0185960898 0.4225240780                              
 INPUT CARD>H 1.0000000 0.9609576308 -0.7442144843 1.1945474013                             
 INPUT CARD>C 6.0000000 0.1899672159 -0.2241074343 -0.8040935694                            
 INPUT CARD>C 6.0000000 -1.2638048138 -0.1397502759 -0.4526865600                           
 INPUT CARD>C 6.0000000 -2.2507902475 0.7036177816 -0.8885943770                            
 INPUT CARD>N 7.0000000 -3.4265162192 0.3510686776 -0.2156318697                            
 INPUT CARD>C 6.0000000 -3.1873698216 -0.6772500771 0.6161991018                            
 INPUT CARD>N 7.0000000 -1.8821626799 -0.9857236937 0.4847368982                            
 INPUT CARD>H 1.0000000 0.3938420190 0.5246645861 -1.5754974671                             
 INPUT CARD>H 1.0000000 0.4016340277 -1.2077842947 -1.2432003925                            
 INPUT CARD>H 1.0000000 -2.2093711890 1.5024314598 -1.6058103210                            
 INPUT CARD>H 1.0000000 -4.3289927413 0.8051850220 -0.3372796912                            
 INPUT CARD>H 1.0000000 -3.8992682954 -1.1604736288 1.2612411822                            
 INPUT CARD>H 1.0000000 2.1577702782 -0.0291077350 0.1067159614                             
 INPUT CARD>H 1.0000000 0.9247636641 1.0037556865 0.8590231659                              
 INPUT CARD>H 1.0000000 -1.4063617165 -1.7261876795 0.9955364592                            
 INPUT CARD> $END                                                                           
   30000000 WORDS OF MEMORY AVAILABLE

     BASIS OPTIONS
     -------------
     GBASIS=N21          IGAUSS=       3      POLAR=NONE    
     NDFUNC=       0     NFFUNC=       0     DIFFSP=       F
     NPFUNC=       0      DIFFS=       F     BASNAM=        


     RUN TITLE
     ---------
                                                                                 

 THE POINT GROUP OF THE MOLECULE IS C1      
 THE ORDER OF THE PRINCIPAL AXIS IS     0

 ATOM      ATOMIC                      COORDINATES (BOHR)
           CHARGE         X                   Y                   Z
 C           6.0     2.1013240652        0.0351415142        0.7984547306
 H           1.0     1.8159466080       -1.4063614514        2.2573672678
 C           6.0     0.3589859847       -0.4235016426       -1.5195165147
 C           6.0    -2.3882448000       -0.2640897282       -0.8554535567
 C           6.0    -4.2533768236        1.3296448073       -1.6791998868
 N           7.0    -6.4751767468        0.6634236035       -0.4074851480
 C           6.0    -6.0232555844       -1.2798170709        1.1644474563
 N           7.0    -3.5567717293       -1.8627476807        0.9160199137
 H           1.0     0.7442534984        0.9914723032       -2.9772585072
 H           1.0     0.7589782597       -2.2823813693       -2.3493080897
 H           1.0    -4.1751061524        2.8391837744       -3.0345414949
 H           1.0    -8.1806100839        1.5215790610       -0.6373661976
 H           1.0    -7.3685486309       -2.1929771744        2.3834002388
 H           1.0     4.0775945702       -0.0550056433        0.2016639256
 H           1.0     1.7475499286        1.8968232061        1.6233184007
 H           1.0    -2.6576382838       -3.2620217176        1.8812911187

          INTERNUCLEAR DISTANCES (ANGS.)
          ------------------------------

                1 C          2 H          3 C          4 C          5 C     

   1 C       0.0000000    1.0957671 *  1.5535734 *  2.5368064 *  3.6737532  
   2 H       1.0957671 *  0.0000000    2.2044281 *  2.8334298 *  4.0928013  
   3 C       1.5535734 *  2.2044281 *  0.0000000    1.4980174 *  2.6124914 *
   4 C       2.5368064 *  2.8334298 *  1.4980174 *  0.0000000    1.3694618 *
   5 C       3.6737532    4.0928013    2.6124914 *  1.3694618 *  0.0000000  
   6 N       4.5951784    4.7368954    3.7089173    2.2303405 *  1.3998218 *
   7 C       4.3595940    4.1889846    3.6917442    2.2652869 *  2.2468602 *
   8 N       3.1586985    2.9403215 *  2.5563383 *  1.4059873 *  2.2081213 *
   9 H       2.1826377 *  3.0991649    1.0942068 *  2.1094891 *  2.7382366 *
  10 H       2.1870592 *  2.5436891 *  1.0978332 *  2.1305622 *  3.2885495  
  11 H       4.1650011    4.7896144    3.0627620    2.2182315 *  1.0743452 *
  12 H       5.5497866    5.7210758    4.6581496    3.2096103    2.1524845 *
  13 H       5.2159553    4.8784747    4.6759209    3.3053127    3.2884814  
  14 H       1.0934819 *  1.7683652 *  2.1771191 *  3.4687677    4.5785298  
  15 H       1.0936719 *  1.7802489 *  2.1939761 *  2.7960723 *  3.6370857  
  16 H       3.1168290    2.5706181 *  2.8360500 *  2.1527787 *  3.1885676  

                6 N          7 C          8 N          9 H         10 H     

   1 C       4.5951784    4.3595940    3.1586985    2.1826377 *  2.1870592 *
   2 H       4.7368954    4.1889846    2.9403215 *  3.0991649    2.5436891 *
   3 C       3.7089173    3.6917442    2.5563383 *  1.0942068 *  1.0978332 *
   4 C       2.2303405 *  2.2652869 *  1.4059873 *  2.1094891 *  2.1305622 *
   5 C       1.3998218 *  2.2468602 *  2.2081213 *  2.7382366 *  3.2885495  
   6 N       0.0000000    1.3440883 *  2.1592957 *  4.0588800    4.2591847  
   7 C       1.3440883 *  0.0000000    1.3475919 *  4.3672887    4.0767366  
   8 N       2.1592957 *  1.3475919 *  0.0000000    3.4214085    2.8724216 *
   9 H       4.0588800    4.3672887    3.4214085    0.0000000    1.7640468 *
  10 H       4.2591847    4.0767366    2.8724216 *  1.7640468 *  0.0000000  
  11 H       2.1770793 *  3.2626399    3.2662470    2.7809469 *  3.7807544  
  12 H       1.0175872 *  2.1000092 *  3.1416624    4.8905054    5.2203034  
  13 H       2.1655043 *  1.0753528 *  2.1684583 *  5.4145704    4.9771706  
  14 H       5.6064871    5.4083439    4.1688214    2.4995897 *  2.5090969 *
  15 H       4.5292958    4.4490882    3.4607736    2.5373799 *  3.0957903  
  16 H       3.1405329    2.1014654 *  1.0176393 *  3.8622901    2.9239585 *

               11 H         12 H         13 H         14 H         15 H     

   1 C       4.1650011    5.5497866    5.2159553    1.0934819 *  1.0936719 *
   2 H       4.7896144    5.7210758    4.8784747    1.7683652 *  1.7802489 *
   3 C       3.0627620    4.6581496    4.6759209    2.1771191 *  2.1939761 *
   4 C       2.2182315 *  3.2096103    3.3053127    3.4687677    2.7960723 *
   5 C       1.0743452 *  2.1524845 *  3.2884814    4.5785298    3.6370857  
   6 N       2.1770793 *  1.0175872 *  2.1655043 *  5.6064871    4.5292958  
   7 C       3.2626399    2.1000092 *  1.0753528 *  5.4083439    4.4490882  
   8 N       3.2662470    3.1416624    2.1684583 *  4.1688214    3.4607736  
   9 H       2.7809469 *  4.8905054    5.4145704    2.4995897 *  2.5373799 *
  10 H       3.7807544    5.2203034    4.9771706    2.5090969 *  3.0957903  
  11 H       0.0000000    2.5667330 *  4.2622529    4.9346006    4.0183184  
  12 H       2.5667330 *  0.0000000    2.5697755 *  6.5552476    5.3918946  
  13 H       4.2622529    2.5697755 *  0.0000000    6.2690217    5.3025421  
  14 H       4.9346006    6.5552476    6.2690217    0.0000000    1.7756909 *
  15 H       4.0183184    5.3918946    5.3025421    1.7756909 *  0.0000000  
  16 H       4.2232465    4.0897456    2.5700612 *  4.0463711    3.5924048  

               16 H     

   1 C       3.1168290  
   2 H       2.5706181 *
   3 C       2.8360500 *
   4 C       2.1527787 *
   5 C       3.1885676  
   6 N       3.1405329  
   7 C       2.1014654 *
   8 N       1.0176393 *
   9 H       3.8622901  
  10 H       2.9239585 *
  11 H       4.2232465  
  12 H       4.0897456  
  13 H       2.5700612 *
  14 H       4.0463711  
  15 H       3.5924048  
  16 H       0.0000000  

  * ... LESS THAN  3.000


     ATOMIC BASIS SET
     ----------------
 THE CONTRACTED PRIMITIVE FUNCTIONS HAVE BEEN UNNORMALIZED
 THE CONTRACTED BASIS FUNCTIONS ARE NOW NORMALIZED TO UNITY

  SHELL TYPE  PRIMITIVE        EXPONENT          CONTRACTION COEFFICIENT(S)

 C         

      1   S       1           172.2560000    0.061766907377
      1   S       2            25.9109000    0.358794042852
      1   S       3             5.5333500    0.700713083689

      2   L       4             3.6649800   -0.395895162119    0.236459946619
      2   L       5             0.7705450    1.215834355681    0.860618805716

      3   L       6             0.1958570    1.000000000000    1.000000000000

 H         

      4   S       7             5.4471780    0.156284978695
      4   S       8             0.8245472    0.904690876670

      5   S       9             0.1831916    1.000000000000

 C         

      6   S      10           172.2560000    0.061766907377
      6   S      11            25.9109000    0.358794042852
      6   S      12             5.5333500    0.700713083689

      7   L      13             3.6649800   -0.395895162119    0.236459946619
      7   L      14             0.7705450    1.215834355681    0.860618805716

      8   L      15             0.1958570    1.000000000000    1.000000000000

 C         

      9   S      16           172.2560000    0.061766907377
      9   S      17            25.9109000    0.358794042852
      9   S      18             5.5333500    0.700713083689

     10   L      19             3.6649800   -0.395895162119    0.236459946619
     10   L      20             0.7705450    1.215834355681    0.860618805716

     11   L      21             0.1958570    1.000000000000    1.000000000000

 C         

     12   S      22           172.2560000    0.061766907377
     12   S      23            25.9109000    0.358794042852
     12   S      24             5.5333500    0.700713083689

     13   L      25             3.6649800   -0.395895162119    0.236459946619
     13   L      26             0.7705450    1.215834355681    0.860618805716

     14   L      27             0.1958570    1.000000000000    1.000000000000

 N         

     15   S      28           242.7660000    0.059865700508
     15   S      29            36.4851000    0.352955002994
     15   S      30             7.8144900    0.706513005993

     16   L      31             5.4252200   -0.413300077430    0.237972016222
     16   L      32             1.1491500    1.224417266851    0.858953058551

     17   L      33             0.2832050    1.000000000000    1.000000000000

 C         

     18   S      34           172.2560000    0.061766907377
     18   S      35            25.9109000    0.358794042852
     18   S      36             5.5333500    0.700713083689

     19   L      37             3.6649800   -0.395895162119    0.236459946619
     19   L      38             0.7705450    1.215834355681    0.860618805716

     20   L      39             0.1958570    1.000000000000    1.000000000000

 N         

     21   S      40           242.7660000    0.059865700508
     21   S      41            36.4851000    0.352955002994
     21   S      42             7.8144900    0.706513005993

     22   L      43             5.4252200   -0.413300077430    0.237972016222
     22   L      44             1.1491500    1.224417266851    0.858953058551

     23   L      45             0.2832050    1.000000000000    1.000000000000

 H         

     24   S      46             5.4471780    0.156284978695
     24   S      47             0.8245472    0.904690876670

     25   S      48             0.1831916    1.000000000000

 H         

     26   S      49             5.4471780    0.156284978695
     26   S      50             0.8245472    0.904690876670

     27   S      51             0.1831916    1.000000000000

 H         

     28   S      52             5.4471780    0.156284978695
     28   S      53             0.8245472    0.904690876670

     29   S      54             0.1831916    1.000000000000

 H         

     30   S      55             5.4471780    0.156284978695
     30   S      56             0.8245472    0.904690876670

     31   S      57             0.1831916    1.000000000000

 H         

     32   S      58             5.4471780    0.156284978695
     32   S      59             0.8245472    0.904690876670

     33   S      60             0.1831916    1.000000000000

 H         

     34   S      61             5.4471780    0.156284978695
     34   S      62             0.8245472    0.904690876670

     35   S      63             0.1831916    1.000000000000

 H         

     36   S      64             5.4471780    0.156284978695
     36   S      65             0.8245472    0.904690876670

     37   S      66             0.1831916    1.000000000000

 H         

     38   S      67             5.4471780    0.156284978695
     38   S      68             0.8245472    0.904690876670

     39   S      69             0.1831916    1.000000000000

 TOTAL NUMBER OF BASIS SET SHELLS             =   39
 NUMBER OF CARTESIAN GAUSSIAN BASIS FUNCTIONS =   81
 NUMBER OF ELECTRONS                          =   53
 CHARGE OF MOLECULE                           =    0
 SPIN MULTIPLICITY                            =    2
 NUMBER OF OCCUPIED ORBITALS (ALPHA)          =   27
 NUMBER OF OCCUPIED ORBITALS (BETA )          =   26
 TOTAL NUMBER OF ATOMS                        =   16
 THE NUCLEAR REPULSION ENERGY IS      300.5901092695

     $CONTRL OPTIONS
     ---------------
 SCFTYP=UHF          RUNTYP=ENERGY       EXETYP=RUN     
 MPLEVL=       0     CITYP =NONE         CCTYP =NONE         VBTYP =NONE    
 DFTTYP=NONE         TDDFT =NONE    
 MULT  =       2     ICHARG=       0     NZVAR =       0     COORD =UNIQUE  
 PP    =NONE         RELWFN=NONE         LOCAL =NONE         NUMGRD=       F
 ISPHER=      -1     NOSYM =       0     MAXIT =      60     UNITS =ANGS    
 PLTORB=       F     MOLPLT=       F     AIMPAC=       F     FRIEND=        
 NPRINT=       7     IREST =       0     GEOM  =INPUT   
 NORMF =       0     NORMP =       0     ITOL  =      20     ICUT  =       9
 INTTYP=BEST         GRDTYP=BEST         QMTTOL= 1.0E-06

     $SYSTEM OPTIONS
     ---------------
  REPLICATED MEMORY=    30000000 WORDS (ON EVERY NODE).
 DISTRIBUTED MEMDDI=        1000 MILLION WORDS IN AGGREGATE,
 MEMDDI DISTRIBUTED OVER   6 PROCESSORS IS   166666666 WORDS/PROCESSOR.
 TOTAL MEMORY REQUESTED ON EACH PROCESSOR=   196666666 WORDS.
 TIMLIM=      525600.00 MINUTES, OR     365.0 DAYS.
 PARALL= T  BALTYP=  DLB     KDIAG=    0  COREFL= F
 MXSEQ2=     300 MXSEQ3=     150  mem10=         0

          ----------------
          PROPERTIES INPUT
          ----------------

     MOMENTS            FIELD           POTENTIAL          DENSITY
 IEMOM =       1   IEFLD =       0   IEPOT =       0   IEDEN =       0
 WHERE =COMASS     WHERE =NUCLEI     WHERE =NUCLEI     WHERE =NUCLEI  
 OUTPUT=BOTH       OUTPUT=BOTH       OUTPUT=BOTH       OUTPUT=BOTH    
 IEMINT=       0   IEFINT=       0                     IEDINT=       0
                                                       MORB  =       0
          EXTRAPOLATION IN EFFECT
          SOSCF IN EFFECT
          DIIS or SOSCF will be reset if energy rises
 ORBITAL PRINTING OPTION: NPREO=     1    81     2     1

     -------------------------------
     INTEGRAL TRANSFORMATION OPTIONS
     -------------------------------
     NWORD  =            0
     CUTOFF = 1.0E-09     MPTRAN =       0
     DIRTRF =       T     AOINTS =DUP     

          ----------------------
          INTEGRAL INPUT OPTIONS
          ----------------------
 NOPK  =       1 NORDER=       0 SCHWRZ=       T

     ------------------------------------------
     THE POINT GROUP IS C1 , NAXIS= 0, ORDER= 1
     ------------------------------------------

     DIMENSIONS OF THE SYMMETRY SUBSPACES ARE
 A   =   81

 ..... DONE SETTING UP THE RUN .....
 CPU     0: STEP CPU TIME=     0.02 TOTAL CPU TIME=          0.0 (      0.0 MIN)
 TOTAL WALL CLOCK TIME=          0.0 SECONDS, CPU UTILIZATION IS    66.67%

          ********************
          1 ELECTRON INTEGRALS
          ********************
 ...... END OF ONE-ELECTRON INTEGRALS ......
 CPU     0: STEP CPU TIME=     0.01 TOTAL CPU TIME=          0.0 (      0.0 MIN)
 TOTAL WALL CLOCK TIME=          0.0 SECONDS, CPU UTILIZATION IS    75.00%

          -------------
          GUESS OPTIONS
          -------------
          GUESS =HUCKEL            NORB  =       0          NORDER=       0
          MIX   =       F          PRTMO =       F          PUNMO =       F
          TOLZ  = 1.0E-08          TOLE  = 1.0E-05
          SYMDEN=       F          PURIFY=       F

 INITIAL GUESS ORBITALS GENERATED BY HUCKEL   ROUTINE.
 HUCKEL GUESS REQUIRES     67089 WORDS.

 SYMMETRIES FOR INITIAL GUESS ORBITALS FOLLOW.  ALPHA SET(S).
    27 ORBITALS ARE OCCUPIED (    7 CORE ORBITALS).
     8=A        9=A       10=A       11=A       12=A       13=A       14=A   
    15=A       16=A       17=A       18=A       19=A       20=A       21=A   
    22=A       23=A       24=A       25=A       26=A       27=A       28=A   
    29=A       30=A       31=A       32=A       33=A       34=A       35=A   
    36=A       37=A   

 SYMMETRIES FOR INITIAL GUESS ORBITALS FOLLOW.   BETA SET(S).
    26 ORBITALS ARE OCCUPIED (    7 CORE ORBITALS).
     8=A        9=A       10=A       11=A       12=A       13=A       14=A   
    15=A       16=A       17=A       18=A       19=A       20=A       21=A   
    22=A       23=A       24=A       25=A       26=A       27=A       28=A   
    29=A       30=A       31=A       32=A       33=A       34=A       35=A   
    36=A   
 ...... END OF INITIAL ORBITAL SELECTION ......
 CPU     0: STEP CPU TIME=     0.03 TOTAL CPU TIME=          0.1 (      0.0 MIN)
 TOTAL WALL CLOCK TIME=          0.1 SECONDS, CPU UTILIZATION IS    85.71%

                    ----------------------
                    AO INTEGRAL TECHNOLOGY
                    ----------------------
     S,P,L SHELL ROTATED AXIS INTEGRALS, REPROGRAMMED BY
        KAZUYA ISHIMURA (IMS) AND JOSE SIERRA (SYNSTAR).
     S,P,D,L SHELL ROTATED AXIS INTEGRALS PROGRAMMED BY
        KAZUYA ISHIMURA (INSTITUTE FOR MOLECULAR SCIENCE).
     S,P,D,F,G SHELL TO TOTAL QUARTET ANGULAR MOMENTUM SUM 5,
        ERIC PROGRAM BY GRAHAM FLETCHER (ELORET AND NASA ADVANCED
        SUPERCOMPUTING DIVISION, AMES RESEARCH CENTER).
     S,P,D,F,G,L SHELL GENERAL RYS QUADRATURE PROGRAMMED BY
        MICHEL DUPUIS (PACIFIC NORTHWEST NATIONAL LABORATORY).

          --------------------
          2 ELECTRON INTEGRALS
          --------------------

 DIRECT SCF METHOD SKIPS INTEGRAL STORAGE ON DISK.
 DIRECT TRANSFORMATION SKIPS AO INTEGRAL STORAGE ON DISK.
  ...... END OF TWO-ELECTRON INTEGRALS .....
 CPU     0: STEP CPU TIME=     0.02 TOTAL CPU TIME=          0.1 (      0.0 MIN)
 TOTAL WALL CLOCK TIME=          0.1 SECONDS, CPU UTILIZATION IS    88.89%

          ---------------------------
                  UHF SCF CALCULATION
          ---------------------------

     NUCLEAR ENERGY =       300.5901092695
     MAXIT = 60     NPUNCH=  2     MULT=  2
     EXTRAP=T  DAMP=F  SHIFT=F  RSTRCT=F  DIIS=F  SOSCF=T
     DENSITY MATRIX CONV=  2.00E-05
     SOSCF WILL OPTIMIZE    1458 ALPHA AND    1430 BETA ROTATION ANGLES.
     SOGTOL= 2.500E-01
     MEMORY REQUIRED FOR UHF/ROHF ITERS=    133038 WORDS.

 DIRECT SCF CALCULATION, SCHWRZ=T   FDIFF=T
 SCHWARZ INEQUALITY OVERHEAD:      3242 INTEGRALS, T=        0.00

                                                                                NONZERO     BLOCKS
 ITER EX      TOTAL ENERGY        E CHANGE  DENSITY CHANGE    ORB. GRAD       INTEGRALS    SKIPPED
   1  0     -300.9992311479  -300.9992311479   0.706920236   0.000000000        4378457     106207
          ---------------START SECOND ORDER SCF---------------
   2  1     -301.6491077454    -0.6498765975   0.106438360   0.061800493        4359498     110756
   3  2     -301.6825542243    -0.0334464789   0.065622716   0.015058656        4306958     118554
   4  3     -301.6891418024    -0.0065875781   0.010765471   0.005992355        4246936     126085
   5  4     -301.6894638723    -0.0003220699   0.006482085   0.001727172        4145022     134542
   6  5     -301.6895610810    -0.0000972087   0.003864589   0.000781946        4079078     139847
   7  6     -301.6895884415    -0.0000273605   0.001527256   0.000429993        3999587     145476
   8  7     -301.6895939312    -0.0000054897   0.000928028   0.000325040        3902016     151490
   9  8     -301.6895960957    -0.0000021644   0.000949978   0.000217511        3843872     156025
  10  9     -301.6895976576    -0.0000015620   0.001710047   0.000236763        3825436     157749
  11 10     -301.6896000349    -0.0000023773   0.004575881   0.000288221        3882077     154855
  12 11     -301.6896058298    -0.0000057948   0.014211307   0.000556710        3994263     147352
  13 12     -301.6896228368    -0.0000170071   0.040766229   0.001064008        4120970     138256
  14 13     -301.6896197762     0.0000030607   0.023788589   0.001734898        4214612     130373
  15 14     -301.6896614697    -0.0000416936   0.005976709   0.001206789        4174317     133983
  16 15     -301.6896892562    -0.0000277865   0.049664883   0.001027237        4027859     146350
 NEXT ENERGY RISES: SWITCHING SOSCF OFF FOR  5 ITERS, NEW SOGTOL= 9.25E-04
  17 16     -301.6896349530     0.0000543032   0.001910515   0.001033114        4229605     129427
  18 17     -301.6896517598    -0.0000168068   0.001330231   0.000824978        3913188     153326
  19 18     -301.6896627870    -0.0000110271   0.001230195   0.000778130        3861164     157690
  20  0     -301.6896717473    -0.0000089603   0.006602885   0.000679307        3833100     159694
  21  1     -301.6895979453     0.0000738020   0.007036133   0.003670211        4053738     142981
  22  2     -301.6896730543    -0.0000751090   0.002613394   0.001457447        4059126     141834
  23  0     -301.6897002700    -0.0000272157   0.003695209   0.001470581        4017656     143947
          ---------------START SECOND ORDER SCF---------------
  24  1     -301.6897084996    -0.0000082296   0.001471156   0.000914276        4072722     141869
  25  2     -301.6897234382    -0.0000149386   0.001935445   0.000546725        3935469     149662
  26  3     -301.6897311294    -0.0000076912   0.001365039   0.000378093        3948760     148789
  27  4     -301.6897340635    -0.0000029341   0.004333198   0.000401491        3790904     159900
  28  5     -301.6897411017    -0.0000070382   0.003366592   0.000392467        3963540     149093
  29  6     -301.6897465813    -0.0000054796   0.004469756   0.000406426        3959185     150634
  30  7     -301.6897521333    -0.0000055520   0.001935574   0.000236052        3996405     148576
  31  8     -301.6897538109    -0.0000016776   0.000338234   0.000108221        3927884     152957
  32  9     -301.6897540977    -0.0000002868   0.000188751   0.000062458        3769759     162709
  33 10     -301.6897541603    -0.0000000626   0.000097699   0.000024384        3579818     173136
  34 11     -301.6897541754    -0.0000000151   0.000033232   0.000008957        3457288     180150
  35 12     -301.6897541777    -0.0000000024   0.000029062   0.000002414        3312390     188224
  36 13     -301.6897541782    -0.0000000004   0.000010333   0.000000958        3252642     193011
  37 14     -301.6897541784    -0.0000000002   0.000002736   0.000000395        3062437     203644

          -----------------
          DENSITY CONVERGED
          -----------------
     TIME TO FORM FOCK OPERATORS=       2.0 SECONDS (       0.1 SEC/ITER)
     FOCK TIME ON FIRST ITERATION=       0.1, LAST ITERATION=       0.0
     TIME TO SOLVE SCF EQUATIONS=       0.1 SECONDS (       0.0 SEC/ITER)

 FINAL UHF ENERGY IS     -301.6897541784 AFTER  37 ITERATIONS

          --------------------
          SPIN SZ   =    0.500
          S-SQUARED =    0.822
          --------------------

  ----- ALPHA SET ----- 

          ------------
          EIGENVECTORS
          ------------

                      1          2          3          4          5
                  -15.4791   -15.4702   -11.1924   -11.1799   -11.1783
                     A          A          A          A          A   
    1  C  1  S    0.000029  -0.000015  -0.006651   0.000085  -0.004478
    2  C  1  S    0.000196  -0.000059  -0.002378   0.000075  -0.002721
    3  C  1  X   -0.000299  -0.000112   0.001291   0.000115  -0.000689
    4  C  1  Y    0.000287   0.000053   0.000064   0.000040  -0.000096
    5  C  1  Z    0.000036  -0.000117   0.000112   0.000055  -0.000510
    6  C  1  S    0.000422   0.000979   0.004462  -0.001518   0.021999
    7  C  1  X    0.001581   0.000086  -0.004638   0.000080  -0.007615
    8  C  1  Y   -0.002652  -0.000606  -0.001678   0.000559  -0.001808
    9  C  1  Z   -0.000351  -0.000025  -0.001220   0.000600  -0.009289
   10  H  2  S    0.000046  -0.000001  -0.000583   0.000032  -0.001374
   11  H  2  S   -0.001241  -0.000546  -0.001133   0.000278   0.000468
   12  C  3  S   -0.000176   0.000079  -0.008474  -0.053026   0.986690
   13  C  3  S   -0.001013   0.000317  -0.002257  -0.005965   0.105542
   14  C  3  X   -0.000116   0.000584   0.000569   0.000453   0.000176
   15  C  3  Y   -0.000293  -0.000205  -0.000419  -0.000120   0.000035
   16  C  3  Z    0.000162  -0.000010   0.000036  -0.000061   0.000203
   17  C  3  S    0.011834  -0.007495   0.013019   0.007313  -0.103733
   18  C  3  X   -0.006245   0.002306  -0.011996  -0.001600   0.008809
   19  C  3  Y    0.005440   0.000576   0.004228  -0.002101  -0.001761
   20  C  3  Z   -0.001914  -0.000956  -0.001981   0.002564  -0.007169
   21  C  4  S   -0.000337   0.000223   0.987116   0.006145   0.008441
   22  C  4  S   -0.000983   0.000924   0.097751  -0.002792  -0.001050
   23  C  4  X   -0.000155  -0.000125  -0.000414   0.001415  -0.001240
   24  C  4  Y   -0.000586  -0.000844   0.000038  -0.001603   0.000028
   25  C  4  Z    0.000438   0.000776   0.000430   0.000994   0.000453
   26  C  4  S    0.023180  -0.014732  -0.071572   0.027577   0.020435
   27  C  4  X   -0.023966   0.016489   0.000169  -0.016542   0.029583
   28  C  4  Y   -0.010201  -0.001137  -0.008487   0.012037  -0.001667
   29  C  4  Z    0.016549  -0.004082   0.006480  -0.005645  -0.006258
   30  C  5  S    0.000152  -0.000427  -0.007042   0.985378   0.052844
   31  C  5  S    0.000582  -0.001630  -0.004162   0.097046   0.004652
   32  C  5  X   -0.001110  -0.001434  -0.001689  -0.000621  -0.000332
   33  C  5  Y    0.000251  -0.000096   0.000975  -0.001053  -0.000109
   34  C  5  Z    0.000160   0.000527  -0.000396   0.001099   0.000093
   35  C  5  S   -0.011472   0.029324   0.025851  -0.069802   0.005716
   36  C  5  X    0.004993  -0.008015   0.012907  -0.007952  -0.000939
   37  C  5  Y    0.009998  -0.015705  -0.007137   0.012345  -0.005524
   38  C  5  Z   -0.010496   0.016280   0.002714  -0.008312   0.005079
   39  N  6  S   -0.008778   0.986106   0.000112   0.000115   0.000042
   40  N  6  S   -0.001190   0.104604   0.000528   0.000687   0.000163
   41  N  6  X   -0.000104   0.002087  -0.000119   0.000496  -0.000211
   42  N  6  Y    0.000340  -0.001099  -0.000132  -0.000101   0.000114
   43  N  6  Z   -0.000282   0.000324   0.000171  -0.000062  -0.000001
   44  N  6  S   -0.000238  -0.077472  -0.006468   0.003147  -0.003179
   45  N  6  X    0.000303  -0.016220  -0.002050  -0.001443  -0.000323
   46  N  6  Y    0.003293   0.008027   0.003414   0.002775  -0.000472
   47  N  6  Z   -0.002925  -0.002066  -0.002486  -0.002017   0.000406
   48  C  7  S   -0.000140  -0.000170  -0.001343  -0.005785  -0.005479
   49  C  7  S   -0.000584  -0.000905  -0.001194  -0.002201  -0.001511
   50  C  7  X    0.001677  -0.000847  -0.000325  -0.000370  -0.000473
   51  C  7  Y   -0.000663   0.001293  -0.000245  -0.000618  -0.000079
   52  C  7  Z    0.000067  -0.000875   0.000297   0.000654   0.000243
   53  C  7  S    0.021832   0.022351   0.008393   0.008455   0.001889
   54  C  7  X    0.016012   0.006606   0.007668   0.009678   0.002620
   55  C  7  Y    0.003691   0.012494   0.005926   0.005511   0.001281
   56  C  7  Z   -0.008228  -0.013051  -0.007531  -0.007826  -0.001877
   57  N  8  S    0.986247   0.008786   0.000160   0.000116  -0.000009
   58  N  8  S    0.105128   0.000697   0.001200   0.000511  -0.000421
   59  N  8  X   -0.001016   0.000648  -0.000446  -0.000204  -0.000152
   60  N  8  Y    0.001765  -0.000168   0.000598  -0.000129  -0.000202
   61  N  8  Z   -0.001257  -0.000053  -0.000380   0.000175   0.000347
   62  N  8  S   -0.081180  -0.002001  -0.000775  -0.007904   0.002224
   63  N  8  X    0.006656   0.002834   0.005256   0.004489  -0.001003
   64  N  8  Y   -0.014258   0.000053  -0.003662  -0.002271   0.002369
   65  N  8  Z    0.010551  -0.000926   0.001727   0.000641  -0.002281
   66  H  9  S   -0.001280  -0.000137  -0.001226  -0.000053   0.001393
   67  H  9  S   -0.001489   0.000581  -0.001229   0.000883   0.014837
   68  H 10  S    0.000311   0.000343  -0.000875  -0.000234   0.001442
   69  H 10  S    0.000605   0.000320   0.002987  -0.000880   0.014372
   70  H 11  S   -0.001257   0.000750  -0.001293  -0.002607   0.000593
   71  H 11  S   -0.004632   0.006348  -0.000068   0.008207   0.002485
   72  H 12  S   -0.000542  -0.000522  -0.000418  -0.001428   0.000205
   73  H 12  S    0.000659   0.004298   0.000285  -0.000132   0.000360
   74  H 13  S    0.000452   0.000445   0.000926   0.001062   0.000275
   75  H 13  S    0.004661   0.004952   0.004921   0.005651   0.001462
   76  H 14  S   -0.000251  -0.000061  -0.000103   0.000114  -0.001068
   77  H 14  S   -0.000554  -0.000313   0.002538   0.000316  -0.000553
   78  H 15  S    0.000460   0.000019  -0.000822   0.000028  -0.001401
   79  H 15  S    0.001138   0.000148   0.000973  -0.000291   0.000490
   80  H 16  S   -0.000438  -0.000257  -0.001915  -0.000316   0.000399
   81  H 16  S    0.004404   0.000953  -0.000792   0.000087   0.001062

                      6          7          8          9         10
                  -11.1634   -11.1614    -1.3138    -1.1547    -1.0534
                     A          A          A          A          A   
    1  C  1  S   -0.012500   0.987383  -0.003208   0.014021  -0.106760
    2  C  1  S   -0.001420   0.101390   0.004695  -0.014868   0.107528
    3  C  1  X    0.000113  -0.000129  -0.002577   0.007343  -0.029196
    4  C  1  Y    0.000099  -0.000033  -0.001200   0.002544  -0.006304
    5  C  1  Z    0.000114  -0.000097  -0.001449   0.005497  -0.034073
    6  C  1  S    0.000966  -0.078921  -0.003333  -0.025335   0.253490
    7  C  1  X    0.000240   0.002310   0.000886   0.001350   0.010467
    8  C  1  Y   -0.000795   0.000318   0.008050  -0.005489  -0.000513
    9  C  1  Z   -0.000111   0.003125   0.003786  -0.003434   0.000271
   10  H  2  S    0.000057   0.000040   0.002060  -0.007297   0.052442
   11  H  2  S   -0.000661   0.014309   0.004357  -0.003771  -0.000436
   12  C  3  S    0.004727   0.003802  -0.012508   0.029698  -0.150979
   13  C  3  S   -0.000901  -0.000984   0.011866  -0.030536   0.138527
   14  C  3  X   -0.000413   0.000444  -0.012480   0.014646  -0.015676
   15  C  3  Y   -0.000220  -0.000028   0.001195   0.002767   0.010659
   16  C  3  Z    0.000240   0.000113   0.003348  -0.009741   0.026453
   17  C  3  S    0.011548   0.012809   0.018788  -0.033659   0.448778
   18  C  3  X   -0.006184   0.008599   0.010974  -0.017652  -0.028311
   19  C  3  Y    0.001686   0.002479  -0.016227   0.016417   0.003567
   20  C  3  Z    0.000365   0.007685   0.011273  -0.010509   0.017375
   21  C  4  S    0.000976   0.006351  -0.071077   0.056509  -0.090563
   22  C  4  S   -0.000684  -0.000946   0.078967  -0.064763   0.103810
   23  C  4  X    0.001725  -0.001313  -0.055267   0.001330   0.051366
   24  C  4  Y   -0.000693   0.000087  -0.010075   0.053282   0.030935
   25  C  4  Z    0.000056  -0.000360   0.026326  -0.048431  -0.036885
   26  C  4  S   -0.001944   0.002778   0.082984  -0.041209   0.149414
   27  C  4  X   -0.015338   0.005703   0.012926  -0.081787  -0.049708
   28  C  4  Y   -0.000275  -0.002582   0.020015  -0.015934   0.014375
   29  C  4  Z    0.004933   0.001287  -0.021450   0.039705   0.000882
   30  C  5  S    0.005529   0.000155  -0.071507  -0.048842  -0.064648
   31  C  5  S   -0.000937  -0.000106   0.081077   0.056415   0.071520
   32  C  5  X   -0.000920   0.000132  -0.017609  -0.072382   0.032837
   33  C  5  Y    0.000987   0.000138  -0.042962  -0.000607  -0.020227
   34  C  5  Z   -0.000579   0.000137   0.043238   0.022756   0.008476
   35  C  5  S   -0.001036   0.003281   0.084166   0.030933   0.117865
   36  C  5  X    0.000469   0.000492   0.001536   0.021879   0.007978
   37  C  5  Y   -0.004302  -0.002007   0.001644   0.053656   0.003713
   38  C  5  Z    0.003643   0.000480  -0.001903  -0.054398  -0.003614
   39  N  6  S    0.000246   0.000011  -0.132504  -0.159445  -0.003010
   40  N  6  S    0.000886   0.000039   0.115117   0.138962   0.002135
   41  N  6  X    0.000760  -0.000062   0.042198   0.003169   0.018191
   42  N  6  Y    0.000258  -0.000028  -0.031851   0.004074   0.030221
   43  N  6  Z   -0.000464  -0.000045   0.015038  -0.004573  -0.032043
   44  N  6  S    0.001143  -0.000646   0.418073   0.531412   0.017106
   45  N  6  X   -0.005928  -0.000004   0.081095   0.045970   0.007446
   46  N  6  Y    0.002544   0.000231  -0.054018  -0.007627   0.016822
   47  N  6  Z   -0.000401   0.000232   0.022545  -0.007346  -0.017341
   48  C  7  S    0.985955   0.012429  -0.104584  -0.004796   0.059661
   49  C  7  S    0.095417   0.000992   0.121465   0.005654  -0.063084
   50  C  7  X    0.001470  -0.000226   0.055943  -0.082806  -0.033593
   51  C  7  Y    0.000823   0.000077   0.038091   0.075123   0.011143
   52  C  7  Z   -0.001180   0.000027  -0.050831  -0.040638   0.000761
   53  C  7  S   -0.041086  -0.001170   0.063484   0.006256  -0.122320
   54  C  7  X    0.001751   0.000015  -0.060930  -0.000771  -0.009099
   55  C  7  Y    0.001278   0.000467  -0.044621   0.000289  -0.005815
   56  C  7  Z   -0.001673  -0.000592   0.058123  -0.000003   0.007935
   57  N  8  S    0.000296   0.000038  -0.134116   0.154838   0.053042
   58  N  8  S    0.001308   0.000247   0.114233  -0.133217  -0.048423
   59  N  8  X    0.000301   0.000282  -0.034662  -0.015420   0.057979
   60  N  8  Y    0.000595   0.000005   0.035832  -0.000877   0.019272
   61  N  8  Z   -0.000627  -0.000180  -0.020655   0.005050  -0.033361
   62  N  8  S   -0.002220  -0.000697   0.436927  -0.525377  -0.177652
   63  N  8  X    0.002694  -0.002099  -0.051627  -0.004523   0.042975
   64  N  8  Y   -0.006126  -0.000211   0.073680  -0.037606   0.003761
   65  N  8  Z    0.004607   0.000876  -0.048855   0.033981  -0.014193
   66  H  9  S   -0.000764  -0.001108   0.006512  -0.012204   0.072832
   67  H  9  S   -0.000581   0.000813   0.001477  -0.004138  -0.001650
   68  H 10  S   -0.000333  -0.000859   0.003059  -0.012729   0.068158
   69  H 10  S    0.000268   0.001181  -0.006921   0.004627  -0.006330
   70  H 11  S    0.000584   0.000037   0.017222   0.015487   0.031243
   71  H 11  S    0.003381   0.000487  -0.008507  -0.028062   0.003756
   72  H 12  S   -0.002235   0.000028   0.049467   0.082874   0.001422
   73  H 12  S   -0.000226   0.000059   0.014233   0.026387   0.000250
   74  H 13  S   -0.002441   0.000064   0.019950   0.001634  -0.027348
   75  H 13  S    0.012753   0.000595  -0.046206  -0.000345  -0.009553
   76  H 14  S   -0.000110   0.000206   0.001421  -0.005603   0.050312
   77  H 14  S    0.000135   0.013926   0.000136   0.001074  -0.003611
   78  H 15  S    0.000099   0.000198   0.001220  -0.005893   0.052875
   79  H 15  S    0.000156   0.014344  -0.003710   0.004026  -0.000020
   80  H 16  S   -0.002355   0.000482   0.050549  -0.083028  -0.032702
   81  H 16  S   -0.000462  -0.000894   0.014826  -0.026587  -0.009987

                     11         12         13         14         15
                   -0.9757    -0.8623    -0.8355    -0.7656    -0.7076
                     A          A          A          A          A   
    1  C  1  S   -0.111142  -0.136972  -0.014782   0.011430  -0.017725
    2  C  1  S    0.104822   0.122545   0.014119  -0.010226   0.016001
    3  C  1  X   -0.001812   0.054182   0.009956   0.001788  -0.008665
    4  C  1  Y   -0.004182   0.011852   0.009439   0.002258   0.021171
    5  C  1  Z   -0.013374   0.064630   0.000848  -0.028354   0.080374
    6  C  1  S    0.317020   0.475159   0.051937  -0.045625   0.077777
    7  C  1  X   -0.003031   0.007864   0.010003   0.002727  -0.009211
    8  C  1  Y   -0.002228   0.001836   0.002359  -0.002772   0.014074
    9  C  1  Z   -0.006190   0.012645   0.000343  -0.017192   0.046933
   10  H  2  S    0.059947   0.098891   0.004240  -0.020022   0.038827
   11  H  2  S    0.008160   0.032967  -0.007284  -0.009831   0.028103
   12  C  3  S   -0.052974   0.116174   0.003328  -0.030464   0.053986
   13  C  3  S    0.050773  -0.103411  -0.001986   0.027342  -0.043231
   14  C  3  X    0.065547   0.077422   0.011921   0.041127  -0.132256
   15  C  3  Y   -0.001937   0.015593   0.025006   0.021147   0.036046
   16  C  3  Z    0.028924   0.075502  -0.011794  -0.051908   0.077097
   17  C  3  S    0.147211  -0.414581  -0.024042   0.121569  -0.239852
   18  C  3  X    0.007913   0.022389   0.012439   0.014009  -0.065758
   19  C  3  Y   -0.002594   0.005468   0.019806   0.026966   0.019639
   20  C  3  Z    0.006466   0.017874  -0.013817  -0.037833   0.049306
   21  C  4  S    0.096564   0.031207  -0.017483   0.073019  -0.084139
   22  C  4  S   -0.104109  -0.033638   0.021718  -0.077314   0.088868
   23  C  4  X    0.097837  -0.124270  -0.066826   0.039154   0.040978
   24  C  4  Y   -0.051981   0.025110   0.097561   0.087738   0.043619
   25  C  4  Z    0.022867   0.033218  -0.063471  -0.094283  -0.031147
   26  C  4  S   -0.200184  -0.068224   0.041271  -0.188948   0.268966
   27  C  4  X    0.005475  -0.043074  -0.010623  -0.000823   0.063424
   28  C  4  Y   -0.010764   0.003783   0.032434   0.001831   0.031663
   29  C  4  Z    0.006750   0.018788  -0.023945  -0.005542  -0.033576
   30  C  5  S    0.126641  -0.062547  -0.030631  -0.097227  -0.005888
   31  C  5  S   -0.136632   0.066502   0.034915   0.100394   0.006826
   32  C  5  X   -0.056900  -0.026170   0.108056  -0.031394   0.166043
   33  C  5  Y    0.043680  -0.001505  -0.052985   0.118068   0.025593
   34  C  5  Z   -0.019606   0.014065   0.013895  -0.096329  -0.064106
   35  C  5  S   -0.312686   0.161166   0.092827   0.312116   0.062302
   36  C  5  X   -0.019436   0.003427   0.043436   0.018807   0.047330
   37  C  5  Y    0.039067  -0.002663  -0.023820   0.075104   0.006742
   38  C  5  Z   -0.025323   0.005978   0.007976  -0.073154  -0.013031
   39  N  6  S   -0.037813   0.013688   0.072827   0.023518   0.011783
   40  N  6  S    0.034851  -0.014265  -0.062817  -0.021095  -0.005326
   41  N  6  X   -0.074932   0.068752   0.110599   0.017014  -0.198003
   42  N  6  Y   -0.055311   0.044926  -0.139197   0.082218  -0.002569
   43  N  6  Z    0.072236  -0.059139   0.088563  -0.078514   0.070343
   44  N  6  S    0.132699  -0.044863  -0.289937  -0.105469  -0.079518
   45  N  6  X   -0.048249   0.062737   0.099700   0.014131  -0.213101
   46  N  6  Y   -0.030910   0.030938  -0.114062   0.085811   0.004589
   47  N  6  Z    0.041763  -0.046004   0.069710  -0.080629   0.067690
   48  C  7  S   -0.092347   0.044483  -0.121352  -0.036586  -0.042433
   49  C  7  S    0.099927  -0.048193   0.131696   0.037965   0.041267
   50  C  7  X   -0.012161   0.050211   0.018669   0.031065  -0.183010
   51  C  7  Y    0.012404  -0.018290  -0.000456  -0.125054  -0.028627
   52  C  7  Z   -0.006796   0.002665  -0.005361   0.099577   0.089177
   53  C  7  S    0.225477  -0.126898   0.311369   0.148436   0.198535
   54  C  7  X    0.007931   0.010085  -0.009247  -0.005503  -0.075886
   55  C  7  Y    0.006938  -0.000449  -0.007885  -0.032754  -0.027136
   56  C  7  Z   -0.008440  -0.002075   0.009861   0.030086   0.052071
   57  N  8  S   -0.012542  -0.019828   0.065569  -0.015897   0.019995
   58  N  8  S    0.013716   0.017586  -0.056765   0.020004  -0.017786
   59  N  8  X   -0.063539   0.002585  -0.184521  -0.095588   0.106674
   60  N  8  Y   -0.039381   0.006655   0.094241  -0.150831  -0.030900
   61  N  8  Z    0.056957   0.001413  -0.025840   0.159974   0.009894
   62  N  8  S    0.027469   0.079642  -0.257778   0.034007  -0.092685
   63  N  8  X   -0.028116  -0.003933  -0.156056  -0.081377   0.112212
   64  N  8  Y   -0.032997   0.006746   0.087294  -0.157429  -0.032202
   65  N  8  Z    0.041160   0.003379  -0.028618   0.161610   0.009092
   66  H  9  S    0.025484  -0.083753   0.012388   0.053686  -0.069018
   67  H  9  S    0.002796  -0.025077   0.004633   0.027266  -0.036764
   68  H 10  S    0.030824  -0.083559  -0.008890   0.025788  -0.088742
   69  H 10  S    0.005724  -0.022656  -0.006602   0.015917  -0.054685
   70  H 11  S   -0.067233   0.041419   0.004354   0.155208   0.044689
   71  H 11  S   -0.026188   0.014624  -0.005285   0.075303   0.034103
   72  H 12  S    0.037495  -0.025869  -0.136166  -0.000985   0.088373
   73  H 12  S    0.011597  -0.008811  -0.066097  -0.004701   0.047230
   74  H 13  S    0.055734  -0.040694   0.082191   0.073562   0.130904
   75  H 13  S    0.020803  -0.017668   0.022559   0.044077   0.083798
   76  H 14  S    0.063183   0.099903   0.014221  -0.002505  -0.006149
   77  H 14  S    0.010681   0.034269   0.002922   0.000258  -0.008672
   78  H 15  S    0.058374   0.096559   0.013445  -0.012968   0.043848
   79  H 15  S    0.004702   0.029792   0.006332  -0.002732   0.027107
   80  H 16  S    0.020227   0.012357  -0.131331   0.093091   0.029956
   81  H 16  S    0.005529   0.011709  -0.062133   0.045275   0.014394

                     16         17         18         19         20
                   -0.6218    -0.6148    -0.6059    -0.5854    -0.5665
                     A          A          A          A          A   
    1  C  1  S    0.001060   0.005694   0.003750   0.002014   0.000450
    2  C  1  S   -0.000878  -0.004724  -0.003142  -0.004320  -0.001263
    3  C  1  X   -0.015576  -0.095123  -0.062876   0.199944   0.033975
    4  C  1  Y    0.172818  -0.005061  -0.107463  -0.079259   0.026260
    5  C  1  Z   -0.043068   0.027289   0.007627  -0.099442  -0.032601
    6  C  1  S   -0.002762  -0.030976  -0.018522  -0.001426  -0.000562
    7  C  1  X   -0.013720  -0.077272  -0.048716   0.146331   0.023599
    8  C  1  Y    0.130450  -0.001142  -0.083750  -0.063858   0.021153
    9  C  1  Z   -0.028640   0.022896   0.011212  -0.088594  -0.028744
   10  H  2  S   -0.100201   0.022316   0.056578  -0.031766  -0.033264
   11  H  2  S   -0.083671   0.030595   0.043286  -0.018141  -0.028178
   12  C  3  S   -0.003259  -0.007361  -0.010270   0.013235   0.004062
   13  C  3  S    0.003958   0.005714   0.010081  -0.013942  -0.003972
   14  C  3  X    0.009401  -0.046566  -0.001233   0.140525   0.024802
   15  C  3  Y    0.229572   0.021419  -0.117844  -0.054172   0.014885
   16  C  3  Z   -0.031646   0.073340   0.084393  -0.120737  -0.012372
   17  C  3  S   -0.000612   0.045415   0.022667  -0.029108  -0.007184
   18  C  3  X    0.014718  -0.042793   0.009043   0.091966   0.007628
   19  C  3  Y    0.189658   0.010837  -0.098427  -0.054516   0.013145
   20  C  3  Z   -0.034927   0.060299   0.058434  -0.098308  -0.008923
   21  C  4  S   -0.004667   0.015753  -0.000001  -0.005643   0.027378
   22  C  4  S    0.006277  -0.016487  -0.000279   0.004969  -0.033113
   23  C  4  X   -0.005127   0.103619   0.044728  -0.175990   0.037192
   24  C  4  Y    0.095472   0.054519  -0.043881   0.066348  -0.072514
   25  C  4  Z    0.020554   0.025341   0.111332   0.013441   0.053379
   26  C  4  S   -0.002028  -0.016761  -0.024348   0.027240  -0.057095
   27  C  4  X    0.027182   0.017983   0.066721  -0.135977  -0.009499
   28  C  4  Y    0.058014   0.041558  -0.013615   0.058763  -0.032409
   29  C  4  Z    0.017818   0.041346   0.066951   0.018491   0.032334
   30  C  5  S    0.023625  -0.012229   0.000146  -0.012957  -0.004046
   31  C  5  S   -0.025134   0.013890  -0.003178   0.017775   0.001878
   32  C  5  X    0.062169  -0.048087  -0.041539   0.127323   0.060380
   33  C  5  Y    0.011651   0.031779   0.143858  -0.048531   0.215947
   34  C  5  Z    0.064791   0.097393  -0.003254   0.069086  -0.206018
   35  C  5  S   -0.056224  -0.008072   0.037661   0.018134   0.042343
   36  C  5  X    0.038446  -0.009752  -0.020999   0.065787   0.025648
   37  C  5  Y   -0.006699   0.061342   0.089936  -0.019003   0.199195
   38  C  5  Z    0.075519   0.043452   0.020115   0.048556  -0.180818
   39  N  6  S   -0.005771  -0.015413   0.016615   0.005240   0.004595
   40  N  6  S    0.007387   0.008873  -0.012335  -0.004758  -0.003620
   41  N  6  X   -0.069346   0.229302  -0.024611  -0.038682  -0.071544
   42  N  6  Y    0.123932  -0.034040   0.202054   0.060128  -0.162200
   43  N  6  Z    0.058451   0.153803   0.049868   0.136826   0.171179
   44  N  6  S    0.012459   0.087341  -0.079322  -0.022712  -0.009777
   45  N  6  X   -0.085311   0.252388  -0.031323  -0.042905  -0.067276
   46  N  6  Y    0.126945  -0.044333   0.204652   0.058519  -0.169802
   47  N  6  Z    0.055012   0.150573   0.046758   0.142405   0.176732
   48  C  7  S    0.019588  -0.004163  -0.015627   0.009506  -0.002004
   49  C  7  S   -0.018849   0.004762   0.015197  -0.011250   0.006582
   50  C  7  X    0.129313  -0.064441   0.109386  -0.086998   0.023381
   51  C  7  Y    0.041026   0.176632   0.007245   0.087647   0.180816
   52  C  7  Z    0.057745   0.043094   0.159044   0.102987  -0.162225
   53  C  7  S   -0.086184   0.011470   0.057921  -0.009709  -0.042387
   54  C  7  X    0.075608  -0.008629   0.042429  -0.036831   0.057152
   55  C  7  Y    0.055056   0.098060   0.037708   0.055562   0.109322
   56  C  7  Z    0.032085   0.056573   0.112464   0.089136  -0.110254
   57  N  8  S   -0.018757   0.019269  -0.003818  -0.002020  -0.021719
   58  N  8  S    0.014030  -0.012779   0.000478   0.002477   0.020346
   59  N  8  X   -0.072498   0.156966  -0.078370   0.128658   0.040094
   60  N  8  Y    0.096438  -0.046826   0.232629   0.020881   0.051693
   61  N  8  Z    0.087968   0.185287   0.016063   0.058455  -0.056874
   62  N  8  S    0.087278  -0.098707   0.036310  -0.003666   0.082037
   63  N  8  X   -0.078744   0.168366  -0.088094   0.137049   0.053058
   64  N  8  Y    0.102344  -0.063027   0.251123   0.010036   0.046744
   65  N  8  Z    0.084822   0.197497   0.003785   0.062755  -0.057133
   66  H  9  S    0.122433  -0.025117  -0.084882   0.039924   0.016913
   67  H  9  S    0.089826  -0.020678  -0.071430   0.040922   0.023991
   68  H 10  S   -0.121172  -0.031072   0.056569   0.072292  -0.007386
   69  H 10  S   -0.097829  -0.028447   0.035187   0.063557  -0.002983
   70  H 11  S   -0.042513  -0.017677   0.068380  -0.033774   0.210676
   71  H 11  S   -0.014778  -0.032271   0.059343  -0.031108   0.150837
   72  H 12  S    0.079447  -0.146567   0.057517   0.025863  -0.026572
   73  H 12  S    0.056243  -0.104182   0.040634   0.021237  -0.021994
   74  H 13  S   -0.059252  -0.001979   0.027239   0.038981  -0.120006
   75  H 13  S   -0.035395  -0.003234   0.013900   0.031707  -0.087283
   76  H 14  S   -0.006988  -0.070801  -0.041858   0.153413   0.028328
   77  H 14  S   -0.004728  -0.055331  -0.034915   0.139676   0.027946
   78  H 15  S    0.092388   0.011128  -0.057858  -0.102471   0.002459
   79  H 15  S    0.073065   0.009711  -0.044553  -0.081536   0.003432
   80  H 16  S   -0.027243   0.120980  -0.131835   0.054313  -0.012530
   81  H 16  S   -0.021691   0.085246  -0.094921   0.042174  -0.015209

                     21         22         23         24         25
                   -0.5552    -0.5135    -0.4967    -0.4869    -0.4454
                     A          A          A          A          A   
    1  C  1  S   -0.000505  -0.010841  -0.000688   0.008002   0.006627
    2  C  1  S    0.000887   0.009539   0.002739  -0.007371  -0.007851
    3  C  1  X    0.000080  -0.162531   0.201883   0.071289   0.046425
    4  C  1  Y   -0.146918  -0.160937  -0.029806  -0.202819   0.036118
    5  C  1  Z    0.143688  -0.217678  -0.159201   0.106698   0.016519
    6  C  1  S    0.010492   0.012486   0.004557  -0.025471  -0.021157
    7  C  1  X    0.000122  -0.132643   0.197512   0.056336   0.017434
    8  C  1  Y   -0.129449  -0.142223  -0.030885  -0.198653   0.037845
    9  C  1  Z    0.111126  -0.167342  -0.141457   0.091176   0.012088
   10  H  2  S    0.147191  -0.000735  -0.095854   0.159047  -0.023642
   11  H  2  S    0.136786  -0.007208  -0.108088   0.171783  -0.008104
   12  C  3  S    0.005113  -0.016320  -0.000211   0.003962   0.001978
   13  C  3  S   -0.001634   0.009634   0.009861  -0.001646   0.000420
   14  C  3  X   -0.085931   0.182400  -0.199298  -0.059898  -0.023137
   15  C  3  Y   -0.046112   0.106207   0.017707   0.228666  -0.049788
   16  C  3  Z   -0.050940   0.227570   0.149850  -0.121324  -0.032910
   17  C  3  S   -0.040166   0.085296  -0.075710  -0.025763  -0.017401
   18  C  3  X   -0.056472   0.129769  -0.122060  -0.042813  -0.009844
   19  C  3  Y   -0.035732   0.097079   0.022872   0.232593  -0.059530
   20  C  3  Z   -0.047464   0.208186   0.120204  -0.120220  -0.047665
   21  C  4  S   -0.007663   0.009050  -0.037183   0.001094  -0.002409
   22  C  4  S    0.010323  -0.005684   0.036363  -0.001530   0.001333
   23  C  4  X    0.020040  -0.088762   0.226551   0.057959   0.021741
   24  C  4  Y    0.147180   0.094983  -0.005401  -0.072162   0.036157
   25  C  4  Z   -0.152608   0.032690  -0.053099   0.066111   0.037005
   26  C  4  S    0.032655  -0.036173   0.140481  -0.023201   0.018756
   27  C  4  X    0.042349  -0.106728   0.252758   0.068558   0.036231
   28  C  4  Y    0.077219   0.071552  -0.027842  -0.058437   0.048118
   29  C  4  Z   -0.088655   0.023032  -0.044610   0.045916   0.047641
   30  C  5  S    0.008719  -0.011452   0.015156   0.015691   0.000165
   31  C  5  S   -0.008068   0.014976  -0.019378  -0.018712  -0.000253
   32  C  5  X    0.155940   0.087326  -0.063399  -0.110794  -0.026381
   33  C  5  Y   -0.064447  -0.039441   0.028239   0.049294  -0.074603
   34  C  5  Z    0.008439   0.008413   0.006214  -0.018378  -0.085182
   35  C  5  S   -0.002912   0.018782  -0.005023  -0.041721   0.002415
   36  C  5  X    0.087485   0.049604  -0.040641  -0.057402  -0.031602
   37  C  5  Y   -0.066189  -0.011922  -0.013678   0.027248  -0.085270
   38  C  5  Z    0.027956   0.003056   0.032952  -0.018154  -0.090336
   39  N  6  S   -0.011642   0.004374  -0.012099  -0.001856  -0.000356
   40  N  6  S    0.014098  -0.003368   0.011791  -0.000271   0.000557
   41  N  6  X   -0.090446  -0.080949   0.061390   0.048556  -0.072781
   42  N  6  Y   -0.019542  -0.081576   0.013132  -0.006898  -0.210775
   43  N  6  Z    0.075982  -0.050165  -0.021178  -0.060334  -0.239427
   44  N  6  S    0.023938  -0.021240   0.040721   0.021974  -0.000859
   45  N  6  X   -0.119291  -0.091808   0.059665   0.065383  -0.086733
   46  N  6  Y   -0.009643  -0.089216   0.016702  -0.009497  -0.248045
   47  N  6  Z    0.078595  -0.055551  -0.022357  -0.068647  -0.280778
   48  C  7  S    0.017812   0.006619  -0.008478  -0.004917  -0.000468
   49  C  7  S   -0.012158  -0.005324   0.009277   0.002497   0.000332
   50  C  7  X    0.176398  -0.017140   0.076590  -0.044689   0.015579
   51  C  7  Y    0.067672  -0.033517  -0.010604  -0.021188   0.034372
   52  C  7  Z   -0.084684  -0.062122  -0.018974   0.016789   0.038125
   53  C  7  S   -0.119607  -0.026803   0.011994   0.033392   0.000780
   54  C  7  X    0.135909  -0.010670   0.052196  -0.042103   0.016253
   55  C  7  Y    0.075696  -0.033446   0.002883  -0.025984   0.036099
   56  C  7  Z   -0.083649  -0.056997  -0.022623   0.019798   0.038156
   57  N  8  S   -0.001606  -0.001022   0.010220  -0.007209   0.000874
   58  N  8  S    0.004111   0.002023  -0.008427   0.003034  -0.000930
   59  N  8  X   -0.156516  -0.000483  -0.080192   0.058855   0.078335
   60  N  8  Y   -0.074577  -0.011572  -0.039074   0.070398   0.233159
   61  N  8  Z    0.133934   0.023856   0.043357  -0.046970   0.270693
   62  N  8  S   -0.006797  -0.004573  -0.036331   0.046795  -0.002152
   63  N  8  X   -0.160925   0.010707  -0.104827   0.058725   0.092426
   64  N  8  Y   -0.087987  -0.017561  -0.036393   0.096648   0.276733
   65  N  8  Z    0.148601   0.035767   0.041932  -0.060622   0.320835
   66  H  9  S   -0.013547  -0.023811  -0.100913   0.180621  -0.014746
   67  H  9  S   -0.010934  -0.024585  -0.112791   0.179445  -0.017286
   68  H 10  S    0.028646  -0.097380  -0.083831  -0.137316   0.041960
   69  H 10  S    0.024070  -0.096729  -0.092355  -0.137646   0.027846
   70  H 11  S   -0.042956  -0.008037  -0.013052   0.016550  -0.000267
   71  H 11  S   -0.027379  -0.014610   0.000351   0.025530   0.000868
   72  H 12  S    0.059525   0.028060  -0.023098  -0.030916  -0.000221
   73  H 12  S    0.045535   0.025045  -0.023771  -0.026996  -0.000498
   74  H 13  S   -0.146181  -0.014790  -0.031381   0.041378  -0.001799
   75  H 13  S   -0.098463  -0.009814  -0.025378   0.029131  -0.000861
   76  H 14  S   -0.025514  -0.054986   0.192991   0.028540   0.024723
   77  H 14  S   -0.025619  -0.058080   0.189825   0.033704   0.039881
   78  H 15  S   -0.053474  -0.142044  -0.096490  -0.129944   0.019298
   79  H 15  S   -0.043489  -0.143495  -0.097498  -0.127910   0.023511
   80  H 16  S    0.042399   0.019271  -0.004186  -0.031626   0.000932
   81  H 16  S    0.040800   0.018720  -0.012875  -0.023657  -0.002046

                     26         27         28         29         30
                   -0.3403    -0.1440     0.2259     0.2576     0.2885
                     A          A          A          A          A   
    1  C  1  S    0.016539   0.006376  -0.072099   0.053637  -0.052493
    2  C  1  S   -0.011302   0.001466   0.029489  -0.011154   0.014021
    3  C  1  X    0.058097   0.009843  -0.026138  -0.020715   0.055128
    4  C  1  Y    0.013169  -0.004768  -0.006128   0.050713   0.015758
    5  C  1  Z    0.051474   0.020133  -0.057583  -0.078514   0.068195
    6  C  1  S   -0.091498  -0.065581   0.829082  -0.761486   0.778142
    7  C  1  X    0.053176   0.053061   0.066610  -0.074396   0.203313
    8  C  1  Y    0.009093  -0.019066   0.036328   0.238056   0.077266
    9  C  1  Z    0.055638   0.037174  -0.181611  -0.408893   0.392979
   10  H  2  S   -0.000051   0.009210   0.016561  -0.003613  -0.005119
   11  H  2  S    0.008136  -0.012100  -0.128649   0.744460  -0.472844
   12  C  3  S    0.001430  -0.000412  -0.016973   0.031296  -0.084438
   13  C  3  S   -0.001269  -0.002578   0.002763  -0.005055   0.026344
   14  C  3  X   -0.019484  -0.001251   0.005006  -0.044861  -0.021815
   15  C  3  Y   -0.048990  -0.003347  -0.031125   0.001475   0.016370
   16  C  3  Z   -0.053569  -0.005880  -0.046729   0.046007  -0.055695
   17  C  3  S   -0.004595   0.014783   0.274021  -0.501773   1.170431
   18  C  3  X   -0.003090   0.004420  -0.135980  -0.169713  -0.035483
   19  C  3  Y   -0.045253   0.032115  -0.191803  -0.122001   0.054138
   20  C  3  Z   -0.049318   0.040517  -0.250206   0.286299  -0.259968
   21  C  4  S   -0.000346   0.000527   0.001000  -0.002062   0.015110
   22  C  4  S   -0.001042  -0.000287   0.005293   0.008365   0.001525
   23  C  4  X    0.053141   0.018969  -0.068320  -0.048961  -0.010293
   24  C  4  Y    0.149734   0.058104  -0.197824  -0.086724   0.067410
   25  C  4  Z    0.170067   0.066084  -0.233440  -0.037151   0.059753
   26  C  4  S    0.007363  -0.010459  -0.038382  -0.160078  -0.074741
   27  C  4  X    0.073810   0.018488  -0.239754   0.002541  -0.237267
   28  C  4  Y    0.172391   0.066695  -0.407393  -0.133829   0.205290
   29  C  4  Z    0.198335   0.084439  -0.456772  -0.187087   0.165245
   30  C  5  S   -0.000169  -0.000188  -0.003455   0.029356   0.005926
   31  C  5  S   -0.000051  -0.000090   0.004674  -0.017949   0.018415
   32  C  5  X    0.070802   0.040966   0.060218   0.002813  -0.051516
   33  C  5  Y    0.201426   0.115973   0.174544   0.000865  -0.074702
   34  C  5  Z    0.228735   0.132319   0.192712   0.084722   0.019054
   35  C  5  S    0.005544   0.002831   0.004364  -0.330351  -0.336500
   36  C  5  X    0.084414   0.067690   0.130892   0.010130  -0.254792
   37  C  5  Y    0.237416   0.182445   0.424517  -0.109544  -0.120071
   38  C  5  Z    0.276183   0.206703   0.395272   0.323133  -0.004759
   39  N  6  S    0.000017   0.000015  -0.002224   0.037795   0.078628
   40  N  6  S    0.000140  -0.000114   0.000090  -0.015533  -0.028215
   41  N  6  X   -0.015620  -0.065930  -0.024816   0.045590   0.099914
   42  N  6  Y   -0.044679  -0.188071  -0.062457  -0.034994  -0.059856
   43  N  6  Z   -0.050671  -0.213262  -0.068903  -0.013237   0.043093
   44  N  6  S   -0.001801   0.001068   0.029546  -0.359776  -0.809402
   45  N  6  X   -0.019683  -0.113523  -0.046282   0.161951   0.376197
   46  N  6  Y   -0.054563  -0.324872  -0.124216  -0.130712  -0.235981
   47  N  6  Z   -0.061558  -0.369381  -0.140394  -0.003092   0.144156
   48  C  7  S   -0.000068   0.000150   0.002631   0.001384   0.028024
   49  C  7  S   -0.000045  -0.000103  -0.001902   0.011377  -0.005787
   50  C  7  X   -0.068558   0.087125  -0.015208   0.074683   0.006995
   51  C  7  Y   -0.195709   0.249325  -0.008095   0.013024   0.064072
   52  C  7  Z   -0.222197   0.283080  -0.009223  -0.038854  -0.054840
   53  C  7  S   -0.000713  -0.001780  -0.008702  -0.207317  -0.500654
   54  C  7  X   -0.079376   0.134539  -0.036548   0.139861  -0.016911
   55  C  7  Y   -0.226800   0.388583  -0.019510  -0.011484   0.149036
   56  C  7  Z   -0.259238   0.441806  -0.018698  -0.045301  -0.113393
   57  N  8  S    0.000151  -0.000055  -0.013159   0.082081  -0.003072
   58  N  8  S    0.000009   0.000501   0.007527  -0.042223   0.000897
   59  N  8  X    0.005622  -0.057187   0.043077  -0.062311  -0.003360
   60  N  8  Y    0.016067  -0.164568   0.077548   0.097048  -0.024215
   61  N  8  Z    0.018755  -0.186697   0.104299  -0.020839  -0.016904
   62  N  8  S   -0.000717  -0.002195   0.110557  -0.727308   0.054102
   63  N  8  X    0.007361  -0.102090   0.086231  -0.169123  -0.096478
   64  N  8  Y    0.028850  -0.286012   0.125971   0.374535  -0.062025
   65  N  8  Z    0.032979  -0.323800   0.231829  -0.172693  -0.009248
   66  H  9  S   -0.002073   0.001164  -0.000824   0.014294  -0.001282
   67  H  9  S   -0.003383   0.003599  -0.128747   0.480698  -0.690918
   68  H 10  S    0.062014   0.015294  -0.068858  -0.031595   0.023269
   69  H 10  S    0.086688   0.075338  -0.543916   0.179737  -0.422610
   70  H 11  S    0.000072  -0.000170  -0.000710   0.020371   0.027070
   71  H 11  S    0.001617  -0.000380  -0.060630   0.519614   0.317244
   72  H 12  S    0.000006   0.000111  -0.004258   0.051120   0.053845
   73  H 12  S   -0.000082   0.000436  -0.028143   0.527666   1.020125
   74  H 13  S   -0.000017  -0.000044   0.000953   0.001186   0.008764
   75  H 13  S    0.000591  -0.000279  -0.015722   0.263890   0.441927
   76  H 14  S    0.022911   0.000927  -0.030876   0.007021   0.012222
   77  H 14  S    0.040466  -0.008225  -0.489032   0.269161  -0.375220
   78  H 15  S    0.008083  -0.000123   0.017523   0.000360  -0.012039
   79  H 15  S    0.038369   0.030079  -0.213434   0.194084  -0.507094
   80  H 16  S    0.000358  -0.000354  -0.000458   0.048375   0.058142
   81  H 16  S    0.000200   0.002637  -0.134530   0.980171   0.077511

                     31         32         33         34         35
                    0.3077     0.3267     0.3351     0.3403     0.3526
                     A          A          A          A          A   
    1  C  1  S   -0.024861  -0.089379  -0.015576   0.067463   0.024740
    2  C  1  S    0.001891   0.018694   0.002397  -0.011595  -0.004067
    3  C  1  X   -0.059139   0.006879  -0.110304   0.022438  -0.212618
    4  C  1  Y   -0.116894   0.057250   0.038903  -0.131677   0.039570
    5  C  1  Z    0.067648   0.008391  -0.012004  -0.091438   0.093856
    6  C  1  S    0.344378   1.250579   0.152202  -1.007452  -0.353562
    7  C  1  X   -0.240621   0.028778  -0.449256   0.235609  -1.067071
    8  C  1  Y   -0.460450   0.153149   0.056093  -0.699344   0.248085
    9  C  1  Z    0.213859  -0.043909  -0.144813  -0.392532   0.529701
   10  H  2  S   -0.038004   0.010620   0.024919   0.006247  -0.022588
   11  H  2  S   -0.901788  -0.275976   0.082310   0.209444  -0.319164
   12  C  3  S    0.056275   0.052033   0.080878  -0.012603  -0.032344
   13  C  3  S   -0.009956  -0.007355  -0.020553   0.000234   0.013041
   14  C  3  X   -0.046328  -0.050969  -0.060358   0.011584  -0.013800
   15  C  3  Y   -0.135122   0.091521   0.149868   0.024726  -0.045351
   16  C  3  Z    0.098856   0.013745   0.032884  -0.019519  -0.029179
   17  C  3  S   -0.840484  -0.760523  -1.104328   0.164504   0.449409
   18  C  3  X   -0.204416  -0.370094  -0.300735   0.036474   0.155382
   19  C  3  Y   -0.547192   0.445068   0.715428   0.270348  -0.258591
   20  C  3  Z    0.366189   0.006171   0.047856  -0.042804  -0.362274
   21  C  4  S    0.014739   0.011781   0.019874   0.020811   0.026656
   22  C  4  S   -0.005314   0.006363  -0.049024  -0.023744  -0.030032
   23  C  4  X   -0.015063  -0.017166   0.021952   0.058205  -0.037556
   24  C  4  Y   -0.026583   0.054363  -0.014212   0.019451  -0.030582
   25  C  4  Z    0.011071  -0.002342  -0.092191  -0.093599  -0.031099
   26  C  4  S   -0.306912  -0.338051   0.084671  -0.072810  -0.052942
   27  C  4  X    0.116238   0.031961  -0.147140   0.035024  -0.024110
   28  C  4  Y   -0.064522   0.088391  -0.184788   0.089903  -0.111571
   29  C  4  Z    0.019992  -0.097030  -0.129393  -0.191974   0.048410
   30  C  5  S    0.029033   0.066767  -0.034351   0.010620  -0.031023
   31  C  5  S   -0.016742  -0.041419   0.017751  -0.008283   0.018888
   32  C  5  X    0.028496   0.040424  -0.046198   0.011193   0.037809
   33  C  5  Y   -0.088720  -0.020172   0.066578   0.041199   0.067726
   34  C  5  Z    0.080730   0.001324   0.014591  -0.039351  -0.021799
   35  C  5  S   -0.394368  -0.638895   0.317331  -0.090238   0.478096
   36  C  5  X    0.243474   0.204577  -0.001469   0.143493   0.070883
   37  C  5  Y   -0.436970  -0.247735   0.413445   0.229332   0.243670
   38  C  5  Z    0.326079   0.137127  -0.173333  -0.184952  -0.161374
   39  N  6  S   -0.001947  -0.075432   0.062790  -0.014820  -0.015455
   40  N  6  S    0.003704   0.036747  -0.025082   0.015644   0.008054
   41  N  6  X    0.068976  -0.013529   0.074756   0.055095  -0.045432
   42  N  6  Y   -0.030999   0.025692  -0.036542  -0.023565  -0.018159
   43  N  6  Z    0.001955  -0.014636  -0.007740   0.003003   0.011836
   44  N  6  S   -0.021446   0.707470  -0.642963   0.059555   0.141052
   45  N  6  X    0.185228  -0.145865   0.324772   0.141648  -0.157254
   46  N  6  Y   -0.061491   0.131399  -0.097555  -0.020708  -0.028356
   47  N  6  Z   -0.008482  -0.062398  -0.060122  -0.038335   0.045599
   48  C  7  S    0.014032   0.071289  -0.026499   0.073359   0.049221
   49  C  7  S   -0.008302  -0.034615   0.012193  -0.033466  -0.024230
   50  C  7  X    0.017659   0.056099  -0.042610   0.056873   0.055836
   51  C  7  Y   -0.018400   0.015638   0.028937   0.068166   0.039298
   52  C  7  Z    0.008305  -0.033775  -0.015283  -0.081819  -0.043499
   53  C  7  S   -0.107708  -0.810544   0.308795  -0.929906  -0.677342
   54  C  7  X    0.088008   0.351069  -0.215924   0.342280   0.290857
   55  C  7  Y   -0.057906   0.128907   0.137504   0.379243   0.212983
   56  C  7  Z    0.020801  -0.226495  -0.072510  -0.446652  -0.272451
   57  N  8  S   -0.013668  -0.015595  -0.040641  -0.061939  -0.003660
   58  N  8  S   -0.003533   0.014097   0.017600   0.036093   0.011939
   59  N  8  X    0.025389  -0.015882   0.054931   0.010875  -0.045684
   60  N  8  Y   -0.068705   0.050142  -0.015105   0.010670   0.022418
   61  N  8  Z    0.063307  -0.027031   0.045279   0.004854  -0.017448
   62  N  8  S    0.223579   0.078147   0.393525   0.533971  -0.076177
   63  N  8  X    0.130340  -0.029685   0.131339   0.060368  -0.109073
   64  N  8  Y   -0.206319   0.124608  -0.130351  -0.055104   0.026168
   65  N  8  Z    0.150642  -0.095807   0.183884   0.066036   0.025425
   66  H  9  S    0.042415  -0.037928  -0.030187  -0.035713   0.011947
   67  H  9  S    1.275273  -0.060924  -0.065317  -0.369576  -0.185040
   68  H 10  S   -0.023819   0.046902   0.022876  -0.008860  -0.013330
   69  H 10  S   -0.147467   0.932268   1.328716   0.066993  -0.574375
   70  H 11  S   -0.012101   0.021802  -0.040333  -0.006768   0.016954
   71  H 11  S    0.810124   0.652573  -0.631418  -0.278545  -0.555218
   72  H 12  S    0.018026  -0.018336   0.007780  -0.005619   0.000365
   73  H 12  S    0.349795  -0.557217   0.699007   0.146828  -0.222693
   74  H 13  S    0.007793   0.047295  -0.009232   0.041257   0.012306
   75  H 13  S    0.099812   0.966938  -0.230364   1.272182   0.860770
   76  H 14  S    0.016215   0.010429   0.009124  -0.036535   0.055746
   77  H 14  S    0.267364  -0.468211   0.462069  -0.090881   1.582478
   78  H 15  S    0.019312  -0.019441  -0.022256   0.042328  -0.022919
   79  H 15  S    0.276350  -0.742521  -0.320842   1.379823  -0.584761
   80  H 16  S   -0.011936   0.007890  -0.028328  -0.014391  -0.000372
   81  H 16  S   -0.500287   0.186133  -0.508416  -0.358061   0.129357

                     36         37         38         39         40
                    0.3627     0.3811     0.4288     0.4468     0.4678
                     A          A          A          A          A   
    1  C  1  S    0.055115   0.050091   0.069746   0.005143  -0.030929
    2  C  1  S   -0.009465  -0.008483   0.001264  -0.004319  -0.012502
    3  C  1  X   -0.104043   0.045993   0.056535   0.022904   0.036704
    4  C  1  Y   -0.000478   0.202469  -0.024781  -0.008254  -0.018894
    5  C  1  Z   -0.019837  -0.026863   0.166160   0.077206  -0.040900
    6  C  1  S   -0.823367  -0.712800  -1.066386  -0.065073   0.539943
    7  C  1  X   -0.442433   0.386823   0.816225  -0.016226  -0.244598
    8  C  1  Y   -0.054925   1.154272  -0.123001  -0.140177  -0.026408
    9  C  1  Z    0.035929  -0.072049   1.098947   0.524474  -0.394478
   10  H  2  S    0.023702   0.053313  -0.037259  -0.009615   0.044592
   11  H  2  S    0.269204   1.369078  -0.453676  -0.419450   0.081506
   12  C  3  S   -0.032025  -0.023369  -0.077913   0.028311   0.091394
   13  C  3  S    0.018935   0.005083   0.014100  -0.017263   0.004867
   14  C  3  X    0.023414   0.043573   0.044298   0.188985  -0.003862
   15  C  3  Y    0.091014  -0.092734   0.136092   0.083839  -0.001182
   16  C  3  Z   -0.067256   0.086549   0.225244  -0.029193  -0.062298
   17  C  3  S    0.370011   0.261005   1.138198  -0.368912  -1.425465
   18  C  3  X    0.283406   0.285345   0.297567   1.078935   0.512488
   19  C  3  Y    0.444451  -0.476378   0.712507   0.414320  -0.045529
   20  C  3  Z   -0.400676   0.488560   1.318840  -0.197902  -0.616638
   21  C  4  S   -0.033786   0.019014   0.004521  -0.052994  -0.129269
   22  C  4  S    0.017961   0.009445   0.018930   0.021510   0.023189
   23  C  4  X   -0.072793   0.049033  -0.094531   0.126511   0.057296
   24  C  4  Y   -0.004695   0.008968  -0.115019  -0.108120  -0.077139
   25  C  4  Z   -0.061118   0.003804  -0.029109  -0.004642   0.088463
   26  C  4  S    0.333106  -0.336692  -0.104184   0.607790   2.010354
   27  C  4  X    0.071261   0.280202  -0.523203   0.836583   0.385873
   28  C  4  Y   -0.009824  -0.130570  -0.449723  -0.449494  -0.339516
   29  C  4  Z   -0.187367   0.032790  -0.151815  -0.054639   0.362707
   30  C  5  S    0.079922  -0.011008  -0.036428   0.022633  -0.026685
   31  C  5  S   -0.038935   0.012627   0.027362  -0.029142  -0.009779
   32  C  5  X   -0.016552   0.070173  -0.027775   0.131740  -0.138289
   33  C  5  Y   -0.100852  -0.050458  -0.005927   0.055925   0.016330
   34  C  5  Z    0.129181   0.017034   0.054008  -0.069850   0.022868
   35  C  5  S   -1.062254   0.183430   0.352010   0.159220   0.555966
   36  C  5  X   -0.251039   0.327047  -0.233490   0.598885  -0.973666
   37  C  5  Y   -0.589593  -0.261947   0.123099   0.045613  -0.003212
   38  C  5  Z    0.711653   0.112679   0.282368  -0.131803   0.225410
   39  N  6  S   -0.017353  -0.018904   0.011902  -0.057534   0.023423
   40  N  6  S    0.020550   0.013991  -0.006203   0.014313   0.007057
   41  N  6  X    0.000526   0.043959  -0.091891   0.125402  -0.094428
   42  N  6  Y    0.000600  -0.030810  -0.027224  -0.057243  -0.104362
   43  N  6  Z   -0.012685   0.015567   0.046241   0.007264   0.121353
   44  N  6  S    0.058828   0.126736  -0.107350   0.733898  -0.396897
   45  N  6  X   -0.120252   0.092472  -0.323099   0.396387  -0.512631
   46  N  6  Y    0.009434  -0.056371  -0.144239  -0.246211  -0.390427
   47  N  6  Z   -0.001722   0.025171   0.166954   0.075681   0.515968
   48  C  7  S   -0.002833   0.032056   0.031188  -0.029870   0.051604
   49  C  7  S   -0.005491  -0.013045  -0.014961   0.014467  -0.029588
   50  C  7  X   -0.068286   0.047106  -0.015496   0.143093   0.032125
   51  C  7  Y   -0.038181  -0.012531   0.000159  -0.072025   0.016508
   52  C  7  Z    0.057519   0.001601  -0.001493   0.019240  -0.024419
   53  C  7  S    0.196835  -0.348358  -0.452785   0.300578  -0.915740
   54  C  7  X   -0.199137   0.212511  -0.113659   0.962258   0.256136
   55  C  7  Y   -0.185811   0.043456  -0.019451  -0.617888  -0.045970
   56  C  7  Z    0.219634  -0.099041   0.013302   0.235771  -0.030171
   57  N  8  S   -0.016269  -0.044545   0.007655   0.077613   0.046812
   58  N  8  S   -0.002415   0.016214  -0.000242  -0.021989  -0.012580
   59  N  8  X    0.029751   0.020739  -0.046964   0.124062  -0.117173
   60  N  8  Y   -0.058236  -0.093209   0.034964  -0.011688  -0.117435
   61  N  8  Z    0.053311   0.056752   0.093085   0.001008   0.116167
   62  N  8  S    0.260656   0.491352  -0.092874  -0.970503  -0.557539
   63  N  8  X    0.067465   0.167455  -0.213272   0.459215  -0.450955
   64  N  8  Y   -0.135874  -0.280667   0.008065  -0.012556  -0.441034
   65  N  8  Z    0.151600   0.184465   0.260189  -0.073983   0.482031
   66  H  9  S   -0.049500  -0.018581   0.073265  -0.006521   0.016413
   67  H  9  S   -0.935396   0.500390   0.074353  -0.526680   0.127102
   68  H 10  S    0.009649   0.031802   0.007886  -0.035095  -0.055856
   69  H 10  S    0.089807  -0.384561   0.743639   0.220688   0.095063
   70  H 11  S    0.032789  -0.000752   0.026307   0.032964   0.025848
   71  H 11  S    1.574327   0.195426  -0.043634  -0.182741  -0.046818
   72  H 12  S   -0.018453   0.006907   0.000173   0.047290  -0.037405
   73  H 12  S   -0.180809   0.147868  -0.238812   0.475618  -0.132540
   74  H 13  S    0.007677   0.014930  -0.016126  -0.006552  -0.069114
   75  H 13  S   -0.485425   0.438573   0.139732   0.060191   0.606125
   76  H 14  S   -0.000475  -0.035206  -0.045655  -0.030212  -0.002000
   77  H 14  S    0.793262  -0.132579  -0.001271   0.068938  -0.241577
   78  H 15  S   -0.008697  -0.043863  -0.029780   0.002628   0.000861
   79  H 15  S    0.221295  -0.821056   0.131728  -0.060614   0.009190
   80  H 16  S   -0.001553  -0.061053   0.016614  -0.039080  -0.029515
   81  H 16  S   -0.408508  -0.824664   0.037656  -0.002741  -0.250363

                     41         42         43         44         45
                    0.5039     0.6117     0.6374     0.7284     0.9041
                     A          A          A          A          A   
    1  C  1  S    0.005642   0.001332  -0.005821  -0.006135  -0.000505
    2  C  1  S    0.004256   0.000097  -0.018807   0.012537   0.007933
    3  C  1  X   -0.002756   0.003087   0.097274  -0.005523  -0.074884
    4  C  1  Y    0.026337   0.003334  -0.002762   0.046269  -0.393689
    5  C  1  Z    0.095870  -0.026383  -0.003770   0.064171   0.076339
    6  C  1  S   -0.178583  -0.096520   0.294076   0.020581   0.021655
    7  C  1  X   -0.003995   0.065255  -0.132868  -0.085484   0.093077
    8  C  1  Y    0.247381   0.093683  -0.260713  -0.060795   0.593037
    9  C  1  Z    0.600046  -0.061857  -0.097214   0.077754  -0.114203
   10  H  2  S   -0.000999  -0.015979  -0.028837  -0.019115   0.386928
   11  H  2  S   -0.223152   0.145746  -0.138445  -0.119919  -0.080391
   12  C  3  S    0.056244  -0.021847   0.009568   0.022419  -0.002031
   13  C  3  S    0.005259  -0.009010   0.024408   0.064752  -0.019470
   14  C  3  X    0.156609  -0.032551   0.003663  -0.150582   0.089966
   15  C  3  Y   -0.057184   0.012651   0.096034   0.050993  -0.283934
   16  C  3  Z    0.066137  -0.010434  -0.069606  -0.006121   0.090745
   17  C  3  S   -1.042469   0.546091  -0.551878  -1.396826   0.170488
   18  C  3  X    1.554276  -0.564314   0.313933   1.143858  -0.121165
   19  C  3  Y   -0.398049  -0.245489   0.547986  -0.216839   0.443817
   20  C  3  Z    0.212778   0.393037  -0.691346  -0.161377  -0.137721
   21  C  4  S   -0.095848   0.010947   0.057198   0.105450  -0.002277
   22  C  4  S    0.030672  -0.045456  -0.048757  -0.009250  -0.049627
   23  C  4  X    0.143047  -0.116779   0.105951   0.227643   0.106864
   24  C  4  Y    0.095909   0.136234  -0.117762   0.092390  -0.308240
   25  C  4  Z   -0.175284  -0.073257   0.071458  -0.163962   0.119431
   26  C  4  S    1.743232   0.391700  -1.581163  -1.870419  -0.414444
   27  C  4  X    1.017714  -1.102850   1.645210   2.812470  -0.041205
[...]
    6             0.000019   0.993594  -0.000043   0.000006   0.000244
    7             0.002890   0.003054   0.000365   0.000004   0.000427
    8             0.993052   0.000023  -0.000199   0.000004  -0.000052
    9            -0.000000  -0.000000  -0.000015   0.001499   0.000010
   10             0.000001   0.000000   0.000036   0.001460   0.000001
   11            -0.000001   0.000054  -0.000001  -0.000004   0.000770
   12            -0.000000   0.000359   0.000000  -0.000000  -0.000001
   13             0.000040   0.000044   0.000001  -0.000000  -0.000001
   14            -0.000000  -0.000000  -0.000001  -0.000006   0.000000
   15             0.000000   0.000000   0.000001   0.000005  -0.000000
   16             0.000371   0.000001  -0.000010   0.000002   0.000000

                      6          7          8          9         10

                  1.000000   1.000000   1.000000   1.000000   1.000000

    1             0.993771   0.000001  -0.000187   0.007364   0.211884
    2             0.001421  -0.000000   0.000177   0.000676   0.009031
    3             0.001847   0.000012   0.004490   0.022528   0.436685
    4             0.000115   0.000386   0.108208   0.058811   0.101933
    5             0.000003   0.000139   0.080077   0.031817   0.037245
    6             0.000000  -0.000146   0.349549   0.435217   0.009494
    7             0.000002   0.998762   0.023151   0.040900   0.031681
    8            -0.000002  -0.000349   0.415162   0.330464   0.098925
    9             0.000009  -0.000000   0.000270   0.001221   0.017740
   10             0.000013   0.000000  -0.000438   0.000417   0.014088
   11             0.000000   0.000002  -0.000343  -0.002765   0.002230
   12            -0.000000  -0.000001   0.012792   0.040432   0.000266
   13            -0.000000   0.001199  -0.008583  -0.000007   0.002461
   14             0.001390   0.000000   0.000001   0.000093   0.007825
   15             0.001431   0.000000  -0.000089  -0.000010   0.009589
   16            -0.000001  -0.000005   0.015761   0.032842   0.008921

                     11         12         13         14         15

                  1.000000   1.000000   1.000000   1.000000   1.000000

    1             0.233272   0.300193   0.001166   0.011471   0.033049
    2             0.017310   0.039814   0.000896   0.003712   0.004939
    3             0.044624   0.239611   0.008530   0.066271   0.121020
    4             0.202197   0.084022   0.039595   0.115412   0.119226
    5             0.203879   0.069110   0.057995   0.219193   0.107207
    6             0.080443   0.069744   0.277231   0.065759   0.179694
    7             0.074085   0.022722   0.128986   0.083812   0.177326
    8             0.059843   0.004706   0.287320   0.258689   0.028994
    9             0.000972   0.029161   0.002716   0.024452   0.010735
   10             0.002560   0.033314   0.000027   0.006789   0.040157
   11             0.018922   0.009735   0.008270   0.098372   0.017798
   12             0.008281   0.010771   0.076047   0.005692   0.026884
   13             0.012248   0.006363   0.021203   0.019958   0.117620
   14             0.019926   0.041408   0.000080   0.000006   0.000352
   15             0.014831   0.039046   0.000039   0.001225   0.010459
   16             0.006605   0.000281   0.089900   0.019186   0.004542

                     16         17         18         19         20

                  1.000000   1.000000   1.000000   1.000000   1.000000

    1             0.183357   0.060396   0.189400   0.044409   0.131051
    2             0.066709   0.000096   0.005877   0.022358   0.040637
    3             0.282112   0.061399   0.127361   0.008391   0.101329
    4             0.031013   0.041847   0.134959   0.047830   0.146367
    5             0.028626   0.025802   0.102711   0.279677   0.055018
    6             0.051887   0.256341   0.040619   0.163664   0.068573
    7             0.045011   0.053806   0.043954   0.114701   0.166676
    8             0.031802   0.229281   0.135424   0.075142   0.150899
    9             0.087605   0.000400   0.022243   0.003117   0.000030
   10             0.075548   0.023029   0.010607   0.000722   0.000637
   11             0.012330   0.012579   0.023667   0.186608   0.000782
   12             0.027478   0.103023  -0.000003   0.008544   0.001887
   13             0.025835   0.002402   0.001637   0.033235   0.114166
   14             0.000176   0.024750   0.104709   0.009817   0.007634
   15             0.048298   0.012298   0.007461   0.000648   0.013723
   16             0.002216   0.092552   0.049373   0.001138   0.000590

                     21         22         23         24         25

                  1.000000   1.000000   1.000000   1.000000   1.000000

    1             0.156118   0.271049   0.245212   0.188681   0.005128
    2             0.039862   0.000971   0.038250   0.110239   0.000272
    3             0.010608   0.252072   0.182152   0.241238   0.005492
    4             0.135941   0.066289   0.147927   0.025136   0.049477
    5             0.109949   0.053833   0.010818   0.032221   0.075644
    6             0.135754   0.127595   0.019054   0.023303   0.463335
    7             0.109834   0.051854   0.020093   0.014762   0.000765
    8             0.145065   0.078991   0.041127   0.040864   0.393553
    9            -0.000001   0.003223   0.045716   0.138239   0.000086
   10            -0.000005   0.018065   0.051969   0.092722   0.003796
   11             0.000008   0.000083   0.001054   0.001565  -0.000001
   12             0.009919   0.003342   0.001656   0.002930   0.000000
   13             0.065293   0.000915   0.005472   0.010655  -0.000000
   14             0.000080   0.050468   0.127438   0.000348   0.002064
   15             0.075928   0.019317   0.061709   0.073946   0.000387
   16             0.005645   0.001932   0.000352   0.003152   0.000002

                     26

                  1.000000

    1             0.021092
    2             0.000059
    3             0.005702
    4             0.359314
    5             0.253305
    6             0.066437
    7             0.161827
    8             0.108904
    9            -0.000003
   10             0.019056
   11             0.000000
   12             0.000000
   13             0.000000
   14             0.002605
   15             0.001699
   16             0.000002

     ATOMIC SPIN POPULATION (ALPHA MINUS BETA)
       ATOM         MULL.POP.                    LOW.POP.
    1 C            -0.014290                    -0.012391
    2 H             0.001423                     0.000946
    3 C             0.051478                     0.025885
    4 C            -0.370188                    -0.260990
    5 C             0.304558                     0.222711
    6 N             0.171328                     0.218134
    7 C             0.900855                     0.763448
    8 N             0.133901                     0.154251
    9 H            -0.003728                    -0.002480
   10 H            -0.012865                    -0.010556
   11 H            -0.025058                    -0.015044
   12 H            -0.025216                    -0.017383
   13 H            -0.094804                    -0.054645
   14 H            -0.000805                    -0.000403
   15 H             0.001143                     0.000823
   16 H            -0.017731                    -0.012306


          ********* ALL ELECTRONS ********

               ----- POPULATIONS IN EACH AO -----
                             MULLIKEN      LOWDIN
              1  C  1  S      1.98818     1.97649
              2  C  1  S      0.35184     0.41497
              3  C  1  X      0.53358     0.50704
              4  C  1  Y      0.54496     0.51205
              5  C  1  Z      0.52631     0.49976
              6  C  1  S      1.11803     0.58521
              7  C  1  X      0.48720     0.57539
              8  C  1  Y      0.56262     0.60780
              9  C  1  Z      0.45354     0.57247
             10  H  2  S      0.46843     0.47037
             11  H  2  S      0.33961     0.44562
             12  C  3  S      1.98955     1.97600
             13  C  3  S      0.34322     0.40501
             14  C  3  X      0.52459     0.50657
             15  C  3  Y      0.55159     0.52023
             16  C  3  Z      0.53589     0.51021
             17  C  3  S      1.16959     0.55661
             18  C  3  X      0.30119     0.51909
             19  C  3  Y      0.58493     0.59218
             20  C  3  Z      0.48206     0.56804
             21  C  4  S      1.98739     1.97588
             22  C  4  S      0.39628     0.41022
             23  C  4  X      0.59652     0.58200
             24  C  4  Y      0.50418     0.48908
             25  C  4  Z      0.47753     0.46502
             26  C  4  S      0.69704     0.51164
             27  C  4  X      0.30159     0.49097
             28  C  4  Y      0.34683     0.51176
             29  C  4  Z      0.36851     0.52128
             30  C  5  S      1.98691     1.97597
             31  C  5  S      0.39291     0.40839
             32  C  5  X      0.52156     0.50659
             33  C  5  Y      0.55002     0.53138
             34  C  5  Z      0.51783     0.50402
             35  C  5  S      0.74525     0.53714
             36  C  5  X      0.18332     0.43078
             37  C  5  Y      0.53537     0.59042
             38  C  5  Z      0.54091     0.59848
             39  N  6  S      1.98791     1.97710
             40  N  6  S      0.34909     0.45068
             41  N  6  X      0.56982     0.55659
             42  N  6  Y      0.65635     0.65665
             43  N  6  Z      0.67572     0.68069
             44  N  6  S      1.34919     0.69538
             45  N  6  X      0.72475     0.66897
             46  N  6  Y      0.79405     0.77736
             47  N  6  Z      0.81918     0.81467
             48  C  7  S      1.98536     1.97468
             49  C  7  S      0.38340     0.39427
             50  C  7  X      0.52004     0.50744
             51  C  7  Y      0.54718     0.54465
             52  C  7  Z      0.57115     0.56756
             53  C  7  S      0.59961     0.52540
             54  C  7  X      0.19027     0.43778
             55  C  7  Y      0.37391     0.53433
             56  C  7  Z      0.47283     0.59452
             57  N  8  S      1.98822     1.97724
             58  N  8  S      0.34892     0.45426
             59  N  8  X      0.58839     0.57607
             60  N  8  Y      0.64066     0.64023
             61  N  8  Z      0.66137     0.66529
             62  N  8  S      1.37118     0.69592
             63  N  8  X      0.66887     0.66738
             64  N  8  Y      0.83501     0.77912
             65  N  8  Z      0.84654     0.81479
             66  H  9  S      0.46671     0.47561
             67  H  9  S      0.30841     0.42700
             68  H 10  S      0.46410     0.47567
             69  H 10  S      0.31218     0.43193
             70  H 11  S      0.47170     0.46446
             71  H 11  S      0.28667     0.43423
             72  H 12  S      0.43015     0.44007
             73  H 12  S      0.22524     0.34709
             74  H 13  S      0.46601     0.45897
             75  H 13  S      0.30350     0.44792
             76  H 14  S      0.46931     0.47191
             77  H 14  S      0.33221     0.44211
             78  H 15  S      0.46600     0.46782
             79  H 15  S      0.31903     0.43609
             80  H 16  S      0.43021     0.44061
             81  H 16  S      0.22276     0.34736

          ----- MULLIKEN ATOMIC OVERLAP POPULATIONS -----
          (OFF-DIAGONAL ELEMENTS NEED TO BE MULTIPLIED BY 2)

             1           2           3           4           5

    1    5.3727976
    2    0.3768774   0.5232163
    3    0.2552564  -0.0418658   5.4205049
    4   -0.1014733  -0.0023153   0.2250569   5.0335415
    5   -0.0018531   0.0000026  -0.0336858   0.6191944   4.9902384
    6   -0.0000004   0.0000021   0.0024899  -0.0621333   0.1939351
    7   -0.0000689  -0.0000615   0.0024664  -0.1054239  -0.0880116
    8    0.0016946   0.0017408  -0.0457249   0.2188010  -0.0786256
    9   -0.0374436   0.0026212   0.3919129  -0.0509777  -0.0018015
   10   -0.0475326  -0.0014680   0.3885829  -0.0592866  -0.0003293
   11   -0.0000635   0.0000005   0.0000910  -0.0264472   0.3883243
   12    0.0000010  -0.0000000  -0.0000504   0.0024714  -0.0182808
   13    0.0000001   0.0000007  -0.0000302   0.0018440   0.0020001
   14    0.3737643  -0.0270982  -0.0413304   0.0047937  -0.0000010
   15    0.3737051  -0.0246552  -0.0406638   0.0005519   0.0006519
   16    0.0005977   0.0010436  -0.0004049  -0.0223466   0.0023330

             6           7           8           9          10

    6    7.4121563
    7    0.1542253   5.1528833
    8   -0.0675220   0.1735383   7.4203183
    9    0.0000225  -0.0001001   0.0018505   0.4946723
   10   -0.0000061  -0.0000234   0.0001531  -0.0230071   0.5167402
   11   -0.0275343   0.0024980   0.0024037   0.0005908  -0.0000311
   12    0.3480652  -0.0215533   0.0025006  -0.0000005   0.0000008
   13   -0.0300574   0.3934472  -0.0294973   0.0000005   0.0000000
   14    0.0000001  -0.0000004   0.0000262  -0.0018877  -0.0007752
   15   -0.0000134   0.0000106  -0.0002741  -0.0013525   0.0028729
   16    0.0024323  -0.0200774   0.3477796   0.0000206   0.0003880

            11          12          13          14          15

   11    0.4192043
   12   -0.0005901   0.3435914
   13   -0.0000217  -0.0007229   0.4332557
   14    0.0000015  -0.0000000   0.0000000   0.5183528
   15    0.0000007   0.0000001   0.0000001  -0.0243130   0.4985088
   16   -0.0000535  -0.0000504  -0.0007137  -0.0000105  -0.0000025

            16

   16    0.3420347

          TOTAL MULLIKEN AND LOWDIN ATOMIC POPULATIONS
       ATOM         MULL.POP.    CHARGE          LOW.POP.     CHARGE
    1 C             6.566259   -0.566259         6.251187   -0.251187
    2 H             0.808041    0.191959         0.915990    0.084010
    3 C             6.482605   -0.482605         6.153943   -0.153943
    4 C             5.675851    0.324149         5.957842    0.042158
    5 C             5.974091    0.025909         6.083166   -0.083166
    6 N             7.926062   -0.926062         7.278084   -0.278084
    7 C             5.643749    0.356251         6.080625   -0.080625
    8 N             7.949163   -0.949163         7.270298   -0.270298
    9 H             0.775121    0.224879         0.902614    0.097386
   10 H             0.776278    0.223722         0.907599    0.092401
   11 H             0.758373    0.241627         0.898684    0.101316
   12 H             0.655382    0.344618         0.787164    0.212836
   13 H             0.769505    0.230495         0.906898    0.093102
   14 H             0.801522    0.198478         0.914017    0.085983
   15 H             0.785028    0.214972         0.903912    0.096088
   16 H             0.652970    0.347030         0.787977    0.212023

          -------------------------------
          BOND ORDER AND VALENCE ANALYSIS     BOND ORDER THRESHOLD=0.050
          -------------------------------

                   BOND                       BOND                       BOND
  ATOM PAIR DIST  ORDER      ATOM PAIR DIST  ORDER      ATOM PAIR DIST  ORDER
    1   2  1.096  0.930        1   3  1.554  0.906        1  14  1.093  0.929
    1  15  1.094  0.924        3   4  1.498  0.907        3   9  1.094  0.920
    3  10  1.098  0.910        4   5  1.369  1.712        4   6  2.230  0.054
    4   8  1.406  0.853        5   6  1.400  0.871        5   8  2.208  0.069
    5  11  1.074  0.928        6   7  1.344  0.872        6  12  1.018  0.860
    7   8  1.348  0.884        7  13  1.075  0.923        8  16  1.018  0.859

                       TOTAL       BONDED        FREE
      ATOM            VALENCE     VALENCE     VALENCE
    1 C                 3.659       3.659       0.000
    2 H                 0.921       0.921       0.000
    3 C                 3.608       3.607       0.001
    4 C                 3.513       3.449       0.064
    5 C                 3.630       3.576       0.054
    6 N                 2.719       2.670       0.049
    7 C                 3.193       2.644       0.550
    8 N                 2.710       2.685       0.025
    9 H                 0.906       0.906       0.000
   10 H                 0.901       0.901       0.000
   11 H                 0.919       0.918       0.001
   12 H                 0.865       0.865       0.001
   13 H                 0.921       0.912       0.009
   14 H                 0.918       0.918       0.000
   15 H                 0.913       0.913       0.000
   16 H                 0.864       0.864       0.000

          -----------------------------------------
          ATOMIC SPIN DENSITY AT THE NUCLEUS (A.U.)
          -----------------------------------------
                            SPIN DENS    ALPHA DENS     BETA DENS
    1  C            6.0    -0.0122472      46.98228      46.99453
    2  H            1.0     0.0004196       0.18367       0.18325
    3  C            6.0     0.0150457      47.03729      47.02225
    4  C            6.0    -0.0747899      46.92398      46.99877
    5  C            6.0     0.0534253      46.95898      46.90555
    6  N            7.0     0.0680837      76.59732      76.52924
    7  C            6.0     0.1579412      46.92592      46.76798
    8  N            7.0     0.0521538      76.61704      76.56488
    9  H            1.0    -0.0010388       0.18301       0.18405
   10  H            1.0    -0.0048373       0.18014       0.18497
   11  H            1.0    -0.0073936       0.17995       0.18735
   12  H            1.0    -0.0086836       0.16534       0.17402
   13  H            1.0    -0.0268452       0.16780       0.19464
   14  H            1.0    -0.0000430       0.18397       0.18401
   15  H            1.0     0.0004148       0.18275       0.18234
   16  H            1.0    -0.0061385       0.16675       0.17289

          ---------------------
          ELECTROSTATIC MOMENTS
          ---------------------

 POINT   1           X           Y           Z (BOHR)    CHARGE
                -2.845940   -0.267733   -0.191918        0.00 (A.U.)
         DX          DY          DZ         /D/  (DEBYE)
     0.412405   -0.027583    0.002005    0.413331
 ...... END OF PROPERTY EVALUATION ......
 CPU     0: STEP CPU TIME=     0.02 TOTAL CPU TIME=          2.3 (      0.0 MIN)
 TOTAL WALL CLOCK TIME=          2.6 SECONDS, CPU UTILIZATION IS    87.12%
               580000  WORDS OF DYNAMIC MEMORY USED
 EXECUTION OF GAMESS TERMINATED NORMALLY Sun May 17 14:29:12 2020
 DDI: 263640 bytes (0.3 MB / 0 MWords) used by master data server.
Note: The following floating-point exceptions are signalling: IEEE_DENORMALNote: The following floating-point exceptions are signalling: IEEE_DENORMALNote: The following floating-point exceptions are signalling: IEEE_DENORMALNote: The following floating-point exceptions are signalling:

 ----------------------------------------
 CPU timing information for all processes
 ========================================
 0: 2.135 + 0.179 = 2.314
 1: 2.88 + 0.24 = 2.112
 2: 2.83 + 0.24 = 2.107
 3: 2.129 + 0.08 = 2.137
 4: 2.61 + 0.16 = 2.78
 5: 2.22 + 0.16 = 2.39
 ----------------------------------------


 IEEE_DENORMAL
Note: The following floating-point exceptions are signalling: IEEE_DENORMALNote: The following floating-point exceptions are signalling:
 IEEE_DENORMAL
 ddikick.x: exited gracefully.
unset echo
----- accounting info -----
Files used on the master node pietdev were:
-rwxr-xr-x 1 piet piet     1041 mei 17 14:29 /home/piet/scr/histidine_1__fukui_acid.F05*
-rw-r--r-- 1 piet piet 68812800 mei 17 14:29 /home/piet/scr/histidine_1__fukui_acid.F10
ls: No match.
ls: No match.
ls: No match.
zo 17 mei 2020 14:29:15 CEST
0.123u 0.021s 0:05.80 2.4%	0+0k 0+8io 0pf+0w
