----- GAMESS execution script 'rungms' -----
This job is running on host pietdev
under operating system Linux at zo 17 mei 2020 14:20:38 CEST
Available scratch disk space (Kbyte units) at beginning of the job is
Filesystem     1K-blocks     Used Available Use% Mounted on
/dev/sda2      244568380 30379708 201695616  14% /
GAMESS temporary binary files will be written to /home/piet/scr
GAMESS supplementary output files will be written to /home/piet/gamess/scr
Copying input file histidine_1__geoopt.inp to your run's scratch directory...
cp histidine_1__geoopt.inp /home/piet/scr/histidine_1__geoopt.F05
unset echo
 
Assuming a single but multicore node.
 
/home/piet/gamess/ddikick.x /home/piet/gamess/gamess.03.x histidine_1__geoopt -ddi 1 6 pietdev:cpus=6 -scr /home/piet/scr

 Distributed Data Interface kickoff program.
 Initiating 6 compute processes on 1 nodes to run the following command:
 /home/piet/gamess/gamess.03.x histidine_1__geoopt 

          ******************************************************
          *         GAMESS VERSION = 30 SEP 2019 (R2)          *
          *             FROM IOWA STATE UNIVERSITY             *
          * M.W.SCHMIDT, K.K.BALDRIDGE, J.A.BOATZ, S.T.ELBERT, *
          *   M.S.GORDON, J.H.JENSEN, S.KOSEKI, N.MATSUNAGA,   *
          *          K.A.NGUYEN, S.J.SU, T.L.WINDUS,           *
          *       TOGETHER WITH M.DUPUIS, J.A.MONTGOMERY       *
          *         J.COMPUT.CHEM.  14, 1347-1363(1993)        *
          **************** 64 BIT LINUX VERSION ****************

  SINCE 1993, STUDENTS AND POSTDOCS WORKING AT IOWA STATE UNIVERSITY
  AND ALSO IN THEIR VARIOUS JOBS AFTER LEAVING ISU HAVE MADE IMPORTANT
  CONTRIBUTIONS TO THE CODE:
     IVANA ADAMOVIC, CHRISTINE AIKENS, YURI ALEXEEV, POOJA ARORA,
     ANDREY ASADCHEV, ROB BELL, PRADIPTA BANDYOPADHYAY, JONATHAN BENTZ,
     COLLEEN BERTONI, BRETT BODE, KURT BRORSEN, CALEB CARLIN, GALINA CHABAN,
     WEI CHEN, CHEOL HO CHOI, PAUL DAY, ALBERT DEFUSCO, NUWAN DESILVA,
     TIM DUDLEY, DMITRI FEDOROV, ALEX FINDLATER, GRAHAM FLETCHER, 
     MARK FREITAG, KURT GLAESEMANN, EMILIE B GUIDEZ, ANASTASIA GUNINA, 
     DAN KEMP, SAROM SOK LEANG, GRANT MERRILL,
     NORIYUKI MINEZAWA, JONATHAN MULLIN,
     TAKESHI NAGATA, SEAN NEDD, HEATHER NETZLOFF, BOSILJKA NJEGIC, RYAN OLSON,
     MIKE PAK, BUU PHAM, DAVID POOLE,
     SPENCER PRUITT, LUKE ROSKOP, TOSAPORN SATTASATHUCHANA,
     JIM SHOEMAKER, LYUDMILA SLIPCHENKO,
     TONY SMITH, JIE SONG, TETSUYA TAKETSUGU, SIMON WEBB,
     JORGE LUIS GALVEZ VALLEJO, PENG XU, SOOHAENG YOO,
     FEDERICO ZAHARIEV

  ADDITIONAL CODE HAS BEEN PROVIDED BY COLLABORATORS IN OTHER GROUPS:
     IOWA STATE UNIVERSITY:
          JOE IVANIC, AARON WEST, LAIMUTIS BYTAUTAS, KLAUS RUEDENBERG
     UNIVERSITY OF TOKYO: KIMIHIKO HIRAO, TAKAHITO NAKAJIMA,
          TAKAO TSUNEDA, MUNEAKI KAMIYA, SUSUMU YANAGISAWA,
          KIYOSHI YAGI, MAHITO CHIBA, SEIKEN TOKURA, NAOAKI KAWAKAMI
     UNIVERSITY OF AARHUS: FRANK JENSEN
     UNIVERSITY OF IOWA: VISVALDAS KAIRYS, HUI LI
     NATIONAL INST. OF STANDARDS AND TECHNOLOGY: WALT STEVENS, DAVID GARMER
     UNIVERSITY OF PISA: BENEDETTA MENNUCCI, JACOPO TOMASI
     UNIVERSITY OF MEMPHIS: HENRY KURTZ, PRAKASHAN KORAMBATH
     UNIVERSITY OF ALBERTA: TOBY ZENG, MARIUSZ KLOBUKOWSKI
     UNIVERSITY OF NEW ENGLAND: MARK SPACKMAN
     MIE UNIVERSITY: HIROAKI UMEDA
     NAT. INST. OF ADVANCED INDUSTRIAL SCIENCE AND TECHNOLOGY: KAZUO KITAURA
     MICHIGAN STATE UNIVERSITY:
          KAROL KOWALSKI, MARTA WLOCH, JEFFREY GOUR, JESSE LUTZ,
          WEI LI, JUN SHEN, J. EMILIANO DEUSTUA, PIOTR PIECUCH
     UNIVERSITY OF MINNESOTA:
          ANDREW SAND, PRACHI SHARMA, YINAN SHU
     UNIVERSITY OF SILESIA: MONIKA MUSIAL, STANISLAW KUCHARSKI
     FACULTES UNIVERSITAIRES NOTRE-DAME DE LA PAIX:
          OLIVIER QUINET, BENOIT CHAMPAGNE
     UNIVERSITY OF CALIFORNIA - SANTA BARBARA: BERNARD KIRTMAN
     INSTITUTE FOR MOLECULAR SCIENCE:
          KAZUYA ISHIMURA, MICHIO KATOUDA, AND SHIGERU NAGASE
     UNIVERSITY OF NOTRE DAME: ANNA POMOGAEVA, DAN CHIPMAN
     KYUSHU UNIVERSITY:
          HARUYUKI NAKANO,
          FENG LONG GU, JACEK KORCHOWIEC, MARCIN MAKOWSKI, AND YURIKO AOKI,
          HIROTOSHI MORI AND EISAKU MIYOSHI
     PENNSYLVANIA STATE UNIVERSITY:
          TZVETELIN IORDANOV, CHET SWALINA, JONATHAN SKONE,
          SHARON HAMMES-SCHIFFER
     WASEDA UNIVERSITY:
          MASATO KOBAYASHI, TOMOKO AKAMA, TSUGUKI TOUMA,
          TAKESHI YOSHIKAWA, YASUHIRO IKABATA, JUNJI SEINO,
          YUYA NAKAJIMA, HIROMI NAKAI
     NANJING UNIVERSITY: SHUHUA LI
     UNIVERSITY OF NEBRASKA:
          PEIFENG SU, DEJUN SI, NANDUN THELLAMUREGE, YALI WANG, HUI LI
     UNIVERSITY OF ZURICH: ROBERTO PEVERATI, KIM BALDRIDGE
     N. COPERNICUS UNIVERSITY AND JACKSON STATE UNIVERSITY:
          MARIA BARYSZ
     UNIVERSITY OF COPENHAGEN: Jimmy Kromann, CASPER STEINMANN
     TOKYO INSTITUTE OF TECHNOLOGY: HIROYA NAKATA
     NAGOYA UNIVERSITY: YOSHIO NISHIMOTO, STEPHAN IRLE
     MOSCOW STATE UNIVERSITY: VLADIMIR MIRONOV
     A.N.NESMEYANOV INSTITUTE OF ORGANOELEMENT COMPOUNDS OF RUSSIAN ACADEMY OF SCIENCES:
          IGOR S. GERASIMOV
     JOHANNES KEPLER UNIVERSITY LINZ:
          CHRISTIAN FRIEDL


 PARALLEL VERSION RUNNING ON        6 PROCESSORS IN        1 NODES.

 EXECUTION OF GAMESS BEGUN Sun May 17 14:20:38 2020

            ECHO OF THE FIRST FEW INPUT CARDS -
 INPUT CARD> $BASIS GBASIS=N21 NGAUSS=3 $END                                                
 INPUT CARD> $CONTRL SCFTYP=RHF RUNTYP=OPTIMIZE DFTTYP=B3LYP MAXIT=60 MULT=1 ICHARG=1 $END  
 INPUT CARD> $SYSTEM MEMDDI=1000 MWORDS=30 $END                                             
 INPUT CARD> $STATPT NSTEP=999 $END                                                         
 INPUT CARD> $SCF DIRSCF=.TRUE. $END                                                        
 INPUT CARD> $DATA                                                                          
 INPUT CARD>                                                                                
 INPUT CARD>C1                                                                              
 INPUT CARD>C 6.0000000 1.12186 0.01053 0.41888                                             
 INPUT CARD>H 1.0000000 0.98189 -0.74792 1.19676                                            
 INPUT CARD>C 6.0000000 0.18665 -0.21598 -0.78424                                           
 INPUT CARD>C 6.0000000 -1.26833 -0.12956 -0.44156                                          
 INPUT CARD>C 6.0000000 -2.26143 0.70073 -0.88627                                           
 INPUT CARD>N 7.0000000 -3.42568 0.34241 -0.22755                                           
 INPUT CARD>C 6.0000000 -3.18165 -0.67236 0.60270                                           
 INPUT CARD>N 7.0000000 -1.88312 -0.96839 0.48498                                           
 INPUT CARD>H 1.0000000 0.38510 0.52801 -1.56109                                            
 INPUT CARD>H 1.0000000 0.38696 -1.19461 -1.23878                                           
 INPUT CARD>H 1.0000000 -2.23410 1.50225 -1.60719                                           
 INPUT CARD>H 1.0000000 -4.33206 0.77865 -0.34982                                           
 INPUT CARD>H 1.0000000 -3.89635 -1.16173 1.24668                                           
 INPUT CARD>H 1.0000000 2.16180 -0.05031 0.09038                                            
 INPUT CARD>H 1.0000000 0.96178 0.99458 0.86735                                             
 INPUT CARD>H 1.0000000 -1.41705 -1.70158 1.00650                                           
 INPUT CARD> $END                                                                           
   30000000 WORDS OF MEMORY AVAILABLE

     BASIS OPTIONS
     -------------
     GBASIS=N21          IGAUSS=       3      POLAR=NONE    
     NDFUNC=       0     NFFUNC=       0     DIFFSP=       F
     NPFUNC=       0      DIFFS=       F     BASNAM=        


     RUN TITLE
     ---------
                                                                                 

 THE POINT GROUP OF THE MOLECULE IS C1      
 THE ORDER OF THE PRINCIPAL AXIS IS     0

 ATOM      ATOMIC                      COORDINATES (BOHR)
           CHARGE         X                   Y                   Z
 C           6.0     2.1200079966        0.0198988147        0.7915684217
 H           1.0     1.8555030501       -1.4133638607        2.2615484731
 C           6.0     0.3527173556       -0.4081430188       -1.4819987086
 C           6.0    -2.3967961620       -0.2448328990       -0.8344274071
 C           6.0    -4.2734830404        1.3241876914       -1.6748074511
 N           7.0    -6.4735965216        0.6470610755       -0.4300071485
 C           6.0    -6.0124466888       -1.2705761651        1.1389378528
 N           7.0    -3.5585808020       -1.8299917492        0.9164793095
 H           1.0     0.7277334779        0.9977942188       -2.9500323422
 H           1.0     0.7312483682       -2.2574855622       -2.3409547591
 H           1.0    -4.2218368292        2.8388408651       -3.0371487102
 H           1.0    -8.1864063624        1.4714351403       -0.6610639450
 H           1.0    -7.3630338523       -2.1953513717        2.3558835944
 H           1.0     4.0852096403       -0.0950721144        0.1707934348
 H           1.0     1.8175006605        1.8794836729        1.6390538355
 H           1.0    -2.6778362109       -3.2155199462        1.9020092066

          INTERNUCLEAR DISTANCES (ANGS.)
          ------------------------------

                1 C          2 H          3 C          4 C          5 C     

   1 C       0.0000000    1.0954156 *  1.5405915 *  2.5442072 *  3.6914013  
   2 H       1.0954156 *  0.0000000    2.1999381 *  2.8513070 *  4.1178545  
   3 C       1.5405915 *  2.1999381 *  0.0000000    1.4972858 *  2.6160778 *
   4 C       2.5442072 *  2.8513070 *  1.4972858 *  0.0000000    1.3687206 *
   5 C       3.6914013    4.1178545    2.6160778 *  1.3687206 *  0.0000000  
   6 N       4.6052292    4.7585872    3.6973817    2.2187192 *  1.3848405 *
   7 C       4.3612300    4.2063859    3.6711483    2.2463090 *  2.2246826 *
   8 N       3.1611008    2.9603243 *  2.5418474 *  1.3928671 *  2.1930359 *
   9 H       2.1750591 *  3.0967551    1.0938005 *  2.1022789 *  2.7366650 *
  10 H       2.1772177 *  2.5466309 *  1.0974732 *  2.1236469 *  3.2757513  
  11 H       4.1943600    4.8236907    3.0805181    2.2258052 *  1.0783816 *
  12 H       5.5611286    5.7411140    4.6472303    3.1968270    2.1404109 *
  13 H       5.2193752    4.8960143    4.6572490    3.2896836    3.2697395  
  14 H       1.0922861 *  1.7615119 *  2.1664774 *  3.4720358    4.5916086  
  15 H       1.0932087 *  1.7734773 *  2.1895277 *  2.8196324 *  3.6811158  
  16 H       3.1181215    2.5885477 *  2.8258823 *  2.1424851 *  3.1727983  

                6 N          7 C          8 N          9 H         10 H     

   1 C       4.6052292    4.3612300    3.1611008    2.1750591 *  2.1772177 *
   2 H       4.7585872    4.2063859    2.9603243 *  3.0967551    2.5466309 *
   3 C       3.6973817    3.6711483    2.5418474 *  1.0938005 *  1.0974732 *
   4 C       2.2187192 *  2.2463090 *  1.3928671 *  2.1022789 *  2.1236469 *
   5 C       1.3848405 *  2.2246826 *  2.1930359 *  2.7366650 *  3.2757513  
   6 N       0.0000000    1.3336506 *  2.1460165 *  4.0416359    4.2333486  
   7 C       1.3336506 *  0.0000000    1.3370385 *  4.3410345    4.0495396  
   8 N       2.1460165 *  1.3370385 *  0.0000000    3.4015346    2.8593334 *
   9 H       4.0416359    4.3410345    3.4015346    0.0000000    1.7525144 *
  10 H       4.2333486    4.0495396    2.8593334 *  1.7525144 *  0.0000000  
  11 H       2.1606708 *  3.2419737    3.2564435    2.7949020 *  3.7787214  
  12 H       1.0133015 *  2.0823466 *  3.1219140    4.8766376    5.1916428  
  13 H       2.1580828 *  1.0793467 *  2.1611715 *  5.3916239    4.9523062  
  14 H       5.6102800    5.4038760    4.1665283    2.4936860 *  2.4952246 *
  15 H       4.5688004    4.4740072    3.4774867    2.5392062 *  3.0917235  
  16 H       3.1201553    2.0823452 *  1.0132976 *  3.8485497    2.9245090 *

               11 H         12 H         13 H         14 H         15 H     

   1 C       4.1943600    5.5611286    5.2193752    1.0922861 *  1.0932087 *
   2 H       4.8236907    5.7411140    4.8960143    1.7615119 *  1.7734773 *
   3 C       3.0805181    4.6472303    4.6572490    2.1664774 *  2.1895277 *
   4 C       2.2258052 *  3.1968270    3.2896836    3.4720358    2.8196324 *
   5 C       1.0783816 *  2.1404109 *  3.2697395    4.5916086    3.6811158  
   6 N       2.1606708 *  1.0133015 *  2.1580828 *  5.6102800    4.5688004  
   7 C       3.2419737    2.0823466 *  1.0793467 *  5.4038760    4.4740072  
   8 N       3.2564435    3.1219140    2.1611715 *  4.1665283    3.4774867  
   9 H       2.7949020 *  4.8766376    5.3916239    2.4936860 *  2.5392062 *
  10 H       3.7787214    5.1916428    4.9523062    2.4952246 *  3.0917235  
  11 H       0.0000000    2.5506886 *  4.2431637    4.9614638    4.0736625  
  12 H       2.5506886 *  0.0000000    2.5502412 *  6.5613389    5.4362552  
  13 H       4.2431637    2.5502412 *  0.0000000    6.2668545    5.3286951  
  14 H       4.9614638    6.5613389    6.2668545    0.0000000    1.7707415 *
  15 H       4.0736625    5.4362552    5.3286951    1.7707415 *  0.0000000  
  16 H       4.2146735    4.0605945    2.5487356 *  4.0464967    3.5982598  

               16 H     

   1 C       3.1181215  
   2 H       2.5885477 *
   3 C       2.8258823 *
   4 C       2.1424851 *
   5 C       3.1727983  
   6 N       3.1201553  
   7 C       2.0823452 *
   8 N       1.0132976 *
   9 H       3.8485497  
  10 H       2.9245090 *
  11 H       4.2146735  
  12 H       4.0605945  
  13 H       2.5487356 *
  14 H       4.0464967  
  15 H       3.5982598  
  16 H       0.0000000  

  * ... LESS THAN  3.000


     ATOMIC BASIS SET
     ----------------
 THE CONTRACTED PRIMITIVE FUNCTIONS HAVE BEEN UNNORMALIZED
 THE CONTRACTED BASIS FUNCTIONS ARE NOW NORMALIZED TO UNITY

  SHELL TYPE  PRIMITIVE        EXPONENT          CONTRACTION COEFFICIENT(S)

 C         

      1   S       1           172.2560000    0.061766907377
      1   S       2            25.9109000    0.358794042852
      1   S       3             5.5333500    0.700713083689

      2   L       4             3.6649800   -0.395895162119    0.236459946619
      2   L       5             0.7705450    1.215834355681    0.860618805716

      3   L       6             0.1958570    1.000000000000    1.000000000000

 H         

      4   S       7             5.4471780    0.156284978695
      4   S       8             0.8245472    0.904690876670

      5   S       9             0.1831916    1.000000000000

 C         

      6   S      10           172.2560000    0.061766907377
      6   S      11            25.9109000    0.358794042852
      6   S      12             5.5333500    0.700713083689

      7   L      13             3.6649800   -0.395895162119    0.236459946619
      7   L      14             0.7705450    1.215834355681    0.860618805716

      8   L      15             0.1958570    1.000000000000    1.000000000000

 C         

      9   S      16           172.2560000    0.061766907377
      9   S      17            25.9109000    0.358794042852
      9   S      18             5.5333500    0.700713083689

     10   L      19             3.6649800   -0.395895162119    0.236459946619
     10   L      20             0.7705450    1.215834355681    0.860618805716

     11   L      21             0.1958570    1.000000000000    1.000000000000

 C         

     12   S      22           172.2560000    0.061766907377
     12   S      23            25.9109000    0.358794042852
     12   S      24             5.5333500    0.700713083689

     13   L      25             3.6649800   -0.395895162119    0.236459946619
     13   L      26             0.7705450    1.215834355681    0.860618805716

     14   L      27             0.1958570    1.000000000000    1.000000000000

 N         

     15   S      28           242.7660000    0.059865700508
     15   S      29            36.4851000    0.352955002994
     15   S      30             7.8144900    0.706513005993

     16   L      31             5.4252200   -0.413300077430    0.237972016222
     16   L      32             1.1491500    1.224417266851    0.858953058551

     17   L      33             0.2832050    1.000000000000    1.000000000000

 C         

     18   S      34           172.2560000    0.061766907377
     18   S      35            25.9109000    0.358794042852
     18   S      36             5.5333500    0.700713083689

     19   L      37             3.6649800   -0.395895162119    0.236459946619
     19   L      38             0.7705450    1.215834355681    0.860618805716

     20   L      39             0.1958570    1.000000000000    1.000000000000

 N         

     21   S      40           242.7660000    0.059865700508
     21   S      41            36.4851000    0.352955002994
     21   S      42             7.8144900    0.706513005993

     22   L      43             5.4252200   -0.413300077430    0.237972016222
     22   L      44             1.1491500    1.224417266851    0.858953058551

     23   L      45             0.2832050    1.000000000000    1.000000000000

 H         

     24   S      46             5.4471780    0.156284978695
     24   S      47             0.8245472    0.904690876670

     25   S      48             0.1831916    1.000000000000

 H         

     26   S      49             5.4471780    0.156284978695
     26   S      50             0.8245472    0.904690876670

     27   S      51             0.1831916    1.000000000000

 H         

     28   S      52             5.4471780    0.156284978695
     28   S      53             0.8245472    0.904690876670

     29   S      54             0.1831916    1.000000000000

 H         

     30   S      55             5.4471780    0.156284978695
     30   S      56             0.8245472    0.904690876670

     31   S      57             0.1831916    1.000000000000

 H         

     32   S      58             5.4471780    0.156284978695
     32   S      59             0.8245472    0.904690876670

     33   S      60             0.1831916    1.000000000000

 H         

     34   S      61             5.4471780    0.156284978695
     34   S      62             0.8245472    0.904690876670

     35   S      63             0.1831916    1.000000000000

 H         

     36   S      64             5.4471780    0.156284978695
     36   S      65             0.8245472    0.904690876670

     37   S      66             0.1831916    1.000000000000

 H         

     38   S      67             5.4471780    0.156284978695
     38   S      68             0.8245472    0.904690876670

     39   S      69             0.1831916    1.000000000000

 TOTAL NUMBER OF BASIS SET SHELLS             =   39
 NUMBER OF CARTESIAN GAUSSIAN BASIS FUNCTIONS =   81
 NUMBER OF ELECTRONS                          =   52
 CHARGE OF MOLECULE                           =    1
 SPIN MULTIPLICITY                            =    1
 NUMBER OF OCCUPIED ORBITALS (ALPHA)          =   26
 NUMBER OF OCCUPIED ORBITALS (BETA )          =   26
 TOTAL NUMBER OF ATOMS                        =   16
 THE NUCLEAR REPULSION ENERGY IS      301.7912032873

 SELECTED MURRAY-HANDY-LAMING RADIAL GRID

 LEGACY BECKE'S FUZZY CELL METHOD

 SELECTED ORIGINAL BECKE'S PARTITION FUNCTION

     LEBEDEV GRID-BASED DFT OPTIONS
     ------------------------------
     DFTTYP=B3LYP   
     NRAD  =      96     NLEB  =     302
     NRAD0 =      24     NLEB0 =     110
     SWOFF =    5.00E-03 (PURE SCF -> DFT)
     SWITCH=    3.00E-04 (COARSE -> TIGHT GRID)
     THRESH=    0.00E+00 GTHRE=    1.00E+00

 GRIMME'S EMPIRICAL DISPERSION CORRECTION= F

     $CONTRL OPTIONS
     ---------------
 SCFTYP=RHF          RUNTYP=OPTIMIZE     EXETYP=RUN     
 MPLEVL=       0     CITYP =NONE         CCTYP =NONE         VBTYP =NONE    
 DFTTYP=B3LYP        TDDFT =NONE    
 MULT  =       1     ICHARG=       1     NZVAR =       0     COORD =UNIQUE  
 PP    =NONE         RELWFN=NONE         LOCAL =NONE         NUMGRD=       F
 ISPHER=      -1     NOSYM =       0     MAXIT =      60     UNITS =ANGS    
 PLTORB=       F     MOLPLT=       F     AIMPAC=       F     FRIEND=        
 NPRINT=       7     IREST =       0     GEOM  =INPUT   
 NORMF =       0     NORMP =       0     ITOL  =      20     ICUT  =       9
 INTTYP=BEST         GRDTYP=BEST         QMTTOL= 1.0E-06

     $SYSTEM OPTIONS
     ---------------
  REPLICATED MEMORY=    30000000 WORDS (ON EVERY NODE).
 DISTRIBUTED MEMDDI=        1000 MILLION WORDS IN AGGREGATE,
 MEMDDI DISTRIBUTED OVER   6 PROCESSORS IS   166666666 WORDS/PROCESSOR.
 TOTAL MEMORY REQUESTED ON EACH PROCESSOR=   196666666 WORDS.
 TIMLIM=      525600.00 MINUTES, OR     365.0 DAYS.
 PARALL= T  BALTYP=  DLB     KDIAG=    0  COREFL= F
 MXSEQ2=     300 MXSEQ3=     150  mem10=         0

          ----------------
          PROPERTIES INPUT
          ----------------

     MOMENTS            FIELD           POTENTIAL          DENSITY
 IEMOM =       1   IEFLD =       0   IEPOT =       0   IEDEN =       0
 WHERE =COMASS     WHERE =NUCLEI     WHERE =NUCLEI     WHERE =NUCLEI  
 OUTPUT=BOTH       OUTPUT=BOTH       OUTPUT=BOTH       OUTPUT=BOTH    
 IEMINT=       0   IEFINT=       0                     IEDINT=       0
                                                       MORB  =       0
          EXTRAPOLATION IN EFFECT
          DIIS IN EFFECT
 ORBITAL PRINTING OPTION: NPREO=     1    81     2     1

     -------------------------------
     INTEGRAL TRANSFORMATION OPTIONS
     -------------------------------
     NWORD  =            0
     CUTOFF = 1.0E-09     MPTRAN =       0
     DIRTRF =       T     AOINTS =DUP     

          ----------------------
          INTEGRAL INPUT OPTIONS
          ----------------------
 NOPK  =       1 NORDER=       0 SCHWRZ=       T

     ------------------------------------------
     THE POINT GROUP IS C1 , NAXIS= 0, ORDER= 1
     ------------------------------------------

     DIMENSIONS OF THE SYMMETRY SUBSPACES ARE
 A   =   81

 ..... DONE SETTING UP THE RUN .....
 CPU     0: STEP CPU TIME=     0.02 TOTAL CPU TIME=          0.0 (      0.0 MIN)
 TOTAL WALL CLOCK TIME=          0.0 SECONDS, CPU UTILIZATION IS   100.00%


          -----------------------------
          STATIONARY POINT LOCATION RUN
          -----------------------------

 OBTAINING INITIAL HESSIAN, HESS=GUESS   
 CARTESIAN COORDINATE OPTIMIZATION USING BADGER'S RULE FORCE CONSTANT GUESS

          PARAMETERS CONTROLLING GEOMETRY SEARCH ARE
          METHOD =QA                  UPHESS =BFGS    
          NNEG   =         0          NFRZ   =         0
          NSTEP  =       999          IFOLOW =         1
          HESS   =GUESS               RESTAR =         F
          IHREP  =         0          HSSEND =         F
          NPRT   =         0          NPUN   =         0
          OPTTOL = 1.000E-04          RMIN   = 1.500E-03
          RMAX   = 1.000E-01          RLIM   = 7.000E-02
          DXMAX  = 3.000E-01          PURIFY =         F
          MOVIE  =         F          TRUPD  =         T
          TRMAX  = 5.000E-01          TRMIN  = 5.000E-02
          ITBMAT =         5          STPT   =         F
          STSTEP = 1.000E-02          PROJCT=          T

 BEGINNING GEOMETRY SEARCH POINT NSERCH=   0 ...

 COORDINATES OF ALL ATOMS ARE (ANGS)
   ATOM   CHARGE       X              Y              Z
 ------------------------------------------------------------
 C           6.0   1.1218600000   0.0105300000   0.4188800000
 H           1.0   0.9818900000  -0.7479200000   1.1967600000
 C           6.0   0.1866500000  -0.2159800000  -0.7842400000
 C           6.0  -1.2683300000  -0.1295600000  -0.4415600000
 C           6.0  -2.2614300000   0.7007300000  -0.8862700000
 N           7.0  -3.4256800000   0.3424100000  -0.2275500000
 C           6.0  -3.1816500000  -0.6723600000   0.6027000000
 N           7.0  -1.8831200000  -0.9683900000   0.4849800000
 H           1.0   0.3851000000   0.5280100000  -1.5610900000
 H           1.0   0.3869600000  -1.1946100000  -1.2387800000
 H           1.0  -2.2341000000   1.5022500000  -1.6071900000
 H           1.0  -4.3320600000   0.7786500000  -0.3498200000
 H           1.0  -3.8963500000  -1.1617300000   1.2466800000
 H           1.0   2.1618000000  -0.0503100000   0.0903800000
 H           1.0   0.9617800000   0.9945800000   0.8673500000
 H           1.0  -1.4170500000  -1.7015800000   1.0065000000

          ********************
          1 ELECTRON INTEGRALS
          ********************
 ...... END OF ONE-ELECTRON INTEGRALS ......
 CPU     0: STEP CPU TIME=     0.01 TOTAL CPU TIME=          0.0 (      0.0 MIN)
 TOTAL WALL CLOCK TIME=          0.0 SECONDS, CPU UTILIZATION IS    75.00%

          -------------
          GUESS OPTIONS
          -------------
          GUESS =HUCKEL            NORB  =       0          NORDER=       0
          MIX   =       F          PRTMO =       F          PUNMO =       F
          TOLZ  = 1.0E-08          TOLE  = 1.0E-05
          SYMDEN=       F          PURIFY=       F

 INITIAL GUESS ORBITALS GENERATED BY HUCKEL   ROUTINE.
 HUCKEL GUESS REQUIRES     67089 WORDS.

 SYMMETRIES FOR INITIAL GUESS ORBITALS FOLLOW.   BOTH SET(S).
    26 ORBITALS ARE OCCUPIED (    7 CORE ORBITALS).
     8=A        9=A       10=A       11=A       12=A       13=A       14=A   
    15=A       16=A       17=A       18=A       19=A       20=A       21=A   
    22=A       23=A       24=A       25=A       26=A       27=A       28=A   
    29=A       30=A       31=A       32=A       33=A       34=A       35=A   
    36=A   
 ...... END OF INITIAL ORBITAL SELECTION ......
 CPU     0: STEP CPU TIME=     0.01 TOTAL CPU TIME=          0.0 (      0.0 MIN)
 TOTAL WALL CLOCK TIME=          0.0 SECONDS, CPU UTILIZATION IS    80.00%

                    ----------------------
                    AO INTEGRAL TECHNOLOGY
                    ----------------------
     S,P,L SHELL ROTATED AXIS INTEGRALS, REPROGRAMMED BY
        KAZUYA ISHIMURA (IMS) AND JOSE SIERRA (SYNSTAR).
     S,P,D,L SHELL ROTATED AXIS INTEGRALS PROGRAMMED BY
        KAZUYA ISHIMURA (INSTITUTE FOR MOLECULAR SCIENCE).
     S,P,D,F,G SHELL TO TOTAL QUARTET ANGULAR MOMENTUM SUM 5,
        ERIC PROGRAM BY GRAHAM FLETCHER (ELORET AND NASA ADVANCED
        SUPERCOMPUTING DIVISION, AMES RESEARCH CENTER).
     S,P,D,F,G,L SHELL GENERAL RYS QUADRATURE PROGRAMMED BY
        MICHEL DUPUIS (PACIFIC NORTHWEST NATIONAL LABORATORY).

          --------------------
          2 ELECTRON INTEGRALS
          --------------------

 DIRECT SCF METHOD SKIPS INTEGRAL STORAGE ON DISK.
 DIRECT TRANSFORMATION SKIPS AO INTEGRAL STORAGE ON DISK.
  ...... END OF TWO-ELECTRON INTEGRALS .....
 CPU     0: STEP CPU TIME=     0.01 TOTAL CPU TIME=          0.0 (      0.0 MIN)
 TOTAL WALL CLOCK TIME=          0.1 SECONDS, CPU UTILIZATION IS    83.33%

          --------------------------
             R-B3LYP SCF CALCULATION
          --------------------------

     NUCLEAR ENERGY =       301.7912032873
     MAXIT =   60     NPUNCH=    2
     EXTRAP=T  DAMP=F  SHIFT=F  RSTRCT=F  DIIS=T  DEM=F  SOSCF=F
         DENSITY MATRIX CONVERGENCE THRESHOLD=  2.00E-05
     COARSE -> FINE DFT GRID SWITCH THRESHOLD=  3.00E-04 (SWITCH IN $DFT)
                   HF -> DFT SWITCH THRESHOLD=  5.00E-03 (SWOFF IN $DFT)
     MEMORY REQUIRED FOR RHF ITERS=    626981 WORDS.

 DIRECT SCF CALCULATION, SCHWRZ=T   FDIFF=T,  DIRTHR=  0.00E+00 NITDIR=10
 SCHWARZ INEQUALITY OVERHEAD:      3242 INTEGRALS, T=        0.00

 DFT CODE IS SWITCHING FROM THE FINE GRID NRAD= 96,  NLEB=  302
                      TO THE COARSE GRID NRAD0= 24, NLEB0=  110

     EXCHANGE FUNCTIONAL   =B88&HFX   
     CORRELATION FUNCTIONAL=LYP88&VWN5
     DFT THRESHOLD         =.862E-08
     GRID CHANGE THRESHOLD =.300E-03
 FOR AN EULER-MACLAURIN QUADRATURE USING  96 RADIAL POINTS:
 SMALLEST GAUSSIAN PRIMITIVE EXPONENT=        0.1831915800 OF TYPE -S-
 ON ATOM NUMBER   2 HAS RADIAL NORMALIZATION=  1.000000
  LARGEST GAUSSIAN PRIMITIVE EXPONENT=      242.7660000000 OF TYPE -S-
 ON ATOM NUMBER   6 HAS RADIAL NORMALIZATION=  1.000000
 DFT IS SWITCHED OFF, PERFORMING PURE SCF UNTIL SWOFF THRESHOLD IS REACHED.

                                                                                   NONZERO     BLOCKS
 ITER EX DEM     TOTAL ENERGY        E CHANGE  DENSITY CHANGE    DIIS ERROR      INTEGRALS    SKIPPED
   1  0  0     -300.7897688077  -300.7897688077   0.811623492   0.744361270        4390285     102432
          * * *   INITIATING DIIS PROCEDURE   * * *
   2  1  0     -301.5359786129    -0.7462098052   0.121109740   0.156657105        4379050     106427
   3  2  0     -301.5833324235    -0.0473538106   0.054305887   0.046902835        4341969     114132
   4  3  0     -301.5946543945    -0.0113219711   0.023841627   0.011047531        4278300     122814
   5  4  0     -301.5951496998    -0.0004953053   0.004793924   0.002566272        4201753     129828
 CONVERGED TO SWOFF, SO DFT CALCULATION IS NOW SWITCHED ON.
          * * *   INITIATING DIIS PROCEDURE   * * *
   6  5  0     -303.3466638854    -1.7515141855   0.133145279   0.093490173        4390876     102086
   7  6  0     -303.3691827381    -0.0225188527   0.047003914   0.026739354        4354238     112583
   8  7  0     -303.3715699478    -0.0023872097   0.021147060   0.018701009        4303741     118824
   9  8  0     -303.3741649308    -0.0025949829   0.004966341   0.006868682        4256212     125033
  10  9  0     -303.3743723588    -0.0002074280   0.000756561   0.001050915        4130615     136642
  11 10  0     -303.3743742691    -0.0000019103   0.000511512   0.000674345        3922581     149815
  12 11  0     -303.3743752520    -0.0000009829   0.000086361   0.000182195        3795345     159801
 DFT CODE IS SWITCHING BACK TO THE FINE GRID
          * * *   INITIATING DIIS PROCEDURE   * * *
  13 12  0     -303.3748272431    -0.0004519911   0.002811042   0.002007179        4392178     101529
  14 13  0     -303.3748361450    -0.0000089019   0.000510604   0.000406320        4067243     139728
  15 14  0     -303.3748359660     0.0000001791   0.000419719   0.000576517        3867347     154329
  16 15  0     -303.3748369421    -0.0000009762   0.000040992   0.000047363        3780056     160293
  17 16  0     -303.3748369469    -0.0000000048   0.000017579   0.000029922        3472040     179029
  18 17  0     -303.3748369484    -0.0000000015   0.000006497   0.000008892        3270063     191522

          -----------------
          DENSITY CONVERGED
          -----------------
     TIME TO FORM FOCK OPERATORS=       6.2 SECONDS (       0.3 SEC/ITER)
     FOCK TIME ON FIRST ITERATION=       0.1, LAST ITERATION=       0.8
     TIME TO SOLVE SCF EQUATIONS=       0.1 SECONDS (       0.0 SEC/ITER)

 FINAL R-B3LYP ENERGY IS     -303.3748369484 AFTER  18 ITERATIONS
 DFT EXCHANGE + CORRELATION ENERGY =       -35.3411945469
 TOTAL ELECTRON NUMBER             =        52.0001875981

          ------------
          EIGENVECTORS
          ------------

                      1          2          3          4          5
                  -14.5334   -14.5292   -10.4209   -10.3669   -10.3572
                     A          A          A          A          A   
    1  C  1  S   -0.000017   0.000030  -0.000169  -0.002067  -0.000204
    2  C  1  S   -0.000063   0.000206  -0.000160  -0.002051  -0.000222
    3  C  1  X   -0.000128  -0.000333   0.000134   0.001367   0.000171
    4  C  1  Y    0.000048   0.000324   0.000115   0.000049   0.000039
    5  C  1  Z   -0.000130   0.000039   0.000125   0.000085   0.000029
    6  C  1  S    0.001093   0.000603  -0.000094   0.004857  -0.000028
    7  C  1  X    0.000044   0.001707   0.000367  -0.004960  -0.000677
    8  C  1  Y   -0.000551  -0.003019  -0.000951  -0.001892   0.000467
    9  C  1  Z   -0.000034  -0.000470  -0.000091  -0.001511   0.000061
   10  H  2  S    0.000004   0.000056   0.000068  -0.000623  -0.000085
   11  H  2  S   -0.000555  -0.001409  -0.000548  -0.001131   0.000253
   12  C  3  S    0.000096  -0.000197  -0.000935  -0.004882  -0.001532
   13  C  3  S    0.000396  -0.001134  -0.001705  -0.002191  -0.000528
   14  C  3  X    0.000664  -0.000096  -0.000467   0.000971   0.000561
   15  C  3  Y   -0.000207  -0.000314  -0.000256  -0.000500  -0.000149
   16  C  3  Z   -0.000018   0.000169   0.000278  -0.000033  -0.000048
   17  C  3  S   -0.008943   0.013038   0.013990   0.013763   0.002504
   18  C  3  X    0.002842  -0.007024  -0.007052  -0.013480  -0.001852
   19  C  3  Y    0.000340   0.005974   0.002066   0.004955  -0.002232
   20  C  3  Z   -0.000987  -0.002157   0.000452  -0.002441   0.002280
   21  C  4  S    0.000265  -0.000340  -0.000640   0.984092   0.057291
   22  C  4  S    0.001093  -0.001051  -0.000928   0.108239   0.002285
   23  C  4  X   -0.000146  -0.000156   0.001911  -0.001125   0.001701
   24  C  4  Y   -0.000898  -0.000606  -0.000786   0.000038  -0.002038
   25  C  4  Z    0.000840   0.000446   0.000093   0.000552   0.001355
   26  C  4  S   -0.017793   0.026091  -0.002266  -0.080775   0.027434
   27  C  4  X    0.019710  -0.026722  -0.017663   0.000917  -0.016309
   28  C  4  Y   -0.000828  -0.011404  -0.000571  -0.009961   0.012771
   29  C  4  Z   -0.005068   0.018214   0.005752   0.007992  -0.006668
   30  C  5  S   -0.000452   0.000158  -0.001943  -0.057475   0.983929
   31  C  5  S   -0.001836   0.000606  -0.001906  -0.010217   0.106709
   32  C  5  X   -0.001450  -0.001276  -0.001091  -0.002246  -0.001035
   33  C  5  Y   -0.000149   0.000258   0.001089   0.001416  -0.001360
   34  C  5  Z    0.000554   0.000183  -0.000636  -0.000657   0.001483
   35  C  5  S    0.034194  -0.012528  -0.000355   0.031722  -0.076578
   36  C  5  X   -0.009080   0.005114   0.000613   0.015000  -0.008250
   37  C  5  Y   -0.018029   0.010819  -0.005079  -0.007996   0.013056
   38  C  5  Z    0.018663  -0.011280   0.004286   0.003024  -0.009062
   39  N  6  S    0.985070   0.022838   0.000419   0.000091   0.000321
   40  N  6  S    0.113264   0.002288   0.000692   0.000511   0.000721
   41  N  6  X    0.002318  -0.000080   0.000804  -0.000145   0.000209
   42  N  6  Y   -0.001340   0.000360   0.000634  -0.000119  -0.000246
   43  N  6  Z    0.000515  -0.000311  -0.000803   0.000167   0.000163
   44  N  6  S   -0.088195  -0.002906   0.001681  -0.007392   0.002448
   45  N  6  X   -0.018545  -0.000043  -0.006763  -0.001935  -0.002349
   46  N  6  Y    0.008845   0.003807   0.002584   0.003765   0.003343
   47  N  6  Z   -0.002439  -0.003298  -0.000295  -0.002882  -0.002315
   48  C  7  S   -0.000155  -0.000130   0.985115   0.000118   0.001314
   49  C  7  S   -0.001016  -0.000707   0.104099  -0.001084  -0.001872
   50  C  7  X   -0.000965   0.001703   0.001726  -0.000256  -0.000461
   51  C  7  Y    0.001343  -0.000629   0.001029  -0.000263  -0.000669
   52  C  7  Z   -0.000908   0.000063  -0.001422   0.000295   0.000725
   53  C  7  S    0.024728   0.025797  -0.047902   0.009522   0.010476
   54  C  7  X    0.006643   0.018348   0.001405   0.008430   0.012137
   55  C  7  Y    0.013970   0.004621   0.001074   0.006851   0.007013
   56  C  7  Z   -0.014366  -0.009518  -0.001377  -0.008504  -0.009766
   57  N  8  S   -0.022854   0.985175   0.000479   0.000383   0.000134
   58  N  8  S   -0.002965   0.113993   0.001182   0.001360   0.000581
   59  N  8  X    0.000793  -0.001343   0.000785  -0.000714  -0.000255
   60  N  8  Y   -0.000276   0.001945   0.000595   0.000477  -0.000131
   61  N  8  Z    0.000012  -0.001346  -0.000768  -0.000191   0.000198
   62  N  8  S    0.000923  -0.092367  -0.002213  -0.001586  -0.008900
   63  N  8  X    0.002761   0.007873   0.002687   0.005632   0.005453
   64  N  8  Y    0.000813  -0.016082  -0.006900  -0.004719  -0.002472
   65  N  8  Z   -0.001532   0.011996   0.005366   0.002585   0.000599
   66  H  9  S   -0.000100  -0.001420  -0.000913  -0.001358  -0.000038
   67  H  9  S    0.000747  -0.001534  -0.000763  -0.001337   0.001809
   68  H 10  S    0.000360   0.000334  -0.000391  -0.000964  -0.000203
   69  H 10  S    0.000301   0.000585   0.000219   0.003544   0.000027
   70  H 11  S    0.000838  -0.001356   0.000697  -0.001283  -0.003233
   71  H 11  S    0.007107  -0.004913   0.003758  -0.000693   0.009090
   72  H 12  S   -0.000716  -0.000563  -0.002520  -0.000338  -0.001687
   73  H 12  S    0.004591   0.001006  -0.000188   0.000375  -0.000173
   74  H 13  S    0.000466   0.000508  -0.002848   0.001047   0.001316
   75  H 13  S    0.005256   0.005294   0.013944   0.005463   0.007089
   76  H 14  S   -0.000062  -0.000286  -0.000124  -0.000157   0.000055
   77  H 14  S   -0.000345  -0.000628   0.000334   0.002726   0.000479
   78  H 15  S    0.000002   0.000501   0.000128  -0.000835  -0.000102
   79  H 15  S    0.000122   0.001299   0.000411   0.001122  -0.000297
   80  H 16  S   -0.000199  -0.000681  -0.002643  -0.002223  -0.000412
   81  H 16  S    0.001039   0.004778  -0.000468  -0.001033   0.000157

                      6          7          8          9         10
                  -10.2895   -10.2517    -1.2676    -1.1266    -0.9909
                     A          A          A          A          A   
    1  C  1  S   -0.008630   0.986229  -0.001225  -0.004622  -0.036708
    2  C  1  S   -0.003624   0.112021   0.002521   0.005226   0.038991
    3  C  1  X   -0.000530  -0.000278  -0.001166  -0.003806  -0.020552
    4  C  1  Y   -0.000044  -0.000058  -0.000888  -0.001527  -0.003034
    5  C  1  Z   -0.000268  -0.000120  -0.000440  -0.002147  -0.016529
    6  C  1  S    0.025027  -0.089431  -0.008066   0.003137   0.067828
    7  C  1  X   -0.008927   0.002565   0.001120  -0.002226   0.009467
    8  C  1  Y   -0.001931   0.000355   0.008312   0.006795   0.000437
    9  C  1  Z   -0.010277   0.003466   0.003664   0.003693   0.004108
   10  H  2  S   -0.001519  -0.000319   0.001037   0.002306   0.016900
   11  H  2  S    0.000498   0.016041   0.004554   0.004321  -0.002418
   12  C  3  S    0.986993   0.008068  -0.007447  -0.014658  -0.088096
   13  C  3  S    0.116734  -0.000646   0.005514   0.016868   0.079460
   14  C  3  X   -0.000113   0.000277  -0.009149  -0.011354  -0.043857
   15  C  3  Y   -0.000006  -0.000086   0.001054  -0.002523   0.006748
   16  C  3  Z    0.000135  -0.000213   0.002006   0.006204   0.013904
   17  C  3  S   -0.117581   0.013314   0.012651  -0.019923   0.258644
   18  C  3  X    0.009989   0.010307   0.008525   0.026427  -0.026915
   19  C  3  Y   -0.001723   0.002632  -0.016593  -0.018580   0.000706
   20  C  3  Z   -0.007750   0.008674   0.012382   0.008544   0.012454
   21  C  4  S    0.004743   0.001741  -0.065707  -0.053031  -0.139494
   22  C  4  S   -0.001537  -0.001485   0.071838   0.061636   0.156026
   23  C  4  X   -0.001785  -0.001529  -0.060018  -0.014354  -0.023577
   24  C  4  Y    0.000141   0.000111  -0.013546  -0.053808   0.031700
   25  C  4  Z    0.000470  -0.000411   0.029763   0.052448  -0.019517
   26  C  4  S    0.021219   0.003350   0.071856   0.028100   0.265184
   27  C  4  X    0.034094   0.007427   0.003225   0.098087  -0.059066
   28  C  4  Y   -0.002488  -0.003043   0.021181   0.018275   0.014362
   29  C  4  Z   -0.006400   0.001241  -0.019981  -0.045824   0.004061
   30  C  5  S    0.001225   0.000053  -0.066135   0.045857  -0.116625
   31  C  5  S   -0.000440  -0.000153   0.074004  -0.054235   0.130262
   32  C  5  X   -0.000325   0.000159  -0.024031   0.073721   0.041444
   33  C  5  Y   -0.000063   0.000137  -0.045331   0.003625  -0.050631
   34  C  5  Z    0.000042   0.000164   0.047208  -0.024792   0.032781
   35  C  5  S    0.010585   0.004186   0.054395  -0.008303   0.215314
   36  C  5  X   -0.000536   0.000651   0.000640  -0.025466   0.006640
   37  C  5  Y   -0.006862  -0.002434   0.005181  -0.062053  -0.017215
   38  C  5  Z    0.006182   0.000765  -0.004723   0.062984   0.013612
   39  N  6  S    0.000042   0.000011  -0.136036   0.161950   0.015335
   40  N  6  S    0.000140   0.000047   0.119411  -0.147128  -0.015655
   41  N  6  X   -0.000258  -0.000078   0.050928  -0.002142   0.070324
   42  N  6  Y    0.000127  -0.000042  -0.041665   0.001736   0.068566
   43  N  6  Z   -0.000001  -0.000040   0.022130  -0.000935  -0.081485
   44  N  6  S   -0.003777  -0.000876   0.431268  -0.536069  -0.045720
   45  N  6  X   -0.000322   0.000004   0.096339  -0.047332   0.047935
   46  N  6  Y   -0.000666   0.000239  -0.066372   0.012949   0.039738
   47  N  6  Z    0.000567   0.000266   0.030775   0.002177  -0.049307
   48  C  7  S    0.000497   0.000147  -0.109478   0.001226   0.107790
   49  C  7  S   -0.000935  -0.000242   0.128225  -0.001897  -0.121790
   50  C  7  X   -0.000459  -0.000301   0.067353   0.102051  -0.024118
   51  C  7  Y   -0.000048   0.000084   0.047807  -0.088051   0.003903
   52  C  7  Z    0.000204   0.000038  -0.062221   0.048360   0.003673
   53  C  7  S    0.001571  -0.000773   0.043843  -0.002314  -0.231791
   54  C  7  X    0.002452  -0.000021  -0.063947   0.000683  -0.012986
   55  C  7  Y    0.001101   0.000512  -0.046530  -0.000616  -0.006984
   56  C  7  Z   -0.001614  -0.000650   0.060114   0.000360   0.009930
   57  N  8  S   -0.000017   0.000035  -0.133521  -0.162047   0.036836
   58  N  8  S   -0.000500   0.000240   0.115434   0.145508  -0.036010
   59  N  8  X   -0.000219   0.000333  -0.047714   0.001845   0.115038
   60  N  8  Y   -0.000205  -0.000015   0.042069   0.002225   0.054762
   61  N  8  Z    0.000386  -0.000190  -0.023211  -0.002125  -0.082206
   62  N  8  S    0.002913  -0.000635   0.431637   0.542986  -0.125951
   63  N  8  X   -0.001143  -0.002542  -0.068319  -0.010497   0.073048
   64  N  8  Y    0.002700   0.000006   0.081383   0.041910   0.035139
   65  N  8  Z   -0.002619   0.000837  -0.052197  -0.033751  -0.051936
   66  H  9  S    0.001233  -0.001171   0.004330   0.006385   0.037397
   67  H  9  S    0.016608   0.001137   0.002248   0.005644  -0.006666
   68  H 10  S    0.001307  -0.000906   0.000722   0.005600   0.034467
   69  H 10  S    0.016229   0.001488  -0.006592  -0.004879  -0.011183
   70  H 11  S    0.000824   0.000052   0.013163  -0.010712   0.049435
   71  H 11  S    0.002252   0.000596  -0.009049   0.034748   0.009339
   72  H 12  S    0.000298   0.000056   0.049387  -0.083571  -0.018300
   73  H 12  S    0.000408   0.000063   0.014664  -0.020144  -0.002191
   74  H 13  S    0.000224   0.000108   0.019063  -0.000469  -0.059659
   75  H 13  S    0.001341   0.000491  -0.048193   0.000326  -0.016703
   76  H 14  S   -0.001142  -0.000109   0.000795   0.001860   0.013369
   77  H 14  S   -0.000559   0.015628   0.000884  -0.000314  -0.006383
   78  H 15  S   -0.001554  -0.000163   0.000326   0.001338   0.016846
   79  H 15  S    0.000578   0.016089  -0.003634  -0.004244  -0.001576
   80  H 16  S    0.000416   0.000591   0.048146   0.084225  -0.033478
   81  H 16  S    0.001173  -0.000891   0.014119   0.020594  -0.005695

                     11         12         13         14         15
                   -0.9187    -0.8736    -0.8242    -0.7980    -0.7434
                     A          A          A          A          A   
    1  C  1  S   -0.113523   0.016808  -0.103458  -0.111493   0.082413
    2  C  1  S    0.112310  -0.017203   0.098077   0.103949  -0.075784
    3  C  1  X   -0.032573   0.002266   0.012510   0.022377  -0.034134
    4  C  1  Y   -0.009171  -0.002614   0.001561  -0.002165  -0.014253
    5  C  1  Z   -0.037432   0.007665  -0.001403   0.025840  -0.069316
    6  C  1  S    0.273330  -0.045350   0.314116   0.356187  -0.295513
    7  C  1  X   -0.002277  -0.007414  -0.001386  -0.007729   0.003001
    8  C  1  Y   -0.000866   0.002448  -0.005743  -0.000358  -0.004565
    9  C  1  Z   -0.002835   0.000685  -0.008106   0.003631  -0.023391
   10  H  2  S    0.054246  -0.005827   0.057945   0.074170  -0.069555
   11  H  2  S    0.001431   0.008888   0.007183   0.017831  -0.026236
   12  C  3  S   -0.147371   0.022834  -0.003375   0.055361  -0.103205
   13  C  3  S    0.139812  -0.020353   0.003735  -0.053612   0.092160
   14  C  3  X    0.006297  -0.004998   0.089946   0.085559   0.003156
   15  C  3  Y    0.001618  -0.013380   0.020215  -0.011848  -0.031212
   16  C  3  Z    0.032051   0.006932   0.018854   0.071496  -0.081946
   17  C  3  S    0.414264  -0.072684   0.000684  -0.181413   0.403203
   18  C  3  X   -0.018199   0.002347   0.017996   0.021411  -0.012942
   19  C  3  Y   -0.005919  -0.013551   0.020729  -0.015676  -0.013591
   20  C  3  Z    0.016257   0.007652  -0.009137   0.029574  -0.029365
   21  C  4  S    0.002005   0.024686   0.089348   0.031233   0.057672
   22  C  4  S   -0.002723  -0.029371  -0.095503  -0.033974  -0.063595
   23  C  4  X    0.155307   0.044454  -0.015853  -0.082548   0.110906
   24  C  4  Y   -0.035733  -0.071493   0.093146  -0.095655  -0.062601
   25  C  4  Z   -0.005707   0.049386  -0.063516   0.130733  -0.011913
   26  C  4  S    0.000873  -0.049375  -0.255409  -0.097758  -0.201333
   27  C  4  X    0.007929   0.025787  -0.006591  -0.053939   0.010714
   28  C  4  Y    0.000986  -0.022607   0.001187  -0.014387  -0.037128
   29  C  4  Z   -0.003095   0.011827   0.009583   0.043572   0.002474
   30  C  5  S    0.084669   0.001570  -0.093613   0.061593   0.040252
   31  C  5  S   -0.092244  -0.003624   0.099731  -0.066331  -0.045233
   32  C  5  X    0.006104  -0.101301  -0.091939  -0.083460  -0.168181
   33  C  5  Y    0.036006   0.061444   0.048412  -0.047692  -0.004802
   34  C  5  Z   -0.032581  -0.025063  -0.012929   0.072568   0.041142
   35  C  5  S   -0.213312   0.005453   0.272797  -0.209560  -0.150186
   36  C  5  X   -0.007985  -0.033295   0.006332  -0.031567  -0.037645
   37  C  5  Y    0.040573   0.022982   0.016327  -0.024377   0.003022
   38  C  5  Z   -0.031268  -0.010652  -0.014137   0.034351   0.001637
   39  N  6  S   -0.031237  -0.067867   0.018032  -0.020157  -0.026231
   40  N  6  S    0.030467   0.063900  -0.019977   0.020641   0.024569
   41  N  6  X   -0.115861  -0.126992   0.140523   0.075576   0.167432
   42  N  6  Y   -0.041492   0.174876   0.094532  -0.031685  -0.004135
   43  N  6  Z    0.071301  -0.118180  -0.123216   0.009553  -0.055874
   44  N  6  S    0.118346   0.255517  -0.069963   0.089106   0.126309
   45  N  6  X   -0.091995  -0.107811   0.121200   0.076327   0.163239
   46  N  6  Y   -0.024824   0.131925   0.080902  -0.030831   0.001416
   47  N  6  Z    0.048974  -0.085653  -0.105913   0.007972  -0.058790
   48  C  7  S   -0.047500   0.104311  -0.012901   0.062539   0.033099
   49  C  7  S    0.055444  -0.123032   0.015260  -0.070527  -0.033256
   50  C  7  X   -0.063755  -0.029297   0.127480   0.065006   0.178165
   51  C  7  Y    0.021757  -0.042049  -0.115832   0.106679   0.041114
   52  C  7  Z   -0.000037   0.046034   0.067875  -0.109870  -0.099935
   53  C  7  S    0.129672  -0.237596   0.040187  -0.206937  -0.132977
   54  C  7  X   -0.013929  -0.011832   0.030241   0.050606   0.096726
   55  C  7  Y   -0.000902  -0.013295  -0.029961   0.050604   0.032774
   56  C  7  Z    0.005002   0.015308   0.018708  -0.057960  -0.064261
   57  N  8  S    0.005067  -0.074836  -0.007142  -0.017028  -0.010053
   58  N  8  S   -0.004929   0.070522   0.010254   0.016552   0.012823
   59  N  8  X    0.015191   0.181761  -0.163085   0.059635  -0.099598
   60  N  8  Y   -0.041030  -0.128417  -0.093383   0.111233  -0.015623
   61  N  8  Z    0.034442   0.061338   0.137283  -0.106468   0.021072
   62  N  8  S   -0.027723   0.285755   0.020775   0.072209   0.037253
   63  N  8  X    0.029776   0.136933  -0.131100   0.053692  -0.076453
   64  N  8  Y   -0.039083  -0.106355  -0.084213   0.104551  -0.015187
   65  N  8  Z    0.029620   0.054685   0.119962  -0.098941   0.014887
   66  H  9  S    0.069045  -0.017920   0.009819  -0.052879   0.082954
   67  H  9  S    0.000246   0.000915   0.000737  -0.014679   0.023069
   68  H 10  S    0.071130  -0.009711  -0.000700  -0.035043   0.095924
   69  H 10  S   -0.003572   0.002344   0.002959  -0.006548   0.033870
   70  H 11  S   -0.038502   0.020406   0.084641  -0.084626  -0.055187
   71  H 11  S   -0.016675   0.010543   0.026204  -0.030922  -0.028074
   72  H 12  S    0.053883   0.145496  -0.049859  -0.026968  -0.062337
   73  H 12  S    0.013162   0.053011  -0.020087  -0.008250  -0.031598
   74  H 13  S    0.043625  -0.053619   0.014502  -0.124155  -0.131233
   75  H 13  S    0.011057  -0.011395   0.004445  -0.048151  -0.064769
   76  H 14  S    0.051604  -0.009063   0.063434   0.070794  -0.057301
   77  H 14  S   -0.002417   0.002602   0.010308   0.018386  -0.017090
   78  H 15  S    0.052481  -0.009611   0.058664   0.067241  -0.068874
   79  H 15  S   -0.003814  -0.002268   0.010508   0.009557  -0.022916
   80  H 16  S    0.019915   0.152493   0.037461  -0.042178  -0.005694
   81  H 16  S    0.004472   0.054488   0.017797  -0.011186  -0.007139

                     16         17         18         19         20
                   -0.7199    -0.6669    -0.6635    -0.6397    -0.6087
                     A          A          A          A          A   
    1  C  1  S    0.000052  -0.000562   0.017421   0.004393  -0.004040
    2  C  1  S   -0.000588  -0.000244  -0.016542  -0.004445   0.005493
    3  C  1  X   -0.001750  -0.003992  -0.043704  -0.015635  -0.124202
    4  C  1  Y   -0.005165   0.035398  -0.009177  -0.031880   0.043105
    5  C  1  Z    0.010842   0.003140  -0.015412  -0.000399   0.123610
    6  C  1  S   -0.001672   0.007093  -0.065047  -0.018120   0.015948
    7  C  1  X   -0.006715  -0.009025  -0.032279  -0.013679  -0.088121
    8  C  1  Y   -0.001688   0.020510  -0.002054  -0.018550   0.029464
    9  C  1  Z    0.001561  -0.001197  -0.004500   0.001566   0.091635
   10  H  2  S    0.007660  -0.011737  -0.011647   0.010335   0.047894
   11  H  2  S    0.015605  -0.004637  -0.001439   0.008834   0.030944
   12  C  3  S    0.009621   0.005524  -0.013539  -0.001996   0.016674
   13  C  3  S   -0.010026  -0.004087   0.013244   0.003650  -0.009001
   14  C  3  X   -0.010062  -0.012639  -0.011468  -0.000617  -0.256616
   15  C  3  Y   -0.005507   0.098192  -0.008691  -0.066492   0.061617
   16  C  3  Z    0.010499  -0.009021   0.051018   0.034696   0.171186
   17  C  3  S   -0.013004  -0.027115   0.049684  -0.008039  -0.117693
   18  C  3  X   -0.019498  -0.008799  -0.002483   0.003110  -0.136500
   19  C  3  Y   -0.006749   0.065322  -0.015546  -0.054468   0.051318
   20  C  3  Z    0.011505  -0.016509   0.025506   0.027486   0.115931
   21  C  4  S    0.017325  -0.001594  -0.002549   0.036154  -0.041779
   22  C  4  S   -0.019558   0.001423   0.002925  -0.043207   0.042757
   23  C  4  X    0.035923   0.018056   0.067649   0.094522   0.270294
   24  C  4  Y    0.023046   0.187743  -0.009282  -0.142069  -0.004390
   25  C  4  Z   -0.028609  -0.039682   0.160430   0.099692  -0.036429
   26  C  4  S   -0.021939   0.017027   0.002313  -0.113466   0.173290
   27  C  4  X   -0.028224   0.013191   0.048191   0.070684   0.206868
   28  C  4  Y    0.000755   0.116047   0.014149  -0.062565  -0.018771
   29  C  4  Z    0.009456  -0.003617   0.107607   0.035589  -0.011569
   30  C  5  S   -0.028624  -0.001937   0.009236  -0.031042   0.024740
   31  C  5  S    0.033045   0.001607  -0.009748   0.026419  -0.029272
   32  C  5  X   -0.022935   0.187053  -0.114069  -0.055359  -0.085255
   33  C  5  Y   -0.027350   0.056196   0.072468   0.287591   0.016515
   34  C  5  Z    0.032221   0.011696   0.134837  -0.231413  -0.013559
   35  C  5  S    0.049959   0.015797  -0.039631   0.158178  -0.066939
   36  C  5  X    0.008690   0.090361  -0.042935  -0.040284  -0.037357
   37  C  5  Y    0.015366   0.042417   0.051778   0.198805  -0.000063
   38  C  5  Z   -0.015403   0.020778   0.089131  -0.158382  -0.011372
   39  N  6  S   -0.008052  -0.008280   0.001658   0.018905  -0.015362
   40  N  6  S    0.003531   0.010284  -0.003319  -0.015757   0.015441
   41  N  6  X    0.223325  -0.087258   0.146158  -0.015520   0.055848
   42  N  6  Y   -0.187244   0.006895   0.204352  -0.080817  -0.032107
   43  N  6  Z    0.102701   0.213949   0.063907   0.095379  -0.085945
   44  N  6  S    0.063957   0.024031   0.002821  -0.093778   0.069829
   45  N  6  X    0.213485  -0.087542   0.144100  -0.016054   0.049749
   46  N  6  Y   -0.171551   0.018691   0.190190  -0.058870  -0.025490
   47  N  6  Z    0.091520   0.197536   0.068808   0.075844  -0.091724
   48  C  7  S   -0.003719   0.030508  -0.021139  -0.019911  -0.011862
   49  C  7  S    0.003776  -0.027867   0.019463   0.026592   0.016263
   50  C  7  X   -0.189950   0.164024  -0.036023   0.010975   0.084098
   51  C  7  Y    0.135376   0.200005   0.036826   0.104955  -0.047719
   52  C  7  Z   -0.062572  -0.048391   0.238363  -0.080239  -0.055981
   53  C  7  S    0.016827  -0.147016   0.101516   0.075919   0.042759
   54  C  7  X   -0.056567   0.120103  -0.027600   0.018353   0.053905
   55  C  7  Y    0.030576   0.140978   0.038783   0.068188  -0.032073
   56  C  7  Z   -0.009229  -0.025132   0.173817  -0.052931  -0.050134
   57  N  8  S    0.012807  -0.013436   0.011258  -0.018283   0.018499
   58  N  8  S   -0.008615   0.014415  -0.011949   0.017786  -0.015589
   59  N  8  X    0.235245  -0.056450   0.089684   0.028342  -0.100758
   60  N  8  Y   -0.196505   0.020679   0.184208   0.106787  -0.037225
   61  N  8  Z    0.109628   0.199724   0.095911  -0.089776   0.031735
   62  N  8  S   -0.082456   0.049931  -0.041734   0.089523  -0.092341
   63  N  8  X    0.215079  -0.041566   0.079630   0.046600  -0.087802
   64  N  8  Y   -0.188387   0.017597   0.180208   0.102216  -0.038665
   65  N  8  Z    0.108108   0.191191   0.093199  -0.091110   0.032065
   66  H  9  S   -0.013578   0.036689  -0.015543  -0.035355  -0.092554
   67  H  9  S   -0.002393   0.024172  -0.015570  -0.012909  -0.072318
   68  H 10  S   -0.007475  -0.051701   0.001426   0.026971  -0.118994
   69  H 10  S    0.000995  -0.035999  -0.011675   0.017320  -0.089779
   70  H 11  S    0.001902   0.025140  -0.033357   0.256967  -0.021710
   71  H 11  S   -0.021875   0.017655  -0.020797   0.160143  -0.015842
   72  H 12  S   -0.180870   0.048447  -0.037996  -0.048110  -0.024411
   73  H 12  S   -0.103594   0.029970  -0.024050  -0.038412  -0.022681
   74  H 13  S    0.018338  -0.175644   0.117372  -0.042159  -0.032069
   75  H 13  S    0.008890  -0.102206   0.068631  -0.033272  -0.025697
   76  H 14  S   -0.002517  -0.003257  -0.031607  -0.010685  -0.089244
   77  H 14  S    0.001161  -0.000302  -0.013336  -0.004307  -0.063431
   78  H 15  S   -0.000322   0.018904  -0.016673  -0.018738   0.067682
   79  H 15  S    0.000080   0.015008  -0.007374  -0.012599   0.044820
   80  H 16  S    0.184979   0.057447  -0.042883  -0.061445  -0.024930
   81  H 16  S    0.105893   0.034938  -0.029243  -0.047368  -0.022138

                     21         22         23         24         25
                   -0.5875    -0.5412    -0.5172    -0.5058    -0.4939
                     A          A          A          A          A   
    1  C  1  S    0.003320   0.005955   0.007241  -0.004694  -0.004181
    2  C  1  S   -0.002699  -0.003147  -0.010663   0.007427   0.003678
    3  C  1  X   -0.016885  -0.206876   0.123938   0.247205  -0.024669
    4  C  1  Y    0.215343  -0.116889  -0.022359  -0.050357   0.289832
    5  C  1  Z   -0.092851  -0.168407   0.134302  -0.237543  -0.064178
    6  C  1  S   -0.019870  -0.061483  -0.006466   0.014932   0.021384
    7  C  1  X   -0.011772  -0.152736   0.066762   0.219460  -0.019445
    8  C  1  Y    0.155390  -0.086671  -0.018328  -0.042472   0.238984
    9  C  1  Z   -0.054706  -0.098591   0.088035  -0.181111  -0.048807
   10  H  2  S   -0.137490  -0.010468   0.062696  -0.121830  -0.186452
   11  H  2  S   -0.113337  -0.008252   0.078442  -0.129017  -0.191097
   12  C  3  S   -0.009205  -0.027922   0.012333   0.009157  -0.000269
   13  C  3  S    0.007952   0.022623  -0.009510  -0.000343  -0.000098
   14  C  3  X    0.058393   0.180126  -0.082310  -0.098282   0.013929
   15  C  3  Y    0.282192   0.011109   0.000761   0.015170  -0.226132
   16  C  3  Z   -0.031468   0.216505  -0.169997   0.140522   0.061182
   17  C  3  S    0.048236   0.141178  -0.064171  -0.096347   0.005334
   18  C  3  X    0.037907   0.114321  -0.049928  -0.013002   0.006967
   19  C  3  Y    0.229423   0.004185  -0.008249   0.012154  -0.184547
   20  C  3  Z   -0.022453   0.180964  -0.156134   0.103919   0.044732
   21  C  4  S    0.017504   0.017622  -0.003342  -0.039997  -0.002868
   22  C  4  S   -0.019970  -0.014902   0.001833   0.041861   0.000680
   23  C  4  X    0.000636  -0.079588   0.040320   0.156809  -0.027634
   24  C  4  Y   -0.031408   0.124045   0.005608   0.007129  -0.004178
   25  C  4  Z    0.101518   0.102243   0.029824  -0.010019  -0.035764
   26  C  4  S   -0.061481  -0.086905   0.020900   0.190978   0.030040
   27  C  4  X   -0.015592  -0.079598   0.053212   0.173065  -0.029155
   28  C  4  Y    0.016642   0.094711   0.027289  -0.004748  -0.031147
   29  C  4  Z    0.046226   0.100387   0.022673  -0.019476  -0.001028
   30  C  5  S    0.008729  -0.017016   0.008870   0.009398  -0.012235
   31  C  5  S   -0.009633   0.019579  -0.009835  -0.011093   0.012678
   32  C  5  X   -0.075796   0.056212  -0.060081  -0.023760   0.026486
   33  C  5  Y    0.049384  -0.052789  -0.072784   0.014541  -0.057083
   34  C  5  Z   -0.029868  -0.009613  -0.105993  -0.006024  -0.037121
   35  C  5  S   -0.052667   0.059829  -0.035035  -0.013225   0.061482
   36  C  5  X   -0.043392   0.027201  -0.045902  -0.022437   0.008242
   37  C  5  Y    0.044677  -0.042930  -0.076276  -0.001839  -0.049061
   38  C  5  Z   -0.035092  -0.013143  -0.100950   0.007196  -0.030244
   39  N  6  S    0.001135   0.006816  -0.002462  -0.007805   0.002514
   40  N  6  S   -0.002452  -0.006234   0.002153   0.007852  -0.001554
   41  N  6  X    0.015887  -0.082564  -0.042498   0.019231  -0.028212
   42  N  6  Y   -0.043965  -0.141244  -0.171963  -0.020378  -0.040315
   43  N  6  Z   -0.062656  -0.134470  -0.207596  -0.032884  -0.024137
   44  N  6  S    0.007261  -0.037236   0.014005   0.035063  -0.019510
   45  N  6  X    0.024152  -0.089294  -0.046971   0.014244  -0.037770
   46  N  6  Y   -0.046287  -0.157295  -0.191971  -0.022938  -0.049942
   47  N  6  Z   -0.067399  -0.144013  -0.234895  -0.035391  -0.026079
   48  C  7  S   -0.001080   0.004636  -0.001466  -0.006074   0.000603
   49  C  7  S   -0.001084  -0.004755   0.000933   0.007581   0.000312
   50  C  7  X   -0.070836  -0.018909   0.008052   0.028901   0.022197
   51  C  7  Y   -0.028637  -0.040924   0.036733  -0.006143   0.032853
   52  C  7  Z   -0.024763  -0.047163   0.043481  -0.010344   0.032808
   53  C  7  S    0.015790  -0.024044   0.010599   0.021972  -0.011760
   54  C  7  X   -0.050206  -0.018560   0.010275   0.024485   0.019344
   55  C  7  Y   -0.031892  -0.038189   0.036167  -0.007797   0.033804
   56  C  7  Z   -0.018480  -0.043700   0.040860  -0.006091   0.034374
   57  N  8  S   -0.017998   0.002479  -0.003500   0.007265   0.007952
   58  N  8  S    0.013613  -0.001152   0.001650  -0.006371  -0.003805
   59  N  8  X    0.076271   0.021425   0.081873  -0.020240  -0.001571
   60  N  8  Y    0.038564   0.073280   0.229722  -0.002165   0.035103
   61  N  8  Z   -0.071256   0.105793   0.228564   0.047067   0.097513
   62  N  8  S    0.102269  -0.019170   0.026240  -0.030733  -0.058745
   63  N  8  X    0.072719   0.026305   0.092112  -0.026832  -0.009838
   64  N  8  Y    0.044925   0.077550   0.263207  -0.002960   0.022448
   65  N  8  Z   -0.076440   0.121583   0.250776   0.048983   0.122692
   66  H  9  S    0.154173  -0.052457   0.066970  -0.090643  -0.155382
   67  H  9  S    0.111292  -0.047520   0.063081  -0.092598  -0.155497
   68  H 10  S   -0.140196  -0.020084   0.026326  -0.075858   0.143484
   69  H 10  S   -0.104203  -0.028621   0.012206  -0.080052   0.142121
   70  H 11  S    0.029534   0.000035   0.000548  -0.007127   0.000436
   71  H 11  S    0.025287  -0.004575   0.006107  -0.006174  -0.009632
   72  H 12  S   -0.024471   0.019210  -0.007978  -0.011633   0.008593
   73  H 12  S   -0.018862   0.019200  -0.008106  -0.014734   0.008262
   74  H 13  S    0.035739  -0.004627   0.006149  -0.012310  -0.011684
   75  H 13  S    0.024760  -0.002357   0.005427  -0.014295  -0.009923
   76  H 14  S   -0.002401  -0.098512   0.047742   0.231633  -0.010528
   77  H 14  S    0.001888  -0.075821   0.054044   0.196556  -0.010445
   78  H 15  S    0.095625  -0.100071   0.003308  -0.125724   0.184359
   79  H 15  S    0.070656  -0.086144   0.007826  -0.119556   0.175376
   80  H 16  S   -0.011989   0.013376  -0.006947  -0.004378   0.010363
   81  H 16  S   -0.024220   0.018394  -0.004989  -0.024916  -0.005004

                     26         27         28         29         30
                   -0.4336    -0.1922    -0.1412    -0.0952    -0.0588
                     A          A          A          A          A   
    1  C  1  S    0.017777   0.008431   0.034588   0.023646  -0.035000
    2  C  1  S   -0.015480  -0.001074  -0.025851  -0.011993   0.019820
    3  C  1  X    0.088281   0.014347   0.059536   0.018366  -0.001786
    4  C  1  Y    0.035906  -0.005544   0.004645   0.038466  -0.041382
    5  C  1  Z    0.077764   0.025025   0.063134  -0.023908   0.054272
    6  C  1  S   -0.083958  -0.083280  -0.281291  -0.270422   0.429835
    7  C  1  X    0.067602   0.058630   0.035720   0.013628   0.056155
    8  C  1  Y    0.025844  -0.020559  -0.016922   0.112581  -0.117080
    9  C  1  Z    0.064208   0.044448   0.133448  -0.100330   0.211906
   10  H  2  S   -0.004218   0.008325  -0.008845  -0.010204   0.001401
   11  H  2  S    0.002084  -0.013940  -0.006149   0.240228  -0.403072
   12  C  3  S    0.003804  -0.000330   0.001420  -0.006811  -0.041032
   13  C  3  S   -0.004337  -0.002788  -0.000794   0.001289   0.024012
   14  C  3  X   -0.034285  -0.000666  -0.003661  -0.060003  -0.033097
   15  C  3  Y   -0.086576   0.000374  -0.003941   0.015367  -0.009823
   16  C  3  Z   -0.088588  -0.002163  -0.000378   0.024277  -0.019458
   17  C  3  S   -0.014938   0.012916  -0.032544   0.062220   0.503803
   18  C  3  X   -0.013760   0.010072   0.069399  -0.156150  -0.053317
   19  C  3  Y   -0.074792   0.038442   0.038335  -0.026592   0.022879
   20  C  3  Z   -0.076594   0.053050   0.041608   0.130830  -0.126449
   21  C  4  S   -0.001110   0.000601  -0.000412   0.005154   0.029617
   22  C  4  S   -0.000565  -0.000419  -0.002315  -0.000480  -0.025966
   23  C  4  X    0.064388   0.023797   0.084251  -0.027225   0.035470
   24  C  4  Y    0.188424   0.076443   0.257823  -0.036301   0.048970
   25  C  4  Z    0.211510   0.086276   0.292234   0.028998  -0.029751
   26  C  4  S    0.012300  -0.010026   0.026151  -0.129686  -0.135928
   27  C  4  X    0.077031   0.024420   0.173791  -0.116693  -0.096422
   28  C  4  Y    0.186145   0.089123   0.406435  -0.004316   0.052747
   29  C  4  Z    0.214338   0.104214   0.455496   0.008229   0.034819
   30  C  5  S   -0.000262  -0.000132  -0.000112   0.023699  -0.026753
   31  C  5  S   -0.000032  -0.000051  -0.000385  -0.017372   0.031840
   32  C  5  X    0.067598   0.026148  -0.079549  -0.034495  -0.061993
   33  C  5  Y    0.203745   0.078148  -0.243678  -0.038219  -0.047222
   34  C  5  Z    0.229166   0.088701  -0.273855   0.049924   0.050665
   35  C  5  S    0.006855   0.001097   0.012377  -0.326328   0.074111
   36  C  5  X    0.068914   0.039376  -0.138711  -0.088299  -0.116623
   37  C  5  Y    0.206094   0.109739  -0.423895  -0.107956  -0.022239
   38  C  5  Z    0.238352   0.123173  -0.455149   0.139376   0.023405
   39  N  6  S   -0.000058  -0.000020   0.000284   0.075490   0.089954
   40  N  6  S    0.000250  -0.000087   0.000247  -0.048245  -0.051793
   41  N  6  X   -0.019272  -0.062070   0.034613   0.109714   0.150798
   42  N  6  Y   -0.059031  -0.188481   0.105156  -0.060127  -0.084679
   43  N  6  Z   -0.065982  -0.211965   0.118638   0.019461   0.033775
   44  N  6  S   -0.001681   0.001245  -0.007693  -0.693687  -0.916075
   45  N  6  X   -0.022862  -0.097165   0.053698   0.281792   0.367319
   46  N  6  Y   -0.066841  -0.296254   0.171249  -0.161469  -0.178225
   47  N  6  Z   -0.074370  -0.334010   0.195217   0.055979   0.058710
   48  C  7  S   -0.000173   0.000118  -0.000617   0.012511   0.015232
   49  C  7  S    0.000064  -0.000135   0.000069  -0.003411  -0.011201
   50  C  7  X   -0.056639   0.090727   0.000649   0.103215  -0.062032
   51  C  7  Y   -0.173660   0.275504  -0.002804   0.057920   0.068896
   52  C  7  Z   -0.195496   0.310128  -0.002335  -0.082035  -0.042609
   53  C  7  S   -0.000339  -0.001025   0.003700  -0.324876  -0.198733
   54  C  7  X   -0.059705   0.133413   0.004933   0.206785  -0.221085
   55  C  7  Y   -0.183397   0.407136  -0.002304   0.097211   0.210259
   56  C  7  Z   -0.208265   0.458841  -0.004912  -0.147104  -0.120546
   57  N  8  S    0.000506  -0.000065   0.001612   0.085791  -0.081522
   58  N  8  S   -0.000170   0.000299  -0.001398  -0.058301   0.049665
   59  N  8  X   -0.006585  -0.060361  -0.034788  -0.071162   0.067110
   60  N  8  Y   -0.018405  -0.184566  -0.100840   0.091201  -0.120344
   61  N  8  Z   -0.018180  -0.207444  -0.113436  -0.057393   0.082393
   62  N  8  S   -0.003643  -0.001137  -0.010797  -0.762687   0.817635
   63  N  8  X   -0.009408  -0.096170  -0.058238  -0.153748   0.074588
   64  N  8  Y   -0.017814  -0.289181  -0.161620   0.250237  -0.296824
   65  N  8  Z   -0.016062  -0.325586  -0.189215  -0.171605   0.228673
   66  H  9  S   -0.008612   0.001541  -0.001599   0.016436  -0.017184
   67  H  9  S   -0.009660   0.006341   0.004668   0.117338  -0.265671
   68  H 10  S    0.095716   0.020636   0.076504  -0.015425   0.007235
   69  H 10  S    0.112805   0.095177   0.226706   0.039402  -0.207846
   70  H 11  S    0.000050  -0.000141   0.000600   0.049764  -0.013780
   71  H 11  S    0.000989   0.000074   0.007131   0.407537  -0.000395
   72  H 12  S   -0.000118   0.000141   0.000410   0.134278   0.094509
   73  H 12  S   -0.000362   0.000513   0.001218   0.872450   0.990005
   74  H 13  S   -0.000439  -0.000072  -0.000494   0.034288   0.011419
   75  H 13  S    0.000175  -0.000139   0.001335   0.507945   0.140862
   76  H 14  S    0.032200   0.001870   0.029833   0.022013  -0.009041
   77  H 14  S    0.045162  -0.003016   0.144917   0.095218  -0.138309
   78  H 15  S    0.029460   0.000032  -0.005893  -0.003680  -0.002564
   79  H 15  S    0.058939   0.033011   0.057461   0.018088  -0.120866
   80  H 16  S    0.000175  -0.000693  -0.000061   0.135011  -0.057382
   81  H 16  S   -0.000189   0.002856   0.011542   0.919021  -0.858184

                     31         32         33         34         35
                   -0.0358    -0.0163     0.0015     0.0228     0.0352
                     A          A          A          A          A   
    1  C  1  S   -0.023088   0.009096  -0.050477   0.028850  -0.051649
    2  C  1  S    0.013057  -0.010688   0.028174  -0.012108   0.028479
    3  C  1  X   -0.012521  -0.028578   0.059383   0.044097   0.118091
    4  C  1  Y   -0.019036  -0.051512   0.004338  -0.045298   0.023793
    5  C  1  Z   -0.005329   0.028775   0.083174   0.057245  -0.043929
    6  C  1  S    0.264866  -0.091432   0.704372  -0.323990   0.661126
    7  C  1  X    0.015462  -0.101366   0.196309   0.107216   0.363780
    8  C  1  Y   -0.092316  -0.131862   0.075072  -0.037519   0.069934
    9  C  1  Z   -0.008989   0.027493   0.371239   0.227516  -0.083826
   10  H  2  S   -0.003487  -0.025075  -0.009768  -0.037587   0.015016
   11  H  2  S   -0.165704  -0.213718  -0.466189  -0.179435   0.014343
   12  C  3  S   -0.002010   0.060324  -0.101258  -0.048736  -0.022136
   13  C  3  S    0.000729  -0.032030   0.054417   0.019743   0.002641
   14  C  3  X   -0.022135   0.012282  -0.013753   0.048670   0.141061
   15  C  3  Y   -0.001849  -0.112461  -0.040175  -0.216081  -0.018692
   16  C  3  Z    0.003031   0.096201  -0.081975   0.010676  -0.136271
   17  C  3  S    0.010121  -0.800371   1.349877   0.638357   0.395434
   18  C  3  X   -0.118049  -0.008152  -0.007512   0.253967   0.305521
   19  C  3  Y    0.049064  -0.336059  -0.150479  -0.739029  -0.114918
   20  C  3  Z   -0.021634   0.308582  -0.316302   0.050695  -0.372423
   21  C  4  S    0.040433  -0.011403  -0.039367   0.020929  -0.003071
   22  C  4  S   -0.021105   0.017918   0.057012  -0.003954   0.024299
   23  C  4  X    0.041006  -0.016442  -0.118991   0.053491   0.109829
   24  C  4  Y    0.085935  -0.091739  -0.026510  -0.102233   0.073241
   25  C  4  Z   -0.076593   0.068744   0.123632   0.096204  -0.018979
   26  C  4  S   -0.466340  -0.163218   0.328986  -0.277924  -0.116148
   27  C  4  X    0.073467   0.242252  -0.419680   0.218659   0.314056
   28  C  4  Y    0.189536  -0.268562   0.028797  -0.262282   0.260510
   29  C  4  Z   -0.172842   0.147812   0.252277   0.312827  -0.159338
   30  C  5  S    0.048300   0.057143   0.032958  -0.100523   0.053491
   31  C  5  S   -0.033863  -0.053398  -0.013738   0.066500  -0.032916
   32  C  5  X    0.114581   0.106329  -0.080348   0.051537   0.182389
   33  C  5  Y    0.019487  -0.137177  -0.107589   0.076697   0.023420
   34  C  5  Z   -0.055208   0.097651   0.101970  -0.096015  -0.099078
   35  C  5  S   -0.440006  -0.518930  -0.511024   1.335478  -0.568344
   36  C  5  X    0.359702   0.450942  -0.475144   0.229197   0.482106
   37  C  5  Y   -0.000323  -0.545196  -0.322195   0.175347   0.069807
   38  C  5  Z   -0.116454   0.366998   0.350638  -0.278617  -0.284126
   39  N  6  S   -0.081804  -0.054802  -0.022833   0.002160  -0.037113
   40  N  6  S    0.058890   0.028308   0.015001  -0.011018   0.013531
   41  N  6  X    0.033321   0.087893  -0.126315  -0.040723   0.164436
   42  N  6  Y    0.003928  -0.055569  -0.033037  -0.059512   0.036036
   43  N  6  Z   -0.011406   0.021775   0.068979   0.064320  -0.074893
   44  N  6  S    0.736881   0.583738   0.249737   0.061282   0.455100
   45  N  6  X    0.073143   0.182201  -0.335119  -0.076242   0.451181
   46  N  6  Y    0.049189  -0.141859  -0.171683  -0.168037   0.099215
   47  N  6  Z   -0.061212   0.069384   0.264855   0.179259  -0.203156
   48  C  7  S    0.121211   0.002649   0.048168   0.019773  -0.076164
   49  C  7  S   -0.087968  -0.004211  -0.035900  -0.011348   0.057323
   50  C  7  X    0.137297   0.085276  -0.049580   0.121869   0.103236
   51  C  7  Y    0.082598  -0.127079  -0.034805  -0.007516  -0.066653
   52  C  7  Z   -0.114665   0.086248   0.048717  -0.025827   0.029292
   53  C  7  S   -1.341481   0.042259  -0.616043  -0.353600   0.983026
   54  C  7  X    0.469790   0.355581  -0.147901   0.340543   0.560117
   55  C  7  Y    0.282820  -0.434400  -0.225730  -0.065579  -0.313845
   56  C  7  Z   -0.389482   0.278877   0.255016  -0.029413   0.124449
   57  N  8  S   -0.063899   0.028003   0.026953   0.031203   0.039458
   58  N  8  S    0.050589  -0.018997  -0.017305  -0.011872  -0.018811
   59  N  8  X   -0.003920   0.074238  -0.096980  -0.029921   0.202834
   60  N  8  Y    0.044647  -0.113626  -0.035198  -0.013387   0.035408
   61  N  8  Z   -0.037339   0.086209   0.035556  -0.008292  -0.114776
   62  N  8  S    0.526508  -0.251421  -0.237127  -0.365687  -0.479955
   63  N  8  X    0.031878   0.245547  -0.343289  -0.033540   0.607236
   64  N  8  Y    0.087477  -0.232024  -0.075173  -0.042719   0.124756
   65  N  8  Z   -0.091109   0.143998   0.120422   0.006298  -0.336742
   66  H  9  S   -0.043198   0.068324   0.005679   0.097250  -0.055005
   67  H  9  S   -0.110349   0.970749  -0.559435   0.515365  -0.570984
   68  H 10  S    0.025516  -0.024653  -0.026891  -0.092476  -0.007655
   69  H 10  S    0.087472  -0.002353  -0.805573  -1.176051  -0.467344
   70  H 11  S    0.023513   0.066446   0.106612  -0.050244   0.009211
   71  H 11  S    0.136984   1.069993   0.874900  -1.054741  -0.004146
   72  H 12  S   -0.020567   0.043526  -0.035403   0.031437   0.061581
   73  H 12  S   -0.273308   0.189063  -0.411357   0.070681   0.349272
   74  H 13  S    0.155578  -0.001348  -0.007418  -0.000332   0.000303
   75  H 13  S    1.578623  -0.160301  -0.047967   0.426729  -0.358657
   76  H 14  S   -0.007612   0.010341  -0.001841   0.005444  -0.061191
   77  H 14  S   -0.109358   0.183672  -0.343026   0.058908  -0.817939
   78  H 15  S    0.005340   0.011819  -0.015788   0.032251   0.019660
   79  H 15  S   -0.009658   0.187737  -0.432352   0.234047  -0.159318
   80  H 16  S   -0.006513  -0.074769   0.060534  -0.010287   0.012119
   81  H 16  S   -0.107839  -0.495791   0.182466   0.076971   0.129427

                     36         37         38         39         40
                    0.0430     0.0494     0.0731     0.0748     0.1010
                     A          A          A          A          A   
    1  C  1  S   -0.134364   0.024309  -0.003548   0.062011   0.071537
    2  C  1  S    0.056917  -0.007142  -0.012594  -0.024403  -0.012290
    3  C  1  X   -0.062258   0.030510  -0.228131  -0.171762   0.068473
    4  C  1  Y    0.002599  -0.201319  -0.177773   0.186686  -0.103933
    5  C  1  Z    0.125852  -0.066192   0.058545   0.036860   0.163346
    6  C  1  S    1.801456  -0.368989   0.053510  -0.840902  -1.004351
    7  C  1  X   -0.261164   0.171620  -1.058632  -0.583703   0.624958
    8  C  1  Y   -0.000603  -0.675777  -0.703453   0.740139  -0.493110
    9  C  1  Z    0.327405  -0.253038   0.265630   0.235802   0.753955
   10  H  2  S   -0.076584  -0.047139  -0.060917   0.009485  -0.058420
   11  H  2  S   -1.125639  -0.298240  -0.978524   0.633367  -0.551944
   12  C  3  S    0.040450  -0.023799   0.032185  -0.084764  -0.122308
   13  C  3  S   -0.022949   0.009400  -0.006842   0.040857   0.036325
   14  C  3  X   -0.135947  -0.051245   0.063142  -0.049950  -0.044089
   15  C  3  Y   -0.046409  -0.152353   0.067890  -0.097962   0.201143
   16  C  3  Z    0.055707   0.005100  -0.183581  -0.015599   0.174788
   17  C  3  S   -0.503670   0.278628  -0.357693   1.038114   1.693615
   18  C  3  X   -0.649106  -0.233519   0.366865  -0.046602  -0.275484
   19  C  3  Y   -0.202122  -0.483218   0.263828  -0.436172   0.806935
   20  C  3  Z    0.087189   0.110077  -0.877049  -0.079560   0.904523
   21  C  4  S    0.058091   0.023433  -0.055513   0.086657   0.101441
   22  C  4  S   -0.034888  -0.006166  -0.007976  -0.039043  -0.033962
   23  C  4  X   -0.045881  -0.023731   0.004386  -0.061957  -0.121535
   24  C  4  Y    0.055918   0.128322  -0.030626   0.081462  -0.071824
   25  C  4  Z    0.032836  -0.098429  -0.043479  -0.079512  -0.022700
   26  C  4  S   -0.762657  -0.304191   1.049598  -1.148568  -1.506933
   27  C  4  X   -0.204549  -0.138608   0.096877   0.099263  -0.549552
   28  C  4  Y    0.115474   0.550605   0.065547   0.137427  -0.209494
   29  C  4  Z    0.040111  -0.319315  -0.022065  -0.093443  -0.075927
   30  C  5  S   -0.016216   0.052026   0.030353   0.011050  -0.035020
   31  C  5  S    0.013813  -0.029246  -0.026400   0.005397   0.038645
   32  C  5  X    0.030833  -0.021021  -0.011929   0.139423   0.080033
   33  C  5  Y    0.023736  -0.054171   0.079542  -0.063931  -0.029737
   34  C  5  Z   -0.023674   0.030960  -0.045015   0.035087   0.010297
   35  C  5  S    0.145522  -0.850868  -0.320911  -0.140991   0.340030
   36  C  5  X    0.235693  -0.081975  -0.246935   0.448761   0.387131
   37  C  5  Y    0.070855  -0.093255   0.275274  -0.306456  -0.013584
   38  C  5  Z   -0.178628   0.061973  -0.171880   0.130238   0.067737
   39  N  6  S    0.014413   0.026811  -0.008743  -0.006280  -0.020468
   40  N  6  S   -0.016687  -0.006656   0.005725   0.008227  -0.004990
   41  N  6  X   -0.010652   0.004634   0.029234   0.031741  -0.016614
   42  N  6  Y    0.066923   0.139029  -0.032327   0.078016  -0.019740
   43  N  6  Z   -0.057539  -0.121216   0.010258  -0.088496   0.029764
   44  N  6  S   -0.091789  -0.392925   0.100771   0.000696   0.402689
   45  N  6  X    0.047259   0.033033   0.049004   0.099678   0.046635
   46  N  6  Y    0.201450   0.422844  -0.090672   0.258700  -0.145965
   47  N  6  Z   -0.183054  -0.376930   0.059884  -0.264456   0.092090
   48  C  7  S   -0.034227  -0.031984  -0.015389  -0.026212  -0.002626
   49  C  7  S    0.023388   0.022321   0.003601   0.017728   0.004163
   50  C  7  X   -0.032968  -0.139994   0.053787  -0.030518   0.007269
   51  C  7  Y    0.022467   0.087943   0.000641  -0.002168  -0.089548
   52  C  7  Z   -0.011491  -0.041098  -0.012358   0.022712   0.070848
   53  C  7  S    0.448317   0.501879   0.152538   0.473744   0.076853
   54  C  7  X   -0.142036  -0.568294   0.422662  -0.136912   0.117423
   55  C  7  Y    0.129778   0.477159  -0.155085   0.166082  -0.402318
   56  C  7  Z   -0.070945  -0.250605   0.018567  -0.096395   0.292764
   57  N  8  S    0.007636  -0.044485   0.044468  -0.040281  -0.002508
   58  N  8  S   -0.008004   0.011385  -0.018275   0.019962   0.008439
   59  N  8  X    0.009393  -0.038450   0.051886   0.055410   0.108952
   60  N  8  Y    0.088263   0.070675  -0.004803   0.015328   0.099430
   61  N  8  Z   -0.078230  -0.065026  -0.026450  -0.072747  -0.031968
   62  N  8  S   -0.069095   0.611732  -0.589324   0.461071  -0.043883
   63  N  8  X    0.032031  -0.079584   0.139845   0.218247   0.251397
   64  N  8  Y    0.189693   0.215635  -0.061226   0.126348   0.203948
   65  N  8  Z   -0.201358  -0.201974   0.003637  -0.193480  -0.148203
   66  H  9  S    0.051715   0.002311  -0.029279  -0.032597   0.029029
   67  H  9  S    0.646413   0.378498  -0.750713  -0.191473  -0.479318
   68  H 10  S    0.019870  -0.044560  -0.031968   0.005203   0.043360
   69  H 10  S    0.230709  -0.619625  -0.057697  -0.780826   0.617848
   70  H 11  S   -0.043166  -0.023338   0.015500   0.013806   0.030304
   71  H 11  S   -0.294834   0.488343  -0.168704   0.377370  -0.100050
   72  H 12  S    0.006589  -0.043057   0.006214   0.013465   0.056321
   73  H 12  S   -0.052839  -0.197138   0.100777  -0.063960   0.036562
   74  H 13  S   -0.006788   0.008974  -0.011894   0.027425   0.016855
   75  H 13  S   -0.231018  -0.273181   0.109101  -0.208233  -0.327123
   76  H 14  S    0.049540  -0.017046   0.074553   0.084586   0.004339
   77  H 14  S   -0.124509  -0.186709   1.159038   1.192995   0.099752
   78  H 15  S   -0.038759   0.092480   0.025174  -0.055738   0.010971
   79  H 15  S   -0.935092   1.142621   0.444806  -0.704909   0.569716
   80  H 16  S    0.068130   0.078076   0.021637  -0.008045   0.019913
   81  H 16  S    0.407495   0.281651   0.119836  -0.083572   0.103752

                     41         42         43         44         45
                    0.1249     0.1862     0.2302     0.2766     0.4806
                     A          A          A          A          A   
    1  C  1  S    0.039860  -0.003091  -0.012190  -0.011218   0.005420
    2  C  1  S   -0.004897  -0.003651  -0.011134   0.009769   0.009373
    3  C  1  X    0.047658   0.028459   0.068482   0.010798  -0.155754
    4  C  1  Y    0.047309  -0.002339  -0.040951   0.015082  -0.116967
    5  C  1  Z    0.242177  -0.050128  -0.031085   0.058811   0.003145
    6  C  1  S   -0.604391   0.027893   0.362788   0.134513  -0.028602
    7  C  1  X    0.320564   0.041723  -0.131160  -0.146868   0.215357
    8  C  1  Y    0.262977   0.019406  -0.333181  -0.073373   0.173601
    9  C  1  Z    1.115175  -0.210578  -0.182223   0.164107  -0.030625
   10  H  2  S   -0.023307  -0.003152  -0.012050  -0.023913   0.178048
   11  H  2  S   -0.413556   0.175254  -0.166781  -0.229350   0.000334
[...]

     ATOMIC MULLIKEN POPULATION IN EACH MOLECULAR ORBITAL

                      1          2          3          4          5

                  2.000000   2.000000   2.000000   2.000000   2.000000

    1            -0.000000  -0.000002   0.000000   0.000167   0.000001
    2             0.000000  -0.000002   0.000000  -0.000003   0.000000
    3             0.000001   0.000104  -0.000002   0.004260   0.000085
    4            -0.000978   0.008739   0.000892   1.981091   0.016514
    5             0.007496  -0.000894   0.000311   0.014252   1.980434
    6             1.984947   0.000855  -0.000614  -0.000065   0.000342
    7             0.006588   0.006658   1.997784   0.000748   0.001070
    8             0.000955   1.983633  -0.001067  -0.000481  -0.000170
    9            -0.000000  -0.000000   0.000000  -0.000034   0.000009
   10            -0.000000   0.000001  -0.000000   0.000084   0.000000
   11             0.000122  -0.000004   0.000001  -0.000001   0.001711
   12             0.000781   0.000003  -0.000005  -0.000000  -0.000002
   13             0.000091   0.000095   0.002711   0.000003   0.000007
   14             0.000000  -0.000000  -0.000000  -0.000001  -0.000000
   15            -0.000000   0.000000  -0.000000   0.000003  -0.000000
   16            -0.000003   0.000813  -0.000012  -0.000022   0.000000

                      6          7          8          9         10

                  2.000000   2.000000   2.000000   2.000000   2.000000

    1             0.005237   1.985996  -0.000536   0.000637   0.045563
    2             0.000010   0.003201   0.000201   0.000437   0.001332
    3             1.977691   0.004194   0.002133  -0.004188   0.347947
    4             0.010269   0.000221   0.123436   0.051282   0.522635
    5             0.000116   0.000003   0.117916   0.039304   0.383842
    6            -0.000001  -0.000000   0.797815   0.837804   0.133278
    7             0.000003  -0.000000   0.147276   0.107686   0.272171
    8             0.000015  -0.000002   0.786255   0.844812   0.221091
    9             0.003373   0.000024   0.000228   0.000623   0.006807
   10             0.003280   0.000033  -0.000530  -0.000404   0.002919
   11             0.000004   0.000000  -0.001780  -0.007721   0.020592
   12             0.000000   0.000000   0.024538   0.064663   0.002149
   13             0.000000   0.000000  -0.020489  -0.000001   0.030410
   14            -0.000013   0.003107   0.000009   0.000006  -0.000166
   15             0.000011   0.003223  -0.000095  -0.000181   0.001542
   16             0.000003  -0.000001   0.023622   0.065243   0.007889

                     11         12         13         14         15

                  2.000000   2.000000   2.000000   2.000000   2.000000

    1             0.449319   0.006760   0.376194   0.387999   0.250718
    2             0.021296   0.000045   0.028694   0.044543   0.043253
    3             0.738686   0.019712   0.059409   0.166187   0.375818
    4             0.122546   0.076614   0.232082   0.224003   0.147558
    5             0.202049   0.094371   0.284654   0.245317   0.180321
    6             0.189459   0.603627   0.319935   0.058868   0.214383
    7             0.097360   0.246856   0.162832   0.338051   0.324121
    8             0.028018   0.588095   0.379562   0.216072   0.078185
    9             0.032524   0.001854   0.000357   0.022782   0.056746
   10             0.031886   0.000257   0.000053   0.008644   0.078136
   11             0.014763   0.003090   0.060803   0.064802   0.020450
   12             0.019559   0.161484   0.015327   0.006817   0.024720
   13             0.016341   0.022801   0.001546   0.126520   0.138491
   14             0.016931   0.000151   0.036105   0.041538   0.025604
   15             0.016404   0.000630   0.031294   0.033335   0.040154
   16             0.002860   0.173653   0.011153   0.014523   0.001343

                     16         17         18         19         20

                  2.000000   2.000000   2.000000   2.000000   2.000000

    1             0.001083   0.014180   0.028421   0.012936   0.266838
    2             0.001432   0.000384   0.001336   0.001322   0.019441
    3             0.003250   0.090182   0.023002   0.053724   0.660792
    4             0.012104   0.226126   0.233558   0.210502   0.448356
    5             0.017191   0.265498   0.217804   0.867958   0.042502
    6             0.611158   0.324743   0.525463   0.069328   0.084042
    7             0.224403   0.479816   0.427570   0.073991   0.069043
    8             0.657664   0.189628   0.500874   0.142951   0.068537
    9             0.000622   0.014608   0.000205   0.010509   0.086748
   10             0.000037   0.024350   0.005612   0.007285   0.123905
   11            -0.000072   0.017130   0.006538   0.492571   0.003875
   12             0.231595   0.020134   0.002168   0.013017   0.004887
   13             0.001251   0.301595   0.016615   0.010388   0.007723
   14             0.000080   0.000474   0.008651   0.001116   0.073974
   15             0.000061   0.006290   0.000264   0.003591   0.036715
   16             0.238142   0.024861   0.001919   0.028811   0.002622

                     21         22         23         24         25

                  2.000000   2.000000   2.000000   2.000000   2.000000

    1             0.430555   0.565881   0.207042   0.836663   0.588545
    2             0.170091   0.000312   0.060677   0.126153   0.284082
    3             0.655691   0.508009   0.244821   0.144839   0.322210
    4             0.059386   0.229809   0.010357   0.147674   0.010909
    5             0.052014   0.028033   0.149990   0.004607   0.034431
    6             0.043099   0.315992   0.491640   0.024302   0.030760
    7             0.038813   0.034103   0.023309   0.004093   0.015883
    8             0.073112   0.117095   0.745633   0.026057   0.084160
    9             0.197143   0.017559   0.049749   0.064354   0.179544
   10             0.169887   0.005197   0.003315   0.047418   0.164643
   11             0.007890   0.000021   0.000100   0.000415   0.000198
   12             0.003845   0.002393   0.000352   0.001100   0.000454
   13             0.009188   0.000074   0.000353   0.001071   0.000859
   14             0.000019   0.089090   0.011709   0.432494   0.001124
   15             0.085272   0.084745   0.000687   0.137461   0.281759
   16             0.003992   0.001687   0.000266   0.001300   0.000438

                     26

                  2.000000

    1             0.092785
    2             0.000163
    3             0.081790
    4             0.556843
    5             0.693805
    6             0.046294
    7             0.433794
    8             0.002957
    9             0.000144
   10             0.067610
   11            -0.000001
   12             0.000001
   13            -0.000000
   14             0.012369
   15             0.011445
   16             0.000000

               ----- POPULATIONS IN EACH AO -----
                             MULLIKEN      LOWDIN
              1  C  1  S      1.98632     1.97431
              2  C  1  S      0.36777     0.42256
              3  C  1  X      0.56181     0.53015
              4  C  1  Y      0.57465     0.53447
              5  C  1  Z      0.54168     0.50781
              6  C  1  S      1.11099     0.58239
              7  C  1  X      0.48228     0.56689
              8  C  1  Y      0.52266     0.58991
              9  C  1  Z      0.40483     0.54390
             10  H  2  S      0.47149     0.46999
             11  H  2  S      0.33691     0.43950
             12  C  3  S      1.98788     1.97384
             13  C  3  S      0.36029     0.41449
             14  C  3  X      0.52292     0.49598
             15  C  3  Y      0.58994     0.55115
             16  C  3  Z      0.57397     0.54146
             17  C  3  S      1.16190     0.55452
             18  C  3  X      0.26444     0.49231
             19  C  3  Y      0.55712     0.58322
             20  C  3  Z      0.46189     0.55839
             21  C  4  S      1.98563     1.97396
             22  C  4  S      0.41443     0.42474
             23  C  4  X      0.64050     0.61726
             24  C  4  Y      0.51766     0.49192
             25  C  4  Z      0.49294     0.46902
             26  C  4  S      0.72052     0.51472
             27  C  4  X      0.26705     0.48017
             28  C  4  Y      0.30533     0.47797
             29  C  4  Z      0.31846     0.48284
             30  C  5  S      1.98514     1.97408
             31  C  5  S      0.41040     0.42348
             32  C  5  X      0.53066     0.50743
             33  C  5  Y      0.58883     0.56159
             34  C  5  Z      0.54895     0.52537
             35  C  5  S      0.78392     0.54192
             36  C  5  X      0.15256     0.40471
             37  C  5  Y      0.46455     0.54929
             38  C  5  Z      0.45832     0.54689
             39  N  6  S      1.98698     1.97605
             40  N  6  S      0.37805     0.47413
             41  N  6  X      0.63562     0.61137
             42  N  6  Y      0.64331     0.62373
             43  N  6  Z      0.64598     0.62866
             44  N  6  S      1.35724     0.69672
             45  N  6  X      0.68111     0.64384
             46  N  6  Y      0.68170     0.69218
             47  N  6  Z      0.69746     0.71479
             48  C  7  S      1.98398     1.97357
             49  C  7  S      0.42111     0.42404
             50  C  7  X      0.57822     0.55190
             51  C  7  Y      0.53461     0.51366
             52  C  7  Z      0.54313     0.51985
             53  C  7  S      0.63948     0.53477
             54  C  7  X      0.18207     0.41688
             55  C  7  Y      0.28921     0.45689
             56  C  7  Z      0.36220     0.49665
             57  N  8  S      1.98726     1.97610
             58  N  8  S      0.37584     0.47646
             59  N  8  X      0.62323     0.59850
             60  N  8  Y      0.64894     0.63130
             61  N  8  Z      0.65082     0.63543
             62  N  8  S      1.37800     0.69718
             63  N  8  X      0.59112     0.62556
             64  N  8  Y      0.73988     0.70674
             65  N  8  Z      0.73856     0.72581
             66  H  9  S      0.46588     0.46662
             67  H  9  S      0.28059     0.40608
             68  H 10  S      0.46307     0.46647
             69  H 10  S      0.28055     0.40886
             70  H 11  S      0.46524     0.44845
             71  H 11  S      0.24026     0.39962
             72  H 12  S      0.42749     0.42648
             73  H 12  S      0.17249     0.30992
             74  H 13  S      0.46287     0.44627
             75  H 13  S      0.20477     0.39388
             76  H 14  S      0.46572     0.46232
             77  H 14  S      0.28866     0.41567
             78  H 15  S      0.46770     0.46596
             79  H 15  S      0.30691     0.42498
             80  H 16  S      0.42806     0.42716
             81  H 16  S      0.17705     0.31388

          ----- MULLIKEN ATOMIC OVERLAP POPULATIONS -----
          (OFF-DIAGONAL ELEMENTS NEED TO BE MULTIPLIED BY 2)

             1           2           3           4           5

    1    5.3283145
    2    0.3658880   0.5337668
    3    0.2710516  -0.0416060   5.4320384
    4   -0.0830023  -0.0039374   0.2291487   5.0116571
    5    0.0001279  -0.0000238  -0.0405411   0.5618348   4.9849811
    6   -0.0000413   0.0000013   0.0029297  -0.0367646   0.2410148
    7    0.0000936  -0.0000318   0.0023386  -0.1214889  -0.1246256
    8   -0.0013050   0.0018151  -0.0449138   0.2310872  -0.0626043
    9   -0.0326320   0.0029638   0.3739430  -0.0417519  -0.0043315
   10   -0.0361321  -0.0021674   0.3714950  -0.0492231   0.0011210
   11   -0.0000101   0.0000015  -0.0017057  -0.0231733   0.3758019
   12    0.0000010  -0.0000000  -0.0000396   0.0028441  -0.0149025
   13    0.0000011   0.0000011  -0.0000341   0.0016381   0.0017756
   14    0.3694681  -0.0237261  -0.0323644   0.0043402  -0.0000201
   15    0.3693622  -0.0265847  -0.0404077  -0.0017657   0.0006067
   16    0.0017976   0.0020380  -0.0009836  -0.0189172   0.0031095

             6           7           8           9          10

    6    6.9676139
    7    0.3466746   4.7583312
    8   -0.0910612   0.3494565   7.0419869
    9    0.0000226  -0.0000853   0.0021595   0.4720724
   10   -0.0000388   0.0000521  -0.0020139  -0.0226450   0.4812266
   11   -0.0278197   0.0025443   0.0026513   0.0009518  -0.0000032
   12    0.3290052  -0.0222375   0.0023638  -0.0000004   0.0000008
   13   -0.0263689   0.3649738  -0.0254954   0.0000005   0.0000003
   14    0.0000001   0.0000001   0.0000388  -0.0019332  -0.0015106
   15   -0.0000063  -0.0000329  -0.0001418  -0.0022953   0.0029760
   16    0.0022943  -0.0219393   0.3296163   0.0000374   0.0004806

            11          12          13          14          15

   11    0.3773087
   12   -0.0009851   0.3049795
   13   -0.0000206  -0.0010204   0.3531759
   14    0.0000003  -0.0000000  -0.0000000   0.4618041
   15   -0.0000034   0.0000001   0.0000001  -0.0216874   0.4946204
   16   -0.0000417  -0.0000296  -0.0009843  -0.0000387  -0.0000287

            16

   16    0.3086922

          TOTAL MULLIKEN AND LOWDIN ATOMIC POPULATIONS
       ATOM         MULL.POP.    CHARGE          LOW.POP.     CHARGE
    1 C             6.552983   -0.552983         6.252407   -0.252407
    2 H             0.808398    0.191602         0.909488    0.090512
    3 C             6.480349   -0.480349         6.165368   -0.165368
    4 C             5.662526    0.337474         5.932593    0.067407
    5 C             5.923324    0.076676         6.034755   -0.034755
    6 N             7.707456   -0.707456         7.061470   -0.061470
    7 C             5.534023    0.465977         5.888218    0.111782
    8 N             7.733640   -0.733640         7.073069   -0.073069
    9 H             0.746476    0.253524         0.872706    0.127294
   10 H             0.743618    0.256382         0.875335    0.124665
   11 H             0.705497    0.294503         0.848068    0.151932
   12 H             0.599979    0.400021         0.736396    0.263604
   13 H             0.667643    0.332357         0.840150    0.159850
   14 H             0.754371    0.245629         0.877996    0.122004
   15 H             0.774612    0.225388         0.890942    0.109058
   16 H             0.605103    0.394897         0.741039    0.258961

          -------------------------------
          BOND ORDER AND VALENCE ANALYSIS     BOND ORDER THRESHOLD=0.050
          -------------------------------

                   BOND                       BOND                       BOND
  ATOM PAIR DIST  ORDER      ATOM PAIR DIST  ORDER      ATOM PAIR DIST  ORDER
    1   2  1.096  0.919        1   3  1.554  0.920        1  14  1.093  0.906
    1  15  1.094  0.911        3   4  1.498  0.923        3   9  1.094  0.887
    3  10  1.098  0.878        4   5  1.369  1.610        4   8  1.406  0.923
    5   6  1.400  0.960        5   7  2.247  0.065        5  11  1.074  0.890
    6   7  1.344  1.185        6   8  2.159  0.080        6  12  1.018  0.814
    7   8  1.348  1.175        7  13  1.075  0.864        8  16  1.018  0.815

                       TOTAL       BONDED        FREE
      ATOM            VALENCE     VALENCE     VALENCE
    1 C                 3.652       3.652       0.000
    2 H                 0.919       0.919       0.000
    3 C                 3.601       3.601       0.000
    4 C                 3.513       3.513      -0.000
    5 C                 3.573       3.573       0.000
    6 N                 3.086       3.086       0.000
    7 C                 3.331       3.331       0.000
    8 N                 3.043       3.043      -0.000
    9 H                 0.894       0.894       0.000
   10 H                 0.888       0.888       0.000
   11 H                 0.893       0.893       0.000
   12 H                 0.826       0.826       0.000
   13 H                 0.864       0.864       0.000
   14 H                 0.903       0.903       0.000
   15 H                 0.907       0.907       0.000
   16 H                 0.832       0.832       0.000

          ---------------------
          ELECTROSTATIC MOMENTS
          ---------------------

 POINT   1           X           Y           Z (BOHR)    CHARGE
                -2.845940   -0.267733   -0.191918        1.00 (A.U.)
         DX          DY          DZ         /D/  (DEBYE)
    -3.725423   -0.640437    0.881260    3.881437
 ...... END OF PROPERTY EVALUATION ......
 CPU     0: STEP CPU TIME=     0.04 TOTAL CPU TIME=        386.4 (      6.4 MIN)
 TOTAL WALL CLOCK TIME=        390.8 SECONDS, CPU UTILIZATION IS    98.87%
  $VIB   
          IVIB=   0 IATOM=   0 ICOORD=   0 E=     -303.3756503587
 -2.587580176E-05-5.134376501E-06 7.920245745E-06-2.393337675E-06-1.100139619E-05
 -1.101649503E-05 1.338115555E-05 1.058522717E-05 1.989868511E-06-6.307122039E-06
 -6.355861811E-06 6.820921036E-06-2.066784334E-06-5.962546935E-06 1.638888485E-06
  4.127297360E-06 2.912263167E-05-1.106534099E-05-1.914424987E-05-1.615956064E-05
  1.245245999E-05 2.757655772E-05 7.544695376E-06-1.033899072E-05-5.806954561E-06
  2.728238485E-06 7.337510019E-06-3.715777366E-06-1.089983327E-05-2.983039603E-08
  2.565810150E-06-4.250617921E-06 7.312837619E-06 2.045641341E-06-6.778749863E-06
 -3.182716495E-06 3.313929423E-06 3.076969393E-06-3.113268031E-06-2.658438901E-06
  5.097526380E-06 3.956377762E-06 2.847646575E-06 1.179763385E-06-1.372548752E-05
  1.211042839E-05 7.207891281E-06 3.043020012E-06
 -3.725422522E+00-6.404368257E-01 8.812602271E-01
 ......END OF GEOMETRY SEARCH......
 CPU     0: STEP CPU TIME=     0.00 TOTAL CPU TIME=        386.4 (      6.4 MIN)
 TOTAL WALL CLOCK TIME=        390.8 SECONDS, CPU UTILIZATION IS    98.87%
               627416  WORDS OF DYNAMIC MEMORY USED
 EXECUTION OF GAMESS TERMINATED NORMALLY Sun May 17 14:27:09 2020
 DDI: 263640 bytes (0.3 MB / 0 MWords) used by master data server.
Note: The following floating-point exceptions are signalling: IEEE_UNDERFLOW_FLAGNote: The following floating-point exceptions are signalling: IEEE_UNDERFLOW_FLAGNote: The following floating-point exceptions are signalling: IEEE_UNDERFLOW_FLAG
 ----------------------------------------
 CPU timing information for all processes
 ========================================
 0: 381.857 + 4.514 = 386.371
 1: 382.80 + 1.797 = 383.877
 2: 381.744 + 1.341 = 383.86
 3: 382.492 + 1.389 = 383.881
 4: 381.616 + 1.465 = 383.81
 5: 381.804 + 1.204 = 383.09
 ----------------------------------------
 IEEE_DENORMAL
 IEEE_DENORMAL
 IEEE_DENORMAL
Note: The following floating-point exceptions are signalling: IEEE_UNDERFLOW_FLAGNote: The following floating-point exceptions are signalling: IEEE_UNDERFLOW_FLAGNote: The following floating-point exceptions are signalling: IEEE_DENORMAL
 IEEE_DENORMAL
 IEEE_UNDERFLOW_FLAG IEEE_DENORMAL
 ddikick.x: exited gracefully.
unset echo
----- accounting info -----
Files used on the master node pietdev were:
-rwxr-xr-x 1 piet piet      817 mei 17 14:20 /home/piet/scr/histidine_1__geoopt.F05*
-rw-r--r-- 1 piet piet 57344000 mei 17 14:27 /home/piet/scr/histidine_1__geoopt.F10
-rw-r--r-- 1 piet piet  4228752 mei 17 14:26 /home/piet/scr/histidine_1__geoopt.F22
-rw-r--r-- 1 piet piet  4228752 mei 17 14:26 /home/piet/scr/histidine_1__geoopt.F22.001
-rw-r--r-- 1 piet piet  4228752 mei 17 14:26 /home/piet/scr/histidine_1__geoopt.F22.002
-rw-r--r-- 1 piet piet  4228752 mei 17 14:26 /home/piet/scr/histidine_1__geoopt.F22.003
-rw-r--r-- 1 piet piet  4228752 mei 17 14:26 /home/piet/scr/histidine_1__geoopt.F22.004
-rw-r--r-- 1 piet piet  4228752 mei 17 14:26 /home/piet/scr/histidine_1__geoopt.F22.005
ls: No match.
ls: No match.
ls: No match.
zo 17 mei 2020 14:27:12 CEST
0.093u 0.043s 6:33.93 0.0%	0+0k 0+8io 0pf+0w
