----- GAMESS execution script 'rungms' -----
This job is running on host pietdev
under operating system Linux at zo 17 mei 2020 14:27:56 CEST
Available scratch disk space (Kbyte units) at beginning of the job is
Filesystem     1K-blocks     Used Available Use% Mounted on
/dev/sda2      244568380 30379788 201695536  14% /
GAMESS temporary binary files will be written to /home/piet/scr
GAMESS supplementary output files will be written to /home/piet/gamess/scr
Copying input file histidine_1__charge_geodisk.inp to your run's scratch directory...
cp histidine_1__charge_geodisk.inp /home/piet/scr/histidine_1__charge_geodisk.F05
unset echo
 
Assuming a single but multicore node.
 
/home/piet/gamess/ddikick.x /home/piet/gamess/gamess.03.x histidine_1__charge_geodisk -ddi 1 6 pietdev:cpus=6 -scr /home/piet/scr

 Distributed Data Interface kickoff program.
 Initiating 6 compute processes on 1 nodes to run the following command:
 /home/piet/gamess/gamess.03.x histidine_1__charge_geodisk 

          ******************************************************
          *         GAMESS VERSION = 30 SEP 2019 (R2)          *
          *             FROM IOWA STATE UNIVERSITY             *
          * M.W.SCHMIDT, K.K.BALDRIDGE, J.A.BOATZ, S.T.ELBERT, *
          *   M.S.GORDON, J.H.JENSEN, S.KOSEKI, N.MATSUNAGA,   *
          *          K.A.NGUYEN, S.J.SU, T.L.WINDUS,           *
          *       TOGETHER WITH M.DUPUIS, J.A.MONTGOMERY       *
          *         J.COMPUT.CHEM.  14, 1347-1363(1993)        *
          **************** 64 BIT LINUX VERSION ****************

  SINCE 1993, STUDENTS AND POSTDOCS WORKING AT IOWA STATE UNIVERSITY
  AND ALSO IN THEIR VARIOUS JOBS AFTER LEAVING ISU HAVE MADE IMPORTANT
  CONTRIBUTIONS TO THE CODE:
     IVANA ADAMOVIC, CHRISTINE AIKENS, YURI ALEXEEV, POOJA ARORA,
     ANDREY ASADCHEV, ROB BELL, PRADIPTA BANDYOPADHYAY, JONATHAN BENTZ,
     COLLEEN BERTONI, BRETT BODE, KURT BRORSEN, CALEB CARLIN, GALINA CHABAN,
     WEI CHEN, CHEOL HO CHOI, PAUL DAY, ALBERT DEFUSCO, NUWAN DESILVA,
     TIM DUDLEY, DMITRI FEDOROV, ALEX FINDLATER, GRAHAM FLETCHER, 
     MARK FREITAG, KURT GLAESEMANN, EMILIE B GUIDEZ, ANASTASIA GUNINA, 
     DAN KEMP, SAROM SOK LEANG, GRANT MERRILL,
     NORIYUKI MINEZAWA, JONATHAN MULLIN,
     TAKESHI NAGATA, SEAN NEDD, HEATHER NETZLOFF, BOSILJKA NJEGIC, RYAN OLSON,
     MIKE PAK, BUU PHAM, DAVID POOLE,
     SPENCER PRUITT, LUKE ROSKOP, TOSAPORN SATTASATHUCHANA,
     JIM SHOEMAKER, LYUDMILA SLIPCHENKO,
     TONY SMITH, JIE SONG, TETSUYA TAKETSUGU, SIMON WEBB,
     JORGE LUIS GALVEZ VALLEJO, PENG XU, SOOHAENG YOO,
     FEDERICO ZAHARIEV

  ADDITIONAL CODE HAS BEEN PROVIDED BY COLLABORATORS IN OTHER GROUPS:
     IOWA STATE UNIVERSITY:
          JOE IVANIC, AARON WEST, LAIMUTIS BYTAUTAS, KLAUS RUEDENBERG
     UNIVERSITY OF TOKYO: KIMIHIKO HIRAO, TAKAHITO NAKAJIMA,
          TAKAO TSUNEDA, MUNEAKI KAMIYA, SUSUMU YANAGISAWA,
          KIYOSHI YAGI, MAHITO CHIBA, SEIKEN TOKURA, NAOAKI KAWAKAMI
     UNIVERSITY OF AARHUS: FRANK JENSEN
     UNIVERSITY OF IOWA: VISVALDAS KAIRYS, HUI LI
     NATIONAL INST. OF STANDARDS AND TECHNOLOGY: WALT STEVENS, DAVID GARMER
     UNIVERSITY OF PISA: BENEDETTA MENNUCCI, JACOPO TOMASI
     UNIVERSITY OF MEMPHIS: HENRY KURTZ, PRAKASHAN KORAMBATH
     UNIVERSITY OF ALBERTA: TOBY ZENG, MARIUSZ KLOBUKOWSKI
     UNIVERSITY OF NEW ENGLAND: MARK SPACKMAN
     MIE UNIVERSITY: HIROAKI UMEDA
     NAT. INST. OF ADVANCED INDUSTRIAL SCIENCE AND TECHNOLOGY: KAZUO KITAURA
     MICHIGAN STATE UNIVERSITY:
          KAROL KOWALSKI, MARTA WLOCH, JEFFREY GOUR, JESSE LUTZ,
          WEI LI, JUN SHEN, J. EMILIANO DEUSTUA, PIOTR PIECUCH
     UNIVERSITY OF MINNESOTA:
          ANDREW SAND, PRACHI SHARMA, YINAN SHU
     UNIVERSITY OF SILESIA: MONIKA MUSIAL, STANISLAW KUCHARSKI
     FACULTES UNIVERSITAIRES NOTRE-DAME DE LA PAIX:
          OLIVIER QUINET, BENOIT CHAMPAGNE
     UNIVERSITY OF CALIFORNIA - SANTA BARBARA: BERNARD KIRTMAN
     INSTITUTE FOR MOLECULAR SCIENCE:
          KAZUYA ISHIMURA, MICHIO KATOUDA, AND SHIGERU NAGASE
     UNIVERSITY OF NOTRE DAME: ANNA POMOGAEVA, DAN CHIPMAN
     KYUSHU UNIVERSITY:
          HARUYUKI NAKANO,
          FENG LONG GU, JACEK KORCHOWIEC, MARCIN MAKOWSKI, AND YURIKO AOKI,
          HIROTOSHI MORI AND EISAKU MIYOSHI
     PENNSYLVANIA STATE UNIVERSITY:
          TZVETELIN IORDANOV, CHET SWALINA, JONATHAN SKONE,
          SHARON HAMMES-SCHIFFER
     WASEDA UNIVERSITY:
          MASATO KOBAYASHI, TOMOKO AKAMA, TSUGUKI TOUMA,
          TAKESHI YOSHIKAWA, YASUHIRO IKABATA, JUNJI SEINO,
          YUYA NAKAJIMA, HIROMI NAKAI
     NANJING UNIVERSITY: SHUHUA LI
     UNIVERSITY OF NEBRASKA:
          PEIFENG SU, DEJUN SI, NANDUN THELLAMUREGE, YALI WANG, HUI LI
     UNIVERSITY OF ZURICH: ROBERTO PEVERATI, KIM BALDRIDGE
     N. COPERNICUS UNIVERSITY AND JACKSON STATE UNIVERSITY:
          MARIA BARYSZ
     UNIVERSITY OF COPENHAGEN: Jimmy Kromann, CASPER STEINMANN
     TOKYO INSTITUTE OF TECHNOLOGY: HIROYA NAKATA
     NAGOYA UNIVERSITY: YOSHIO NISHIMOTO, STEPHAN IRLE
     MOSCOW STATE UNIVERSITY: VLADIMIR MIRONOV
     A.N.NESMEYANOV INSTITUTE OF ORGANOELEMENT COMPOUNDS OF RUSSIAN ACADEMY OF SCIENCES:
          IGOR S. GERASIMOV
     JOHANNES KEPLER UNIVERSITY LINZ:
          CHRISTIAN FRIEDL


 PARALLEL VERSION RUNNING ON        6 PROCESSORS IN        1 NODES.

 EXECUTION OF GAMESS BEGUN Sun May 17 14:27:56 2020

            ECHO OF THE FIRST FEW INPUT CARDS -
 INPUT CARD> $BASIS GBASIS=N21 NGAUSS=3 $END                                                
 INPUT CARD> $CONTRL SCFTYP=RHF DFTTYP=B3LYP MAXIT=60 MULT=1 ICHARG=1 $END                  
 INPUT CARD> $SYSTEM MEMDDI=1000 MWORDS=30 $END                                             
 INPUT CARD> $SCF DIRSCF=.TRUE. $END                                                        
 INPUT CARD> $ELPOT  IEPOT=1 WHERE=PDC $END                                                 
 INPUT CARD> $PDC PTSEL=GEODESIC CONSTR=CHARGE $END                                         
 INPUT CARD> $DATA                                                                          
 INPUT CARD>                                                                                
 INPUT CARD>C1                                                                              
 INPUT CARD>C 6.0000000 1.1119728886 0.0185960898 0.4225240780                              
 INPUT CARD>H 1.0000000 0.9609576308 -0.7442144843 1.1945474013                             
 INPUT CARD>C 6.0000000 0.1899672159 -0.2241074343 -0.8040935694                            
 INPUT CARD>C 6.0000000 -1.2638048138 -0.1397502759 -0.4526865600                           
 INPUT CARD>C 6.0000000 -2.2507902475 0.7036177816 -0.8885943770                            
 INPUT CARD>N 7.0000000 -3.4265162192 0.3510686776 -0.2156318697                            
 INPUT CARD>C 6.0000000 -3.1873698216 -0.6772500771 0.6161991018                            
 INPUT CARD>N 7.0000000 -1.8821626799 -0.9857236937 0.4847368982                            
 INPUT CARD>H 1.0000000 0.3938420190 0.5246645861 -1.5754974671                             
 INPUT CARD>H 1.0000000 0.4016340277 -1.2077842947 -1.2432003925                            
 INPUT CARD>H 1.0000000 -2.2093711890 1.5024314598 -1.6058103210                            
 INPUT CARD>H 1.0000000 -4.3289927413 0.8051850220 -0.3372796912                            
 INPUT CARD>H 1.0000000 -3.8992682954 -1.1604736288 1.2612411822                            
 INPUT CARD>H 1.0000000 2.1577702782 -0.0291077350 0.1067159614                             
 INPUT CARD>H 1.0000000 0.9247636641 1.0037556865 0.8590231659                              
 INPUT CARD>H 1.0000000 -1.4063617165 -1.7261876795 0.9955364592                            
 INPUT CARD> $END                                                                           
   30000000 WORDS OF MEMORY AVAILABLE

     BASIS OPTIONS
     -------------
     GBASIS=N21          IGAUSS=       3      POLAR=NONE    
     NDFUNC=       0     NFFUNC=       0     DIFFSP=       F
     NPFUNC=       0      DIFFS=       F     BASNAM=        


     RUN TITLE
     ---------
                                                                                 

 THE POINT GROUP OF THE MOLECULE IS C1      
 THE ORDER OF THE PRINCIPAL AXIS IS     0

 ATOM      ATOMIC                      COORDINATES (BOHR)
           CHARGE         X                   Y                   Z
 C           6.0     2.1013240652        0.0351415142        0.7984547306
 H           1.0     1.8159466080       -1.4063614514        2.2573672678
 C           6.0     0.3589859847       -0.4235016426       -1.5195165147
 C           6.0    -2.3882448000       -0.2640897282       -0.8554535567
 C           6.0    -4.2533768236        1.3296448073       -1.6791998868
 N           7.0    -6.4751767468        0.6634236035       -0.4074851480
 C           6.0    -6.0232555844       -1.2798170709        1.1644474563
 N           7.0    -3.5567717293       -1.8627476807        0.9160199137
 H           1.0     0.7442534984        0.9914723032       -2.9772585072
 H           1.0     0.7589782597       -2.2823813693       -2.3493080897
 H           1.0    -4.1751061524        2.8391837744       -3.0345414949
 H           1.0    -8.1806100839        1.5215790610       -0.6373661976
 H           1.0    -7.3685486309       -2.1929771744        2.3834002388
 H           1.0     4.0775945702       -0.0550056433        0.2016639256
 H           1.0     1.7475499286        1.8968232061        1.6233184007
 H           1.0    -2.6576382838       -3.2620217176        1.8812911187

          INTERNUCLEAR DISTANCES (ANGS.)
          ------------------------------

                1 C          2 H          3 C          4 C          5 C     

   1 C       0.0000000    1.0957671 *  1.5535734 *  2.5368064 *  3.6737532  
   2 H       1.0957671 *  0.0000000    2.2044281 *  2.8334298 *  4.0928013  
   3 C       1.5535734 *  2.2044281 *  0.0000000    1.4980174 *  2.6124914 *
   4 C       2.5368064 *  2.8334298 *  1.4980174 *  0.0000000    1.3694618 *
   5 C       3.6737532    4.0928013    2.6124914 *  1.3694618 *  0.0000000  
   6 N       4.5951784    4.7368954    3.7089173    2.2303405 *  1.3998218 *
   7 C       4.3595940    4.1889846    3.6917442    2.2652869 *  2.2468602 *
   8 N       3.1586985    2.9403215 *  2.5563383 *  1.4059873 *  2.2081213 *
   9 H       2.1826377 *  3.0991649    1.0942068 *  2.1094891 *  2.7382366 *
  10 H       2.1870592 *  2.5436891 *  1.0978332 *  2.1305622 *  3.2885495  
  11 H       4.1650011    4.7896144    3.0627620    2.2182315 *  1.0743452 *
  12 H       5.5497866    5.7210758    4.6581496    3.2096103    2.1524845 *
  13 H       5.2159553    4.8784747    4.6759209    3.3053127    3.2884814  
  14 H       1.0934819 *  1.7683652 *  2.1771191 *  3.4687677    4.5785298  
  15 H       1.0936719 *  1.7802489 *  2.1939761 *  2.7960723 *  3.6370857  
  16 H       3.1168290    2.5706181 *  2.8360500 *  2.1527787 *  3.1885676  

                6 N          7 C          8 N          9 H         10 H     

   1 C       4.5951784    4.3595940    3.1586985    2.1826377 *  2.1870592 *
   2 H       4.7368954    4.1889846    2.9403215 *  3.0991649    2.5436891 *
   3 C       3.7089173    3.6917442    2.5563383 *  1.0942068 *  1.0978332 *
   4 C       2.2303405 *  2.2652869 *  1.4059873 *  2.1094891 *  2.1305622 *
   5 C       1.3998218 *  2.2468602 *  2.2081213 *  2.7382366 *  3.2885495  
   6 N       0.0000000    1.3440883 *  2.1592957 *  4.0588800    4.2591847  
   7 C       1.3440883 *  0.0000000    1.3475919 *  4.3672887    4.0767366  
   8 N       2.1592957 *  1.3475919 *  0.0000000    3.4214085    2.8724216 *
   9 H       4.0588800    4.3672887    3.4214085    0.0000000    1.7640468 *
  10 H       4.2591847    4.0767366    2.8724216 *  1.7640468 *  0.0000000  
  11 H       2.1770793 *  3.2626399    3.2662470    2.7809469 *  3.7807544  
  12 H       1.0175872 *  2.1000092 *  3.1416624    4.8905054    5.2203034  
  13 H       2.1655043 *  1.0753528 *  2.1684583 *  5.4145704    4.9771706  
  14 H       5.6064871    5.4083439    4.1688214    2.4995897 *  2.5090969 *
  15 H       4.5292958    4.4490882    3.4607736    2.5373799 *  3.0957903  
  16 H       3.1405329    2.1014654 *  1.0176393 *  3.8622901    2.9239585 *

               11 H         12 H         13 H         14 H         15 H     

   1 C       4.1650011    5.5497866    5.2159553    1.0934819 *  1.0936719 *
   2 H       4.7896144    5.7210758    4.8784747    1.7683652 *  1.7802489 *
   3 C       3.0627620    4.6581496    4.6759209    2.1771191 *  2.1939761 *
   4 C       2.2182315 *  3.2096103    3.3053127    3.4687677    2.7960723 *
   5 C       1.0743452 *  2.1524845 *  3.2884814    4.5785298    3.6370857  
   6 N       2.1770793 *  1.0175872 *  2.1655043 *  5.6064871    4.5292958  
   7 C       3.2626399    2.1000092 *  1.0753528 *  5.4083439    4.4490882  
   8 N       3.2662470    3.1416624    2.1684583 *  4.1688214    3.4607736  
   9 H       2.7809469 *  4.8905054    5.4145704    2.4995897 *  2.5373799 *
  10 H       3.7807544    5.2203034    4.9771706    2.5090969 *  3.0957903  
  11 H       0.0000000    2.5667330 *  4.2622529    4.9346006    4.0183184  
  12 H       2.5667330 *  0.0000000    2.5697755 *  6.5552476    5.3918946  
  13 H       4.2622529    2.5697755 *  0.0000000    6.2690217    5.3025421  
  14 H       4.9346006    6.5552476    6.2690217    0.0000000    1.7756909 *
  15 H       4.0183184    5.3918946    5.3025421    1.7756909 *  0.0000000  
  16 H       4.2232465    4.0897456    2.5700612 *  4.0463711    3.5924048  

               16 H     

   1 C       3.1168290  
   2 H       2.5706181 *
   3 C       2.8360500 *
   4 C       2.1527787 *
   5 C       3.1885676  
   6 N       3.1405329  
   7 C       2.1014654 *
   8 N       1.0176393 *
   9 H       3.8622901  
  10 H       2.9239585 *
  11 H       4.2232465  
  12 H       4.0897456  
  13 H       2.5700612 *
  14 H       4.0463711  
  15 H       3.5924048  
  16 H       0.0000000  

  * ... LESS THAN  3.000


     ATOMIC BASIS SET
     ----------------
 THE CONTRACTED PRIMITIVE FUNCTIONS HAVE BEEN UNNORMALIZED
 THE CONTRACTED BASIS FUNCTIONS ARE NOW NORMALIZED TO UNITY

  SHELL TYPE  PRIMITIVE        EXPONENT          CONTRACTION COEFFICIENT(S)

 C         

      1   S       1           172.2560000    0.061766907377
      1   S       2            25.9109000    0.358794042852
      1   S       3             5.5333500    0.700713083689

      2   L       4             3.6649800   -0.395895162119    0.236459946619
      2   L       5             0.7705450    1.215834355681    0.860618805716

      3   L       6             0.1958570    1.000000000000    1.000000000000

 H         

      4   S       7             5.4471780    0.156284978695
      4   S       8             0.8245472    0.904690876670

      5   S       9             0.1831916    1.000000000000

 C         

      6   S      10           172.2560000    0.061766907377
      6   S      11            25.9109000    0.358794042852
      6   S      12             5.5333500    0.700713083689

      7   L      13             3.6649800   -0.395895162119    0.236459946619
      7   L      14             0.7705450    1.215834355681    0.860618805716

      8   L      15             0.1958570    1.000000000000    1.000000000000

 C         

      9   S      16           172.2560000    0.061766907377
      9   S      17            25.9109000    0.358794042852
      9   S      18             5.5333500    0.700713083689

     10   L      19             3.6649800   -0.395895162119    0.236459946619
     10   L      20             0.7705450    1.215834355681    0.860618805716

     11   L      21             0.1958570    1.000000000000    1.000000000000

 C         

     12   S      22           172.2560000    0.061766907377
     12   S      23            25.9109000    0.358794042852
     12   S      24             5.5333500    0.700713083689

     13   L      25             3.6649800   -0.395895162119    0.236459946619
     13   L      26             0.7705450    1.215834355681    0.860618805716

     14   L      27             0.1958570    1.000000000000    1.000000000000

 N         

     15   S      28           242.7660000    0.059865700508
     15   S      29            36.4851000    0.352955002994
     15   S      30             7.8144900    0.706513005993

     16   L      31             5.4252200   -0.413300077430    0.237972016222
     16   L      32             1.1491500    1.224417266851    0.858953058551

     17   L      33             0.2832050    1.000000000000    1.000000000000

 C         

     18   S      34           172.2560000    0.061766907377
     18   S      35            25.9109000    0.358794042852
     18   S      36             5.5333500    0.700713083689

     19   L      37             3.6649800   -0.395895162119    0.236459946619
     19   L      38             0.7705450    1.215834355681    0.860618805716

     20   L      39             0.1958570    1.000000000000    1.000000000000

 N         

     21   S      40           242.7660000    0.059865700508
     21   S      41            36.4851000    0.352955002994
     21   S      42             7.8144900    0.706513005993

     22   L      43             5.4252200   -0.413300077430    0.237972016222
     22   L      44             1.1491500    1.224417266851    0.858953058551

     23   L      45             0.2832050    1.000000000000    1.000000000000

 H         

     24   S      46             5.4471780    0.156284978695
     24   S      47             0.8245472    0.904690876670

     25   S      48             0.1831916    1.000000000000

 H         

     26   S      49             5.4471780    0.156284978695
     26   S      50             0.8245472    0.904690876670

     27   S      51             0.1831916    1.000000000000

 H         

     28   S      52             5.4471780    0.156284978695
     28   S      53             0.8245472    0.904690876670

     29   S      54             0.1831916    1.000000000000

 H         

     30   S      55             5.4471780    0.156284978695
     30   S      56             0.8245472    0.904690876670

     31   S      57             0.1831916    1.000000000000

 H         

     32   S      58             5.4471780    0.156284978695
     32   S      59             0.8245472    0.904690876670

     33   S      60             0.1831916    1.000000000000

 H         

     34   S      61             5.4471780    0.156284978695
     34   S      62             0.8245472    0.904690876670

     35   S      63             0.1831916    1.000000000000

 H         

     36   S      64             5.4471780    0.156284978695
     36   S      65             0.8245472    0.904690876670

     37   S      66             0.1831916    1.000000000000

 H         

     38   S      67             5.4471780    0.156284978695
     38   S      68             0.8245472    0.904690876670

     39   S      69             0.1831916    1.000000000000

 TOTAL NUMBER OF BASIS SET SHELLS             =   39
 NUMBER OF CARTESIAN GAUSSIAN BASIS FUNCTIONS =   81
 NUMBER OF ELECTRONS                          =   52
 CHARGE OF MOLECULE                           =    1
 SPIN MULTIPLICITY                            =    1
 NUMBER OF OCCUPIED ORBITALS (ALPHA)          =   26
 NUMBER OF OCCUPIED ORBITALS (BETA )          =   26
 TOTAL NUMBER OF ATOMS                        =   16
 THE NUCLEAR REPULSION ENERGY IS      300.5901092695

 SELECTED MURRAY-HANDY-LAMING RADIAL GRID

 LEGACY BECKE'S FUZZY CELL METHOD

 SELECTED ORIGINAL BECKE'S PARTITION FUNCTION

     LEBEDEV GRID-BASED DFT OPTIONS
     ------------------------------
     DFTTYP=B3LYP   
     NRAD  =      96     NLEB  =     302
     NRAD0 =      24     NLEB0 =     110
     SWOFF =    5.00E-03 (PURE SCF -> DFT)
     SWITCH=    3.00E-04 (COARSE -> TIGHT GRID)
     THRESH=    0.00E+00 GTHRE=    1.00E+00

 GRIMME'S EMPIRICAL DISPERSION CORRECTION= F

     $CONTRL OPTIONS
     ---------------
 SCFTYP=RHF          RUNTYP=ENERGY       EXETYP=RUN     
 MPLEVL=       0     CITYP =NONE         CCTYP =NONE         VBTYP =NONE    
 DFTTYP=B3LYP        TDDFT =NONE    
 MULT  =       1     ICHARG=       1     NZVAR =       0     COORD =UNIQUE  
 PP    =NONE         RELWFN=NONE         LOCAL =NONE         NUMGRD=       F
 ISPHER=      -1     NOSYM =       0     MAXIT =      60     UNITS =ANGS    
 PLTORB=       F     MOLPLT=       F     AIMPAC=       F     FRIEND=        
 NPRINT=       7     IREST =       0     GEOM  =INPUT   
 NORMF =       0     NORMP =       0     ITOL  =      20     ICUT  =       9
 INTTYP=BEST         GRDTYP=BEST         QMTTOL= 1.0E-06

     $SYSTEM OPTIONS
     ---------------
  REPLICATED MEMORY=    30000000 WORDS (ON EVERY NODE).
 DISTRIBUTED MEMDDI=        1000 MILLION WORDS IN AGGREGATE,
 MEMDDI DISTRIBUTED OVER   6 PROCESSORS IS   166666666 WORDS/PROCESSOR.
 TOTAL MEMORY REQUESTED ON EACH PROCESSOR=   196666666 WORDS.
 TIMLIM=      525600.00 MINUTES, OR     365.0 DAYS.
 PARALL= T  BALTYP=  DLB     KDIAG=    0  COREFL= F
 MXSEQ2=     300 MXSEQ3=     150  mem10=         0

     INPUT FOR POTENTIAL-DERIVED CHARGES 
     -----------------------------------
     VDWSCL=    1.40   RMAX=    3.00   DELR=    0.80
     VDWINC=    0.20 PTDENS=    0.28
     LAYER =       4  NFREQ=      30 MAXPDC=   10000
     CONSTR=CHARGE    UNITS=ANGS      PTSEL=GEODESIC
     CENTER=  0.0000  0.0000  0.0000
     DPOLE =  0.0000  0.0000  0.0000
     QPOLE =  0.0000  0.0000  0.0000  0.0000  0.0000  0.0000


          ----------------
          PROPERTIES INPUT
          ----------------

     MOMENTS            FIELD           POTENTIAL          DENSITY
 IEMOM =       1   IEFLD =       0   IEPOT =       1   IEDEN =       0
 WHERE =COMASS     WHERE =NUCLEI     WHERE =PDC        WHERE =NUCLEI  
 OUTPUT=BOTH       OUTPUT=BOTH       OUTPUT=BOTH       OUTPUT=BOTH    
 IEMINT=       0   IEFINT=       0                     IEDINT=       0
                                                       MORB  =       0
          EXTRAPOLATION IN EFFECT
          DIIS IN EFFECT
 ORBITAL PRINTING OPTION: NPREO=     1    81     2     1

     -------------------------------
     INTEGRAL TRANSFORMATION OPTIONS
     -------------------------------
     NWORD  =            0
     CUTOFF = 1.0E-09     MPTRAN =       0
     DIRTRF =       T     AOINTS =DUP     

          ----------------------
          INTEGRAL INPUT OPTIONS
          ----------------------
 NOPK  =       1 NORDER=       0 SCHWRZ=       T

     ------------------------------------------
     THE POINT GROUP IS C1 , NAXIS= 0, ORDER= 1
     ------------------------------------------

     DIMENSIONS OF THE SYMMETRY SUBSPACES ARE
 A   =   81

 ..... DONE SETTING UP THE RUN .....
 CPU     0: STEP CPU TIME=     0.02 TOTAL CPU TIME=          0.0 (      0.0 MIN)
 TOTAL WALL CLOCK TIME=          0.0 SECONDS, CPU UTILIZATION IS   100.00%

          ********************
          1 ELECTRON INTEGRALS
          ********************
 ...... END OF ONE-ELECTRON INTEGRALS ......
 CPU     0: STEP CPU TIME=     0.01 TOTAL CPU TIME=          0.0 (      0.0 MIN)
 TOTAL WALL CLOCK TIME=          0.0 SECONDS, CPU UTILIZATION IS    75.00%

          -------------
          GUESS OPTIONS
          -------------
          GUESS =HUCKEL            NORB  =       0          NORDER=       0
          MIX   =       F          PRTMO =       F          PUNMO =       F
          TOLZ  = 1.0E-08          TOLE  = 1.0E-05
          SYMDEN=       F          PURIFY=       F

 INITIAL GUESS ORBITALS GENERATED BY HUCKEL   ROUTINE.
 HUCKEL GUESS REQUIRES     67089 WORDS.

 SYMMETRIES FOR INITIAL GUESS ORBITALS FOLLOW.   BOTH SET(S).
    26 ORBITALS ARE OCCUPIED (    7 CORE ORBITALS).
     8=A        9=A       10=A       11=A       12=A       13=A       14=A   
    15=A       16=A       17=A       18=A       19=A       20=A       21=A   
    22=A       23=A       24=A       25=A       26=A       27=A       28=A   
    29=A       30=A       31=A       32=A       33=A       34=A       35=A   
    36=A   
 ...... END OF INITIAL ORBITAL SELECTION ......
 CPU     0: STEP CPU TIME=     0.02 TOTAL CPU TIME=          0.0 (      0.0 MIN)
 TOTAL WALL CLOCK TIME=          0.1 SECONDS, CPU UTILIZATION IS   100.00%

                    ----------------------
                    AO INTEGRAL TECHNOLOGY
                    ----------------------
     S,P,L SHELL ROTATED AXIS INTEGRALS, REPROGRAMMED BY
        KAZUYA ISHIMURA (IMS) AND JOSE SIERRA (SYNSTAR).
     S,P,D,L SHELL ROTATED AXIS INTEGRALS PROGRAMMED BY
        KAZUYA ISHIMURA (INSTITUTE FOR MOLECULAR SCIENCE).
     S,P,D,F,G SHELL TO TOTAL QUARTET ANGULAR MOMENTUM SUM 5,
        ERIC PROGRAM BY GRAHAM FLETCHER (ELORET AND NASA ADVANCED
        SUPERCOMPUTING DIVISION, AMES RESEARCH CENTER).
     S,P,D,F,G,L SHELL GENERAL RYS QUADRATURE PROGRAMMED BY
        MICHEL DUPUIS (PACIFIC NORTHWEST NATIONAL LABORATORY).

          --------------------
          2 ELECTRON INTEGRALS
          --------------------

 DIRECT SCF METHOD SKIPS INTEGRAL STORAGE ON DISK.
 DIRECT TRANSFORMATION SKIPS AO INTEGRAL STORAGE ON DISK.
  ...... END OF TWO-ELECTRON INTEGRALS .....
 CPU     0: STEP CPU TIME=     0.01 TOTAL CPU TIME=          0.1 (      0.0 MIN)
 TOTAL WALL CLOCK TIME=          0.1 SECONDS, CPU UTILIZATION IS    85.71%

          --------------------------
             R-B3LYP SCF CALCULATION
          --------------------------

     NUCLEAR ENERGY =       300.5901092695
     MAXIT =   60     NPUNCH=    2
     EXTRAP=T  DAMP=F  SHIFT=F  RSTRCT=F  DIIS=T  DEM=F  SOSCF=F
         DENSITY MATRIX CONVERGENCE THRESHOLD=  2.00E-05
     COARSE -> FINE DFT GRID SWITCH THRESHOLD=  3.00E-04 (SWITCH IN $DFT)
                   HF -> DFT SWITCH THRESHOLD=  5.00E-03 (SWOFF IN $DFT)
     MEMORY REQUIRED FOR RHF ITERS=    626933 WORDS.

 DIRECT SCF CALCULATION, SCHWRZ=T   FDIFF=T,  DIRTHR=  0.00E+00 NITDIR=10
 SCHWARZ INEQUALITY OVERHEAD:      3242 INTEGRALS, T=        0.00

 DFT CODE IS SWITCHING FROM THE FINE GRID NRAD= 96,  NLEB=  302
                      TO THE COARSE GRID NRAD0= 24, NLEB0=  110

     EXCHANGE FUNCTIONAL   =B88&HFX   
     CORRELATION FUNCTIONAL=LYP88&VWN5
     DFT THRESHOLD         =.862E-08
     GRID CHANGE THRESHOLD =.300E-03
 FOR AN EULER-MACLAURIN QUADRATURE USING  96 RADIAL POINTS:
 SMALLEST GAUSSIAN PRIMITIVE EXPONENT=        0.1831915800 OF TYPE -S-
 ON ATOM NUMBER   2 HAS RADIAL NORMALIZATION=  1.000000
  LARGEST GAUSSIAN PRIMITIVE EXPONENT=      242.7660000000 OF TYPE -S-
 ON ATOM NUMBER   6 HAS RADIAL NORMALIZATION=  1.000000
 DFT IS SWITCHED OFF, PERFORMING PURE SCF UNTIL SWOFF THRESHOLD IS REACHED.

                                                                                   NONZERO     BLOCKS
 ITER EX DEM     TOTAL ENERGY        E CHANGE  DENSITY CHANGE    DIIS ERROR      INTEGRALS    SKIPPED
   1  0  0     -300.7982990557  -300.7982990557   0.795706413   0.665543191        4388177     102658
          * * *   INITIATING DIIS PROCEDURE   * * *
   2  1  0     -301.5364666982    -0.7381676425   0.120603629   0.147516334        4376640     106672
   3  2  0     -301.5825341882    -0.0460674900   0.053356348   0.050693346        4339690     114333
   4  3  0     -301.5937336259    -0.0111994377   0.023685974   0.010693561        4275484     123093
   5  4  0     -301.5942463048    -0.0005126789   0.004802909   0.002584905        4198117     130007
 CONVERGED TO SWOFF, SO DFT CALCULATION IS NOW SWITCHED ON.
          * * *   INITIATING DIIS PROCEDURE   * * *
   6  5  0     -303.3460405717    -1.7517942669   0.130017226   0.085598031        4388878     102275
   7  6  0     -303.3688709626    -0.0228303909   0.046711726   0.028020066        4351642     112790
   8  7  0     -303.3712348195    -0.0023638570   0.022474339   0.021281466        4302113     118972
   9  8  0     -303.3739853613    -0.0027505418   0.005234601   0.007088954        4254266     125251
  10  9  0     -303.3742328930    -0.0002475316   0.000791689   0.001056473        4133179     136289
  11 10  0     -303.3742348042    -0.0000019112   0.000537023   0.000747217        3922798     149821
  12 11  0     -303.3742359243    -0.0000011201   0.000096415   0.000189365        3796087     159840
 DFT CODE IS SWITCHING BACK TO THE FINE GRID
          * * *   INITIATING DIIS PROCEDURE   * * *
  13 12  0     -303.3756408586    -0.0014049343   0.002575641   0.001819653        4390137     101734
  14 13  0     -303.3756493354    -0.0000084768   0.000572832   0.000468597        4059657     140255
  15 14  0     -303.3756492513     0.0000000841   0.000439121   0.000613683        3867648     154307
  16 15  0     -303.3756503534    -0.0000011021   0.000039386   0.000034105        3773159     160757
  17 16  0     -303.3756503578    -0.0000000043   0.000013994   0.000025075        3458676     179377
  18 17  0     -303.3756503588    -0.0000000010   0.000006851   0.000011563        3244953     192883

          -----------------
          DENSITY CONVERGED
          -----------------
     TIME TO FORM FOCK OPERATORS=       9.0 SECONDS (       0.5 SEC/ITER)
     FOCK TIME ON FIRST ITERATION=       0.1, LAST ITERATION=       1.2
     TIME TO SOLVE SCF EQUATIONS=       0.2 SECONDS (       0.0 SEC/ITER)

 FINAL R-B3LYP ENERGY IS     -303.3756503588 AFTER  18 ITERATIONS
 DFT EXCHANGE + CORRELATION ENERGY =       -35.3126989999
 TOTAL ELECTRON NUMBER             =        52.0002380938

          ------------
          EIGENVECTORS
          ------------

                      1          2          3          4          5
                  -14.5337   -14.5296   -10.4233   -10.3680   -10.3579
                     A          A          A          A          A   
    1  C  1  S   -0.000018   0.000032  -0.000164  -0.002150  -0.000164
    2  C  1  S   -0.000072   0.000217  -0.000151  -0.002146  -0.000181
    3  C  1  X   -0.000113  -0.000336   0.000128   0.001425   0.000161
    4  C  1  Y    0.000050   0.000318   0.000114   0.000071   0.000046
    5  C  1  Z   -0.000130   0.000037   0.000129   0.000111   0.000037
    6  C  1  S    0.001061   0.000490  -0.000172   0.004819  -0.000144
    7  C  1  X    0.000043   0.001760   0.000368  -0.005235  -0.000627
    8  C  1  Y   -0.000580  -0.002947  -0.000886  -0.001947   0.000392
    9  C  1  Z   -0.000015  -0.000386  -0.000025  -0.001441   0.000051
   10  H  2  S   -0.000002   0.000055   0.000073  -0.000668  -0.000080
   11  H  2  S   -0.000563  -0.001393  -0.000543  -0.001207   0.000260
   12  C  3  S    0.000091  -0.000195  -0.000946  -0.004838  -0.001632
   13  C  3  S    0.000370  -0.001116  -0.001706  -0.002139  -0.000611
   14  C  3  X    0.000653  -0.000118  -0.000455   0.000925   0.000564
   15  C  3  Y   -0.000218  -0.000331  -0.000244  -0.000484  -0.000163
   16  C  3  Z   -0.000017   0.000182   0.000266  -0.000031  -0.000054
   17  C  3  S   -0.008608   0.012900   0.013781   0.013580   0.002849
   18  C  3  X    0.002722  -0.006853  -0.006872  -0.013151  -0.001998
   19  C  3  Y    0.000452   0.006019   0.001961   0.004907  -0.002150
   20  C  3  Z   -0.000980  -0.002127   0.000552  -0.002431   0.002300
   21  C  4  S    0.000255  -0.000370  -0.000815   0.984201   0.055736
   22  C  4  S    0.001048  -0.001118  -0.000991   0.108250   0.002065
   23  C  4  X   -0.000126  -0.000128   0.001937  -0.001025   0.001720
   24  C  4  Y   -0.000915  -0.000592  -0.000748   0.000135  -0.002029
   25  C  4  Z    0.000842   0.000421   0.000025   0.000557   0.001302
   26  C  4  S   -0.017076   0.025025  -0.002286  -0.081052   0.027629
   27  C  4  X    0.018946  -0.025966  -0.017248   0.001225  -0.016635
   28  C  4  Y   -0.000898  -0.011296  -0.000485  -0.010297   0.012856
   29  C  4  Z   -0.005055   0.018150   0.005708   0.007660  -0.006328
   30  C  5  S   -0.000486   0.000150  -0.002011  -0.055942   0.984027
   31  C  5  S   -0.001902   0.000572  -0.001918  -0.010114   0.106661
   32  C  5  X   -0.001440  -0.001273  -0.001000  -0.002200  -0.000954
   33  C  5  Y   -0.000095   0.000279   0.001131   0.001431  -0.001290
   34  C  5  Z    0.000526   0.000190  -0.000675  -0.000646   0.001405
   35  C  5  S    0.032806  -0.011644  -0.000523   0.032141  -0.076826
   36  C  5  X   -0.009043   0.005245   0.000526   0.014917  -0.008152
   37  C  5  Y   -0.017698   0.010461  -0.004933  -0.008318   0.013205
   38  C  5  Z    0.018356  -0.010999   0.004164   0.003173  -0.008981
   39  N  6  S    0.985075   0.021686   0.000399   0.000094   0.000287
   40  N  6  S    0.112984   0.002198   0.000679   0.000500   0.000688
   41  N  6  X    0.002262  -0.000052   0.000807  -0.000166   0.000311
   42  N  6  Y   -0.001346   0.000341   0.000529  -0.000118  -0.000203
   43  N  6  Z    0.000490  -0.000301  -0.000719   0.000175   0.000088
   44  N  6  S   -0.086691  -0.002954   0.002021  -0.007211   0.002867
   45  N  6  X   -0.017953  -0.000198  -0.006450  -0.001915  -0.001904
   46  N  6  Y    0.008883   0.003890   0.002483   0.003669   0.003293
   47  N  6  Z   -0.002289  -0.003288  -0.000178  -0.002763  -0.002346
   48  C  7  S   -0.000190  -0.000168   0.985128   0.000291   0.001410
   49  C  7  S   -0.001083  -0.000789   0.103944  -0.001113  -0.001851
   50  C  7  X   -0.000954   0.001688   0.001631  -0.000312  -0.000486
   51  C  7  Y    0.001350  -0.000649   0.000952  -0.000280  -0.000700
   52  C  7  Z   -0.000892   0.000052  -0.001345   0.000322   0.000762
   53  C  7  S    0.024173   0.025131  -0.048178   0.009025   0.009789
   54  C  7  X    0.006684   0.018074   0.001327   0.008249   0.011629
   55  C  7  Y    0.013792   0.004455   0.001013   0.006583   0.006700
   56  C  7  Z   -0.014218  -0.009543  -0.001311  -0.008283  -0.009467
   57  N  8  S   -0.021687   0.985180   0.000458   0.000351   0.000134
   58  N  8  S   -0.002773   0.113725   0.001158   0.001321   0.000571
   59  N  8  X    0.000763  -0.001312   0.000649  -0.000641  -0.000252
   60  N  8  Y   -0.000252   0.001926   0.000606   0.000532  -0.000140
   61  N  8  Z   -0.000014  -0.001315  -0.000748  -0.000260   0.000207
   62  N  8  S    0.000578  -0.090837  -0.001731  -0.001146  -0.008637
   63  N  8  X    0.002868   0.007652   0.002503   0.005506   0.005262
   64  N  8  Y    0.000568  -0.015796  -0.006681  -0.004352  -0.002500
   65  N  8  Z   -0.001392   0.011606   0.005163   0.002269   0.000584
   66  H  9  S   -0.000113  -0.001425  -0.000886  -0.001346  -0.000054
   67  H  9  S    0.000696  -0.001621  -0.000731  -0.001373   0.001763
   68  H 10  S    0.000366   0.000353  -0.000392  -0.000923  -0.000223
   69  H 10  S    0.000331   0.000671   0.000223   0.003478   0.000053
   70  H 11  S    0.000883  -0.001364   0.000667  -0.001302  -0.003284
   71  H 11  S    0.007178  -0.004869   0.003732  -0.000630   0.009220
   72  H 12  S   -0.000692  -0.000616  -0.002488  -0.000354  -0.001630
   73  H 12  S    0.004701   0.000901  -0.000153   0.000386  -0.000087
   74  H 13  S    0.000472   0.000511  -0.002933   0.001015   0.001260
   75  H 13  S    0.005307   0.005328   0.014041   0.005395   0.006922
   76  H 14  S   -0.000060  -0.000281  -0.000115  -0.000127   0.000056
   77  H 14  S   -0.000324  -0.000623   0.000341   0.002874   0.000472
   78  H 15  S    0.000006   0.000511   0.000127  -0.000922  -0.000096
   79  H 15  S    0.000126   0.001262   0.000379   0.001187  -0.000228
   80  H 16  S   -0.000262  -0.000651  -0.002619  -0.002139  -0.000432
   81  H 16  S    0.000929   0.004873  -0.000438  -0.000933   0.000167

                      6          7          8          9         10
                  -10.2905   -10.2529    -1.2584    -1.1206    -0.9890
                     A          A          A          A          A   
    1  C  1  S   -0.008094   0.986236  -0.001325  -0.004787  -0.037360
    2  C  1  S   -0.003540   0.111984   0.002615   0.005402   0.039790
    3  C  1  X   -0.000612  -0.000339  -0.001282  -0.003850  -0.020573
    4  C  1  Y   -0.000068  -0.000062  -0.000910  -0.001574  -0.003195
    5  C  1  Z   -0.000367  -0.000157  -0.000500  -0.002197  -0.016733
    6  C  1  S    0.024782  -0.088933  -0.007328   0.003813   0.069336
    7  C  1  X   -0.008548   0.002703   0.000893  -0.002361   0.009447
    8  C  1  Y   -0.002045   0.000367   0.008208   0.006461   0.000709
    9  C  1  Z   -0.010380   0.003457   0.003486   0.003420   0.004429
   10  H  2  S   -0.001520  -0.000338   0.001087   0.002447   0.017465
   11  H  2  S    0.000495   0.016081   0.004619   0.004454  -0.002330
   12  C  3  S    0.986994   0.007484  -0.007657  -0.014878  -0.089614
   13  C  3  S    0.116673  -0.000688   0.005913   0.016958   0.080892
   14  C  3  X   -0.000108   0.000352  -0.009265  -0.011362  -0.044902
   15  C  3  Y    0.000020  -0.000070   0.001110  -0.002530   0.007295
   16  C  3  Z    0.000222  -0.000090   0.002115   0.006286   0.014349
   17  C  3  S   -0.116763   0.013204   0.011873  -0.017750   0.262098
   18  C  3  X    0.009963   0.009932   0.008647   0.025162  -0.027051
   19  C  3  Y   -0.001833   0.002744  -0.016724  -0.017982   0.001019
   20  C  3  Z   -0.008168   0.008512   0.012088   0.008437   0.013843
   21  C  4  S    0.004708   0.001792  -0.065427  -0.052234  -0.139928
   22  C  4  S   -0.001534  -0.001582   0.071912   0.060712   0.156361
   23  C  4  X   -0.001742  -0.001530  -0.059064  -0.013210  -0.021258
   24  C  4  Y    0.000143   0.000109  -0.012662  -0.052944   0.034934
   25  C  4  Z    0.000516  -0.000417   0.029618   0.051286  -0.021496
   26  C  4  S    0.021442   0.003680   0.074928   0.032441   0.267703
   27  C  4  X    0.033557   0.007138   0.003589   0.093790  -0.057543
   28  C  4  Y   -0.002498  -0.002950   0.020948   0.017153   0.015452
   29  C  4  Z   -0.006589   0.001364  -0.019438  -0.044338   0.004300
   30  C  5  S    0.001319   0.000024  -0.065323   0.044916  -0.116725
   31  C  5  S   -0.000473  -0.000109   0.073577  -0.053164   0.130306
   32  C  5  X   -0.000352   0.000173  -0.023014   0.071840   0.044202
   33  C  5  Y   -0.000058   0.000140  -0.044569   0.002643  -0.050542
   34  C  5  Z    0.000041   0.000168   0.046279  -0.024471   0.031016
   35  C  5  S    0.010211   0.003828   0.056782  -0.013806   0.217306
   36  C  5  X   -0.000530   0.000497   0.000024  -0.024683   0.007069
   37  C  5  Y   -0.006728  -0.002313   0.005109  -0.060012  -0.016786
   38  C  5  Z    0.006005   0.000574  -0.004491   0.060711   0.012850
   39  N  6  S    0.000041   0.000009  -0.135745   0.162000   0.015141
   40  N  6  S    0.000127   0.000034   0.119450  -0.147329  -0.015489
   41  N  6  X   -0.000261  -0.000084   0.048610  -0.000491   0.067348
   42  N  6  Y    0.000134  -0.000035  -0.041584   0.001490   0.065853
   43  N  6  Z    0.000002  -0.000046   0.021636  -0.001164  -0.078721
   44  N  6  S   -0.003596  -0.000783   0.428703  -0.534514  -0.045042
   45  N  6  X   -0.000269   0.000073   0.092835  -0.044579   0.045488
   46  N  6  Y   -0.000661   0.000206  -0.066280   0.012992   0.038275
   47  N  6  Z    0.000542   0.000290   0.029735   0.002176  -0.047665
   48  C  7  S    0.000516   0.000146  -0.108925   0.001614   0.105965
   49  C  7  S   -0.000930  -0.000229   0.128247  -0.002309  -0.119539
   50  C  7  X   -0.000476  -0.000287   0.066489   0.100187  -0.023480
   51  C  7  Y   -0.000050   0.000080   0.046654  -0.088271   0.004455
   52  C  7  Z    0.000223   0.000048  -0.061614   0.046837   0.003425
   53  C  7  S    0.001422  -0.000795   0.051797  -0.002742  -0.229432
   54  C  7  X    0.002385  -0.000031  -0.061872   0.001675  -0.012879
   55  C  7  Y    0.001093   0.000499  -0.044643  -0.001263  -0.006726
   56  C  7  Z   -0.001631  -0.000631   0.058457   0.000608   0.009837
   57  N  8  S   -0.000016   0.000038  -0.133735  -0.161624   0.037399
   58  N  8  S   -0.000479   0.000252   0.115950   0.145342  -0.036533
   59  N  8  X   -0.000179   0.000326  -0.046754   0.002618   0.110918
   60  N  8  Y   -0.000207  -0.000007   0.041263   0.001082   0.052124
   61  N  8  Z    0.000375  -0.000189  -0.021741  -0.001408  -0.079771
   62  N  8  S    0.002835  -0.000728   0.430516   0.539566  -0.127585
   63  N  8  X   -0.001225  -0.002501  -0.066897  -0.009439   0.070884
   64  N  8  Y    0.002671  -0.000100   0.080063   0.039736   0.032827
   65  N  8  Z   -0.002539   0.000891  -0.049875  -0.031841  -0.050033
   66  H  9  S    0.001176  -0.001197   0.004427   0.006410   0.038238
   67  H  9  S    0.016517   0.001042   0.002551   0.005597  -0.006129
   68  H 10  S    0.001241  -0.000918   0.000806   0.005677   0.034976
   69  H 10  S    0.016123   0.001437  -0.006772  -0.004789  -0.010880
   70  H 11  S    0.000805   0.000050   0.013335  -0.010631   0.050544
   71  H 11  S    0.002218   0.000547  -0.009374   0.034451   0.009272
   72  H 12  S    0.000294   0.000068   0.049701  -0.083989  -0.017223
   73  H 12  S    0.000416   0.000071   0.014510  -0.020242  -0.002363
   74  H 13  S    0.000225   0.000107   0.019818  -0.000590  -0.059441
   75  H 13  S    0.001363   0.000488  -0.047784   0.000428  -0.016608
   76  H 14  S   -0.001170  -0.000141   0.000807   0.001890   0.013665
   77  H 14  S   -0.000632   0.015510   0.000752  -0.000325  -0.006428
   78  H 15  S   -0.001551  -0.000161   0.000393   0.001474   0.017537
   79  H 15  S    0.000550   0.016098  -0.003636  -0.004106  -0.001634
   80  H 16  S    0.000423   0.000600   0.048624   0.084394  -0.032748
   81  H 16  S    0.001157  -0.000979   0.014081   0.020605  -0.006015

                     11         12         13         14         15
                   -0.9161    -0.8706    -0.8194    -0.7971    -0.7426
                     A          A          A          A          A   
    1  C  1  S   -0.113534   0.013897  -0.107297  -0.109059   0.081026
    2  C  1  S    0.112288  -0.014406   0.101409   0.101552  -0.074469
    3  C  1  X   -0.031231   0.001760   0.014706   0.021306  -0.031239
    4  C  1  Y   -0.009285  -0.002932   0.002281  -0.001633  -0.014212
    5  C  1  Z   -0.036550   0.007054   0.001805   0.026018  -0.069520
    6  C  1  S    0.274441  -0.037606   0.328160   0.348775  -0.290563
    7  C  1  X   -0.002936  -0.007548  -0.002122  -0.008303   0.004637
    8  C  1  Y   -0.000899   0.002240  -0.005432  -0.000377  -0.004728
    9  C  1  Z   -0.002725   0.000340  -0.007769   0.003292  -0.022966
   10  H  2  S    0.054947  -0.004196   0.061104   0.072724  -0.068935
   11  H  2  S    0.001742   0.009218   0.008505   0.017517  -0.026958
   12  C  3  S   -0.146612   0.020910   0.002144   0.054288  -0.104349
   13  C  3  S    0.138871  -0.018787  -0.001248  -0.052762   0.093285
   14  C  3  X    0.005642  -0.003224   0.091385   0.081164   0.007504
   15  C  3  Y    0.001901  -0.013821   0.021269  -0.011375  -0.029657
   16  C  3  Z    0.031956   0.007767   0.020776   0.068829  -0.082799
   17  C  3  S    0.413829  -0.065813  -0.018134  -0.176261   0.405496
   18  C  3  X   -0.018629   0.001430   0.020034   0.019642  -0.010742
   19  C  3  Y   -0.004999  -0.014146   0.020978  -0.015809  -0.011535
   20  C  3  Z    0.018022   0.007906  -0.008560   0.028021  -0.029308
   21  C  4  S    0.003858   0.025263   0.089518   0.027671   0.058869
   22  C  4  S   -0.004576  -0.030175  -0.095309  -0.030178  -0.064579
   23  C  4  X    0.155897   0.044961  -0.021370  -0.082211   0.106206
   24  C  4  Y   -0.036549  -0.073986   0.091471  -0.093323  -0.056796
   25  C  4  Z   -0.006490   0.050174  -0.058452   0.128015  -0.016288
   26  C  4  S   -0.004717  -0.051748  -0.259764  -0.085508  -0.206977
   27  C  4  X    0.008401   0.023266  -0.005722  -0.055820   0.010473
   28  C  4  Y    0.000637  -0.023102   0.001768  -0.014087  -0.035316
   29  C  4  Z   -0.002806   0.012377   0.009066   0.043641   0.000797
   30  C  5  S    0.086399   0.005260  -0.094068   0.062627   0.036646
   31  C  5  S   -0.094072  -0.007945   0.099856  -0.067386  -0.041571
   32  C  5  X    0.004363  -0.099885  -0.088387  -0.078839  -0.163285
   33  C  5  Y    0.035623   0.061051   0.051959  -0.051807   0.000448
   34  C  5  Z   -0.031277  -0.023098  -0.015055   0.075299   0.038450
   35  C  5  S   -0.218510  -0.004964   0.279638  -0.212910  -0.133641
   36  C  5  X   -0.007320  -0.033550   0.005741  -0.031111  -0.037273
   37  C  5  Y    0.040527   0.023133   0.016324  -0.026090   0.003512
   38  C  5  Z   -0.030864  -0.009973  -0.013435   0.035980   0.002191
   39  N  6  S   -0.030288  -0.068875   0.017844  -0.019575  -0.024881
   40  N  6  S    0.029597   0.064924  -0.019827   0.020143   0.023203
   41  N  6  X   -0.111800  -0.126163   0.134568   0.077594   0.161612
   42  N  6  Y   -0.041436   0.173294   0.092516  -0.038427   0.000859
   43  N  6  Z    0.071560  -0.113700  -0.120990   0.013065  -0.059977
   44  N  6  S    0.114565   0.259525  -0.070049   0.086390   0.118237
   45  N  6  X   -0.088587  -0.106636   0.116047   0.077825   0.157300
   46  N  6  Y   -0.024639   0.131339   0.079519  -0.036773   0.005862
   47  N  6  Z    0.049078  -0.082790  -0.104374   0.010955  -0.062337
   48  C  7  S   -0.049424   0.106779  -0.011846   0.062198   0.032756
   49  C  7  S    0.057491  -0.125649   0.013890  -0.069954  -0.033005
   50  C  7  X   -0.061616  -0.027803   0.122296   0.067788   0.188835
   51  C  7  Y    0.021497  -0.036710  -0.114732   0.110219   0.034009
   52  C  7  Z    0.000771   0.040971   0.065696  -0.114390  -0.098294
   53  C  7  S    0.134872  -0.246778   0.037872  -0.208006  -0.132374
   54  C  7  X   -0.013561  -0.010175   0.030159   0.051414   0.099978
   55  C  7  Y   -0.000424  -0.011438  -0.030756   0.051847   0.030559
   56  C  7  Z    0.004731   0.013215   0.018788  -0.059889  -0.063895
   57  N  8  S    0.006203  -0.074775  -0.008145  -0.015110  -0.010472
   58  N  8  S   -0.005992   0.070498   0.011146   0.014719   0.013206
   59  N  8  X    0.011005   0.182818  -0.155907   0.055027  -0.114250
   60  N  8  Y   -0.039467  -0.127444  -0.090013   0.115145  -0.010757
   61  N  8  Z    0.034109   0.056181   0.134265  -0.109211   0.024347
   62  N  8  S   -0.031815   0.285034   0.025605   0.063863   0.039665
   63  N  8  X    0.026765   0.138977  -0.126159   0.049567  -0.090162
   64  N  8  Y   -0.037726  -0.105424  -0.080773   0.107664  -0.010715
   65  N  8  Z    0.028891   0.050219   0.117377  -0.100790   0.017765
   66  H  9  S    0.069158  -0.017255   0.006868  -0.051517   0.085158
   67  H  9  S    0.000907   0.000841   0.000525  -0.014418   0.024427
   68  H 10  S    0.071194  -0.008602  -0.003933  -0.033850   0.096525
   69  H 10  S   -0.002539   0.002255   0.002550  -0.006724   0.034477
   70  H 11  S   -0.040447   0.016928   0.087689  -0.088521  -0.050302
   71  H 11  S   -0.017169   0.009748   0.028230  -0.032521  -0.024771
   72  H 12  S    0.051008   0.145788  -0.046663  -0.030031  -0.057808
   73  H 12  S    0.012756   0.054331  -0.019219  -0.009967  -0.029559
   74  H 13  S    0.045238  -0.058713   0.014430  -0.127586  -0.133416
   75  H 13  S    0.011565  -0.012749   0.004642  -0.049812  -0.065926
   76  H 14  S    0.051895  -0.007640   0.066500   0.069166  -0.055720
   77  H 14  S   -0.001694   0.002677   0.011913   0.018307  -0.016786
   78  H 15  S    0.053185  -0.008346   0.061690   0.065892  -0.067758
   79  H 15  S   -0.003413  -0.002332   0.011625   0.009570  -0.022544
   80  H 16  S    0.017670   0.151481   0.037057  -0.046373  -0.010902
   81  H 16  S    0.004316   0.055438   0.018491  -0.013571  -0.009797

                     16         17         18         19         20
                   -0.7167    -0.6657    -0.6589    -0.6403    -0.6080
                     A          A          A          A          A   
    1  C  1  S    0.002370  -0.006884   0.016020   0.004828  -0.003578
    2  C  1  S   -0.002671   0.005861  -0.015474  -0.004932   0.005193
    3  C  1  X   -0.002757   0.009502  -0.044480  -0.016589  -0.127044
    4  C  1  Y   -0.006112   0.037326   0.005117  -0.033855   0.038069
    5  C  1  Z    0.007884   0.009248  -0.012743   0.000101   0.118780
    6  C  1  S   -0.010686   0.029989  -0.058434  -0.019481   0.013737
    7  C  1  X   -0.006411   0.001509  -0.035316  -0.014795  -0.090038
    8  C  1  Y   -0.001966   0.020628   0.006021  -0.019918   0.026101
    9  C  1  Z    0.000378   0.001240  -0.004270   0.001888   0.088881
   10  H  2  S    0.005696  -0.006899  -0.014846   0.011314   0.048295
   11  H  2  S    0.015040  -0.003981  -0.002624   0.009606   0.031038
   12  C  3  S    0.005862   0.011049  -0.010021  -0.002109   0.017196
   13  C  3  S   -0.006767  -0.009079   0.010318   0.003671  -0.009625
   14  C  3  X   -0.007897  -0.011544  -0.017678  -0.001366  -0.257008
   15  C  3  Y   -0.006889   0.097078   0.029982  -0.071194   0.054446
   16  C  3  Z    0.006712  -0.023213   0.046544   0.037447   0.171110
   17  C  3  S    0.001920  -0.049877   0.033956  -0.007167  -0.118858
   18  C  3  X   -0.019068  -0.007652  -0.006369   0.002530  -0.136910
   19  C  3  Y   -0.007953   0.068336   0.011477  -0.058060   0.046175
   20  C  3  Z    0.010150  -0.022743   0.019667   0.029026   0.115642
   21  C  4  S    0.020136  -0.000447  -0.003853   0.035281  -0.041442
   22  C  4  S   -0.022585   0.000220   0.004111  -0.042235   0.042439
   23  C  4  X    0.037494  -0.000704   0.071619   0.096194   0.269564
   24  C  4  Y    0.020565   0.174939   0.060517  -0.148735  -0.007862
   25  C  4  Z   -0.029155  -0.089875   0.133513   0.105664  -0.041173
   26  C  4  S   -0.034419   0.015099   0.012412  -0.111319   0.172547
   27  C  4  X   -0.027775   0.002692   0.051805   0.071715   0.206171
   28  C  4  Y    0.000218   0.102874   0.056082  -0.067213  -0.020832
   29  C  4  Z    0.008518  -0.041103   0.099646   0.040369  -0.015588
   30  C  5  S   -0.027760  -0.005335   0.008576  -0.029911   0.024224
   31  C  5  S    0.031960   0.005468  -0.009236   0.025517  -0.028753
   32  C  5  X   -0.028442   0.214970  -0.039350  -0.060456  -0.086506
   33  C  5  Y   -0.024590   0.035092   0.080485   0.289125   0.016161
   34  C  5  Z    0.030810  -0.046927   0.136207  -0.224927  -0.013433
   35  C  5  S    0.049532   0.030481  -0.034298   0.153444  -0.064925
   36  C  5  X    0.006682   0.100547  -0.007470  -0.039946  -0.039672
   37  C  5  Y    0.016206   0.027689   0.059018   0.197941  -0.000949
   38  C  5  Z   -0.015950  -0.018653   0.095980  -0.153050  -0.011620
   39  N  6  S   -0.009125  -0.007223  -0.002134   0.018728  -0.015520
   40  N  6  S    0.004368   0.009999   0.001127  -0.015816   0.015385
   41  N  6  X    0.225176  -0.136357   0.111397  -0.012293   0.057425
   42  N  6  Y   -0.190945  -0.068668   0.192489  -0.072747  -0.033657
   43  N  6  Z    0.099511   0.181983   0.130660   0.092718  -0.089622
   44  N  6  S    0.067195   0.016329   0.014502  -0.090986   0.070351
   45  N  6  X    0.215700  -0.135994   0.109398  -0.012059   0.051534
   46  N  6  Y   -0.174959  -0.051887   0.183533  -0.052089  -0.027320
   47  N  6  Z    0.088279   0.164620   0.130478   0.074165  -0.094957
   48  C  7  S   -0.002689   0.033055  -0.008117  -0.020266  -0.011781
   49  C  7  S    0.002863  -0.030214   0.007426   0.026270   0.015837
   50  C  7  X   -0.182180   0.164279   0.027135   0.007001   0.082023
   51  C  7  Y    0.139427   0.174301   0.100940   0.102002  -0.051547
   52  C  7  Z   -0.065428  -0.130912   0.206528  -0.070249  -0.058294
   53  C  7  S    0.012479  -0.160605   0.039354   0.077755   0.042368
   54  C  7  X   -0.054649   0.120881   0.019528   0.014284   0.052446
   55  C  7  Y    0.034660   0.118318   0.084850   0.066379  -0.035589
   56  C  7  Z   -0.012896  -0.085230   0.155894  -0.045369  -0.051905
   57  N  8  S    0.012570  -0.016766   0.006301  -0.017556   0.018883
   58  N  8  S   -0.008096   0.017912  -0.006555   0.016676  -0.015919
   59  N  8  X    0.230504  -0.083331   0.065944   0.032929  -0.101842
   60  N  8  Y   -0.198056  -0.041620   0.173925   0.115837  -0.042656
   61  N  8  Z    0.105614   0.149401   0.163422  -0.092562   0.031138
   62  N  8  S   -0.079837   0.063084  -0.023971   0.086644  -0.093592
   63  N  8  X    0.212165  -0.065714   0.061489   0.049562  -0.089554
   64  N  8  Y   -0.189989  -0.043135   0.169880   0.111526  -0.044259
   65  N  8  Z    0.104125   0.142348   0.158487  -0.093988   0.031196
   66  H  9  S   -0.010100   0.038421  -0.001703  -0.038361  -0.096604
   67  H  9  S   -0.000994   0.027401  -0.006311  -0.015053  -0.075841
   68  H 10  S   -0.003384  -0.052278  -0.019810   0.029129  -0.116145
   69  H 10  S    0.002687  -0.031566  -0.025529   0.018201  -0.087800
   70  H 11  S    0.002556   0.044524  -0.028821   0.253946  -0.022144
   71  H 11  S   -0.021588   0.028747  -0.016897   0.157769  -0.016178
   72  H 12  S   -0.182541   0.056890  -0.018221  -0.047208  -0.025659
   73  H 12  S   -0.106226   0.035406  -0.011860  -0.037171  -0.023700
   74  H 13  S    0.013016  -0.203283   0.047870  -0.035095  -0.031415
   75  H 13  S    0.006073  -0.117909   0.028173  -0.028773  -0.025124
   76  H 14  S   -0.004059   0.007289  -0.032285  -0.011799  -0.089521
   77  H 14  S    0.000640   0.003837  -0.013761  -0.004762  -0.063825
   78  H 15  S   -0.002811   0.024586  -0.007178  -0.019794   0.065180
   79  H 15  S   -0.001027   0.017301  -0.000376  -0.013065   0.042898
   80  H 16  S    0.184227   0.064397  -0.017216  -0.065457  -0.022974
   81  H 16  S    0.107133   0.040134  -0.013348  -0.049997  -0.020176

                     21         22         23         24         25
                   -0.5875    -0.5380    -0.5139    -0.5067    -0.4956
                     A          A          A          A          A   
    1  C  1  S    0.003288   0.006293   0.007486  -0.004119  -0.003552
    2  C  1  S   -0.002838  -0.004138  -0.010636   0.006650   0.002886
    3  C  1  X   -0.017504  -0.205141   0.105115   0.254160  -0.027060
    4  C  1  Y    0.215086  -0.119900  -0.026109  -0.049731   0.288802
    5  C  1  Z   -0.088730  -0.165384   0.152463  -0.229651  -0.061210
    6  C  1  S   -0.018580  -0.060369  -0.009409   0.013574   0.019049
    7  C  1  X   -0.012704  -0.154733   0.052161   0.222464  -0.022943
    8  C  1  Y    0.154921  -0.089245  -0.020912  -0.041267   0.236825
    9  C  1  Z   -0.052432  -0.098102   0.102376  -0.174680  -0.046727
   10  H  2  S   -0.136052  -0.005928   0.075570  -0.119592  -0.184012
   11  H  2  S   -0.112633  -0.003779   0.093513  -0.125033  -0.186930
   12  C  3  S   -0.008620  -0.027560   0.011556   0.009146  -0.000332
   13  C  3  S    0.007294   0.021524  -0.008764  -0.000658  -0.000122
   14  C  3  X    0.050419   0.182187  -0.077188  -0.099245   0.016592
   15  C  3  Y    0.281874   0.020011   0.009054   0.014926  -0.225629
   16  C  3  Z   -0.032321   0.210738  -0.179288   0.134396   0.056746
   17  C  3  S    0.045531   0.142391  -0.058947  -0.093777   0.006096
   18  C  3  X    0.032069   0.115763  -0.050291  -0.014704   0.009034
   19  C  3  Y    0.230321   0.011632  -0.002531   0.010982  -0.183999
   20  C  3  Z   -0.023056   0.178277  -0.163726   0.097609   0.040691
   21  C  4  S    0.016962   0.019143  -0.001174  -0.039224  -0.002167
   22  C  4  S   -0.019702  -0.016435  -0.000420   0.041107   0.000027
   23  C  4  X    0.006747  -0.081034   0.032071   0.155308  -0.029201
   24  C  4  Y   -0.037275   0.125035   0.001395   0.007212   0.001394
   25  C  4  Z    0.100131   0.107637   0.026691  -0.007529  -0.029320
   26  C  4  S   -0.058094  -0.094647   0.011382   0.187148   0.025307
   27  C  4  X   -0.012195  -0.081465   0.043787   0.169758  -0.029143
   28  C  4  Y    0.011443   0.097053   0.026287  -0.001673  -0.023551
   29  C  4  Z    0.046107   0.105118   0.020243  -0.017700   0.004085
   30  C  5  S    0.009465  -0.016846   0.008789   0.009473  -0.012294
   31  C  5  S   -0.010620   0.019488  -0.009635  -0.010981   0.012767
   32  C  5  X   -0.079899   0.055030  -0.061115  -0.026809   0.025609
   33  C  5  Y    0.053246  -0.050102  -0.071327   0.008915  -0.058042
   34  C  5  Z   -0.029794  -0.007665  -0.104832  -0.013579  -0.037948
   35  C  5  S   -0.054261   0.058355  -0.037449  -0.015865   0.060753
   36  C  5  X   -0.045105   0.027199  -0.047242  -0.026270   0.007429
   37  C  5  Y    0.046913  -0.040545  -0.075115  -0.007096  -0.049911
   38  C  5  Z   -0.034880  -0.012848  -0.102199  -0.001370  -0.031359
   39  N  6  S    0.000805   0.007071  -0.002169  -0.007771   0.002649
   40  N  6  S   -0.002212  -0.006390   0.001754   0.007672  -0.001626
   41  N  6  X    0.018255  -0.085741  -0.045155   0.014726  -0.032541
   42  N  6  Y   -0.041801  -0.140915  -0.166814  -0.033812  -0.048752
   43  N  6  Z   -0.062978  -0.135160  -0.204016  -0.048832  -0.033552
   44  N  6  S    0.008868  -0.038080   0.013162   0.035276  -0.020060
   45  N  6  X    0.026678  -0.092732  -0.049190   0.009855  -0.042585
   46  N  6  Y   -0.043837  -0.156886  -0.186270  -0.038234  -0.059238
   47  N  6  Z   -0.067932  -0.144980  -0.231246  -0.053178  -0.036629
   48  C  7  S   -0.001174   0.004575  -0.001061  -0.005821   0.000685
   49  C  7  S   -0.000782  -0.004726   0.000424   0.007189   0.000125
   50  C  7  X   -0.071366  -0.022188   0.006843   0.028434   0.021281
   51  C  7  Y   -0.028994  -0.042678   0.036802  -0.003511   0.030962
   52  C  7  Z   -0.024618  -0.050122   0.044580  -0.006904   0.030524
   53  C  7  S    0.016073  -0.023324   0.009373   0.020964  -0.011535
   54  C  7  X   -0.051107  -0.021421   0.009481   0.023996   0.018798
   55  C  7  Y   -0.031966  -0.040219   0.036445  -0.005374   0.031851
   56  C  7  Z   -0.018851  -0.046842   0.041803  -0.002602   0.032097
   57  N  8  S   -0.017831   0.001779  -0.004141   0.006815   0.007492
   58  N  8  S    0.013410  -0.000510   0.002014  -0.006049  -0.003473
   59  N  8  X    0.075024   0.024188   0.086735  -0.012378   0.003374
   60  N  8  Y    0.036966   0.072206   0.226811   0.014564   0.042618
   61  N  8  Z   -0.077490   0.101207   0.222492   0.065004   0.106317
   62  N  8  S    0.100601  -0.015543   0.029700  -0.027829  -0.054967
   63  N  8  X    0.071515   0.029263   0.098540  -0.018058  -0.003943
   64  N  8  Y    0.042939   0.076613   0.260797   0.016082   0.031560
   65  N  8  Z   -0.082674   0.116834   0.244099   0.068558   0.131746
   66  H  9  S    0.153854  -0.044675   0.077529  -0.087238  -0.151628
   67  H  9  S    0.110917  -0.041245   0.074256  -0.089141  -0.150824
   68  H 10  S   -0.141926  -0.021013   0.022909  -0.073361   0.145356
   69  H 10  S   -0.104750  -0.029213   0.009562  -0.078684   0.142274
   70  H 11  S    0.030026   0.000843   0.000711  -0.006600   0.000525
   71  H 11  S    0.026049  -0.004135   0.006783  -0.005655  -0.009484
   72  H 12  S   -0.025404   0.018968  -0.007488  -0.011950   0.008658
   73  H 12  S   -0.019703   0.019173  -0.007486  -0.014880   0.008318
   74  H 13  S    0.036416  -0.003840   0.007253  -0.011547  -0.011492
   75  H 13  S    0.024901  -0.001658   0.006531  -0.013510  -0.009491
   76  H 14  S   -0.002658  -0.101900   0.032700   0.231685  -0.011596
   77  H 14  S    0.001617  -0.078720   0.041770   0.197229  -0.010708
   78  H 15  S    0.097794  -0.097964   0.005148  -0.126835   0.184432
   79  H 15  S    0.072650  -0.085229   0.009408  -0.120572   0.175520
   80  H 16  S   -0.013649   0.012784  -0.007209  -0.003678   0.010833
   81  H 16  S   -0.026017   0.018188  -0.003792  -0.023600  -0.004011

                     26         27         28         29         30
                   -0.4334    -0.1958    -0.1427    -0.0956    -0.0606
                     A          A          A          A          A   
    1  C  1  S    0.018104   0.008191   0.034738   0.024636  -0.034710
    2  C  1  S   -0.015438  -0.000929  -0.025775  -0.012383   0.019792
    3  C  1  X    0.091805   0.014107   0.060104   0.018609  -0.001972
    4  C  1  Y    0.033847  -0.005852   0.005751   0.040027  -0.039300
    5  C  1  Z    0.082101   0.025601   0.065908  -0.025441   0.053030
    6  C  1  S   -0.085820  -0.079193  -0.277952  -0.281764   0.422688
    7  C  1  X    0.071506   0.057638   0.037718   0.014918   0.050673
    8  C  1  Y    0.023611  -0.021329  -0.014348   0.117163  -0.109892
    9  C  1  Z    0.068004   0.045637   0.138749  -0.104289   0.207222
   10  H  2  S   -0.001792   0.008610  -0.008954  -0.009310   0.000910
   11  H  2  S    0.005313  -0.016089  -0.007959   0.251939  -0.390173
   12  C  3  S    0.004219  -0.000376   0.000657  -0.005189  -0.043530
   13  C  3  S   -0.004101  -0.002584   0.000092   0.000162   0.025850
   14  C  3  X   -0.036996  -0.001069  -0.004973  -0.056813  -0.037927
   15  C  3  Y   -0.083662   0.000100  -0.003875   0.015529  -0.006762
   16  C  3  Z   -0.092251  -0.002228  -0.000236   0.023606  -0.020324
   17  C  3  S   -0.020113   0.011769  -0.027033   0.046877   0.526864
   18  C  3  X   -0.015443   0.007933   0.066163  -0.150280  -0.060541
   19  C  3  Y   -0.071709   0.039311   0.037460  -0.028426   0.028310
   20  C  3  Z   -0.080444   0.050545   0.040393   0.131989  -0.127227
   21  C  4  S   -0.001438   0.000608  -0.000280   0.003075   0.030203
   22  C  4  S   -0.000331  -0.000363  -0.002039   0.000882  -0.027185
   23  C  4  X    0.069228   0.024701   0.089002  -0.028141   0.033143
   24  C  4  Y    0.185918   0.074782   0.256763  -0.039557   0.051443
   25  C  4  Z    0.210887   0.085124   0.293187   0.032582  -0.033186
   26  C  4  S    0.014281  -0.011214   0.024083  -0.107457  -0.131540
   27  C  4  X    0.083457   0.025503   0.178102  -0.117122  -0.110307
   28  C  4  Y    0.184108   0.083797   0.403690  -0.009204   0.065177
   29  C  4  Z    0.212261   0.101995   0.453793   0.013133   0.026545
   30  C  5  S    0.000117  -0.000151  -0.000106   0.021951  -0.030144
   31  C  5  S   -0.000476  -0.000118  -0.000135  -0.016070   0.034924
   32  C  5  X    0.070403   0.027672  -0.083947  -0.037438  -0.073487
   33  C  5  Y    0.202923   0.077986  -0.241767  -0.035792  -0.042268
   34  C  5  Z    0.229399   0.089338  -0.273958   0.048502   0.052182
   35  C  5  S    0.005374   0.002636   0.010095  -0.308458   0.100653
   36  C  5  X    0.071872   0.041416  -0.146566  -0.096098  -0.151957
   37  C  5  Y    0.204330   0.106942  -0.417771  -0.100596  -0.002859
   38  C  5  Z    0.238596   0.121993  -0.453076   0.135905   0.021335
   39  N  6  S   -0.000182   0.000015   0.000320   0.077588   0.096139
   40  N  6  S    0.000362  -0.000095   0.000199  -0.049823  -0.055813
   41  N  6  X   -0.020025  -0.065495   0.035866   0.106016   0.143460
   42  N  6  Y   -0.059038  -0.187026   0.102523  -0.059013  -0.084970
   43  N  6  Z   -0.067119  -0.212180   0.116678   0.017607   0.032795
   44  N  6  S   -0.001016   0.000875  -0.007676  -0.706725  -0.966295
   45  N  6  X   -0.023585  -0.101541   0.055520   0.270604   0.348130
   46  N  6  Y   -0.066683  -0.290854   0.164907  -0.159201  -0.177998
   47  N  6  Z   -0.075512  -0.330882   0.190164   0.051980   0.056488
   48  C  7  S   -0.000198   0.000141  -0.000464   0.006247   0.013625
   49  C  7  S    0.000077  -0.000138  -0.000006   0.002039  -0.009767
   50  C  7  X   -0.059423   0.095945   0.000421   0.102370  -0.072174
   51  C  7  Y   -0.170711   0.274337  -0.001989   0.054662   0.079212
   52  C  7  Z   -0.193928   0.311509  -0.001682  -0.079975  -0.047170
   53  C  7  S   -0.000264  -0.001496   0.001888  -0.263885  -0.184916
   54  C  7  X   -0.062607   0.138860   0.003928   0.203068  -0.244150
   55  C  7  Y   -0.180219   0.399963  -0.001095   0.089545   0.231262
   56  C  7  Z   -0.206537   0.454585  -0.003547  -0.141595  -0.127174
   57  N  8  S    0.000268  -0.000060   0.001233   0.090117  -0.081352
   58  N  8  S   -0.000035   0.000391  -0.001122  -0.061235   0.049653
   59  N  8  X   -0.006144  -0.063368  -0.036057  -0.070639   0.060527
   60  N  8  Y   -0.017278  -0.182202  -0.099677   0.092186  -0.113644
   61  N  8  Z   -0.018149  -0.206841  -0.113367  -0.056881   0.077503
   62  N  8  S   -0.001623  -0.001593  -0.007205  -0.796887   0.809269
   63  N  8  X   -0.009067  -0.100673  -0.060392  -0.150643   0.057202
   64  N  8  Y   -0.016000  -0.282720  -0.157913   0.250385  -0.278981
   65  N  8  Z   -0.016427  -0.321133  -0.186999  -0.168137   0.216172
   66  H  9  S   -0.005732   0.001552  -0.000705   0.018074  -0.018785
   67  H  9  S   -0.006028   0.005733   0.004402   0.126085  -0.285679
   68  H 10  S    0.093033   0.020139   0.075586  -0.016398   0.006918
   69  H 10  S    0.110036   0.092669   0.218901   0.042408  -0.207720
   70  H 11  S   -0.000071  -0.000162   0.000755   0.046642  -0.018137
   71  H 11  S    0.001396   0.000174   0.007451   0.388766  -0.034332
   72  H 12  S   -0.000379   0.000164   0.000421   0.134929   0.095397
   73  H 12  S   -0.000701   0.000577   0.001447   0.862121   0.985865
   74  H 13  S   -0.000235  -0.000046  -0.000329   0.028547   0.009116
   75  H 13  S    0.000405  -0.000080   0.001668   0.460831   0.129590
   76  H 14  S    0.035394   0.001991   0.030939   0.021505  -0.008335
   77  H 14  S    0.048393  -0.003219   0.145122   0.095034  -0.134054
   78  H 15  S    0.026507  -0.000176  -0.006348  -0.003286  -0.003413
   79  H 15  S    0.056827   0.033083   0.052106   0.020977  -0.124815
   80  H 16  S    0.000074  -0.000478   0.000250   0.137616  -0.052796
   81  H 16  S   -0.000302   0.003085   0.010099   0.930324  -0.809798

                     31         32         33         34         35
                   -0.0383    -0.0187    -0.0002     0.0227     0.0310
                     A          A          A          A          A   
    1  C  1  S   -0.022493   0.007327  -0.046659   0.042931  -0.058817
    2  C  1  S    0.012682  -0.009686   0.026103  -0.019316   0.032077
    3  C  1  X   -0.013280  -0.024378   0.054809   0.031345   0.108477
    4  C  1  Y   -0.018694  -0.050174   0.005831  -0.038041   0.024206
    5  C  1  Z   -0.007909   0.031974   0.088682   0.052189  -0.009668
    6  C  1  S    0.252867  -0.065288   0.657548  -0.505823   0.763348
    7  C  1  X    0.013549  -0.089747   0.172766   0.066317   0.320398
    8  C  1  Y   -0.091006  -0.127133   0.082822  -0.025516   0.086189
    9  C  1  Z   -0.018082   0.044646   0.381521   0.198837   0.039976
   10  H  2  S   -0.003863  -0.022845  -0.011888  -0.029448   0.000765
   11  H  2  S   -0.155095  -0.223633  -0.460901  -0.070546  -0.141051
   12  C  3  S   -0.000880   0.056891  -0.101237  -0.037349  -0.038250
   13  C  3  S   -0.000143  -0.030944   0.055066   0.015263   0.010680
   14  C  3  X   -0.026420   0.020078  -0.014432   0.054254   0.129871
   15  C  3  Y   -0.002883  -0.110117  -0.045874  -0.191522  -0.041676
   16  C  3  Z    0.006090   0.088249  -0.072934   0.027113  -0.133754
   17  C  3  S   -0.005465  -0.740328   1.336122   0.475683   0.603279
   18  C  3  X   -0.132426   0.013254  -0.000537   0.289077   0.280443
   19  C  3  Y    0.046483  -0.329663  -0.168052  -0.650256  -0.199353
   20  C  3  Z   -0.008950   0.278188  -0.288224   0.101225  -0.377386
   21  C  4  S    0.043600  -0.015763  -0.039634   0.016684   0.006196
   22  C  4  S   -0.023255   0.020704   0.054844  -0.007252   0.020219
   23  C  4  X    0.040907  -0.015448  -0.118179   0.060635   0.093281
   24  C  4  Y    0.089008  -0.099373  -0.044174  -0.116425   0.067693
   25  C  4  Z   -0.080607   0.077200   0.135711   0.085659  -0.004722
   26  C  4  S   -0.501793  -0.107312   0.340740  -0.197463  -0.207790
   27  C  4  X    0.073439   0.227644  -0.419237   0.243409   0.259546
   28  C  4  Y    0.192116  -0.283688  -0.015987  -0.321119   0.238505
   29  C  4  Z   -0.178271   0.166509   0.288022   0.303614  -0.104109
   30  C  5  S    0.053741   0.055111   0.021022  -0.108414   0.040843
   31  C  5  S   -0.038106  -0.051689  -0.005821   0.070346  -0.022041
   32  C  5  X    0.124783   0.102952  -0.091634   0.037532   0.190399
   33  C  5  Y    0.011124  -0.135757  -0.094096   0.087891   0.028400
   34  C  5  Z   -0.052097   0.093106   0.098176  -0.096121  -0.106243
   35  C  5  S   -0.494114  -0.501579  -0.376577   1.446510  -0.407773
   36  C  5  X    0.383567   0.420568  -0.486497   0.211010   0.480306
   37  C  5  Y   -0.029443  -0.535032  -0.286569   0.208754   0.085921
   38  C  5  Z   -0.102110   0.352704   0.333736  -0.282189  -0.313431
   39  N  6  S   -0.080537  -0.049919  -0.021740   0.003577  -0.033671
   40  N  6  S    0.058477   0.025571   0.014261  -0.010796   0.010584
   41  N  6  X    0.054278   0.098112  -0.139577  -0.047047   0.150055
   42  N  6  Y    0.000110  -0.065955  -0.044989  -0.073368   0.035899
   43  N  6  Z   -0.015175   0.026330   0.084280   0.077750  -0.073858
   44  N  6  S    0.711373   0.526156   0.240569   0.038656   0.419429
   45  N  6  X    0.120612   0.203971  -0.363249  -0.097776   0.418356
   46  N  6  Y    0.040174  -0.171257  -0.199588  -0.195752   0.090265
   47  N  6  Z   -0.069225   0.085364   0.300322   0.205826  -0.191061
   48  C  7  S    0.120432  -0.000200   0.058963   0.029963  -0.077710
   49  C  7  S   -0.088816  -0.002204  -0.043544  -0.019011   0.058808
   50  C  7  X    0.134629   0.085381  -0.038698   0.130500   0.106396
   51  C  7  Y    0.075217  -0.132744  -0.030866  -0.002274  -0.068948
   52  C  7  Z   -0.108965   0.088957   0.042421  -0.035390   0.029191
   53  C  7  S   -1.324373   0.068670  -0.742697  -0.483379   0.969744
   54  C  7  X    0.469971   0.347797  -0.132776   0.356206   0.541873
   55  C  7  Y    0.266497  -0.454504  -0.208546  -0.042922  -0.311394
   56  C  7  Z   -0.380530   0.290456   0.234468  -0.063588   0.117888
   57  N  8  S   -0.063488   0.030512   0.027734   0.026455   0.043877
   58  N  8  S    0.050308  -0.020661  -0.016842  -0.008212  -0.021219
   59  N  8  X    0.002230   0.079448  -0.115731  -0.039143   0.199205
   60  N  8  Y    0.047884  -0.125570  -0.036828  -0.022140   0.040457
   61  N  8  Z   -0.041025   0.091966   0.046607   0.009706  -0.123898
   62  N  8  S    0.517076  -0.269780  -0.248642  -0.322273  -0.520380
   63  N  8  X    0.047558   0.250080  -0.386737  -0.057194   0.581891
   64  N  8  Y    0.095728  -0.260440  -0.085051  -0.072648   0.126567
   65  N  8  Z   -0.101936   0.159736   0.152084   0.054766  -0.344023
   66  H  9  S   -0.044273   0.067965   0.013085   0.094837  -0.041593
   67  H  9  S   -0.091232   0.919230  -0.507409   0.531764  -0.549366
   68  H 10  S    0.026636  -0.024803  -0.032337  -0.085991  -0.016564
   69  H 10  S    0.101286  -0.034738  -0.819795  -1.012100  -0.634703
   70  H 11  S    0.028582   0.068367   0.101347  -0.055266   0.008559
   71  H 11  S    0.199168   1.044217   0.769565  -1.146281  -0.124384
   72  H 12  S   -0.013130   0.049193  -0.037347   0.027957   0.064102
   73  H 12  S   -0.197605   0.257166  -0.413864   0.075404   0.320751
   74  H 13  S    0.157335  -0.006686  -0.004282   0.003313  -0.002585
   75  H 13  S    1.559887  -0.201068   0.058863   0.545779  -0.366031
   76  H 14  S   -0.007184   0.008643   0.000973   0.007522  -0.049085
   77  H 14  S   -0.103570   0.163095  -0.300202   0.164011  -0.745775
   78  H 15  S    0.005416   0.010224  -0.017245   0.028387   0.014225
   79  H 15  S   -0.004780   0.166139  -0.425333   0.280860  -0.265277
   80  H 16  S   -0.006913  -0.076318   0.057024  -0.023772   0.025296
   81  H 16  S   -0.102319  -0.524368   0.186630   0.006931   0.175034

                     36         37         38         39         40
                    0.0423     0.0477     0.0709     0.0730     0.0982
                     A          A          A          A          A   
    1  C  1  S   -0.122087   0.046496  -0.013387   0.065062   0.073235
    2  C  1  S    0.052008  -0.016256  -0.009509  -0.027981  -0.013362
    3  C  1  X   -0.071500   0.046532  -0.214484  -0.202964   0.055440
    4  C  1  Y   -0.024024  -0.189107  -0.200395   0.173467  -0.105623
    5  C  1  Z    0.114611  -0.073489   0.037240   0.043413   0.194880
    6  C  1  S    1.623020  -0.657277   0.183282  -0.873572  -1.016433
    7  C  1  X   -0.282292   0.234918  -1.012626  -0.717563   0.557660
    8  C  1  Y   -0.075375  -0.616866  -0.789097   0.688981  -0.489650
    9  C  1  Z    0.285780  -0.251018   0.167505   0.262534   0.871756
   10  H  2  S   -0.083282  -0.035652  -0.060897   0.007245  -0.064565
   11  H  2  S   -1.121863  -0.115384  -1.023353   0.562218  -0.648196
   12  C  3  S    0.036749  -0.039106   0.045217  -0.080075  -0.117633
   13  C  3  S   -0.020650   0.017435  -0.012389   0.040757   0.035833
   14  C  3  X   -0.155532  -0.030519   0.057175  -0.043030  -0.021280
   15  C  3  Y   -0.087755  -0.167067   0.066014  -0.086490   0.202451
   16  C  3  Z    0.068082   0.002758  -0.189567  -0.026125   0.188028
   17  C  3  S   -0.472336   0.468325  -0.516360   0.973624   1.602771
   18  C  3  X   -0.687624  -0.121590   0.329594   0.008031  -0.164555
   19  C  3  Y   -0.337631  -0.534959   0.259706  -0.386103   0.811086
   20  C  3  Z    0.138186   0.117232  -0.894803  -0.143486   0.923719
   21  C  4  S    0.064123   0.020803  -0.064733   0.076874   0.089950
   22  C  4  S   -0.037924  -0.002485  -0.005114  -0.039483  -0.030341
   23  C  4  X   -0.054303  -0.018913   0.008603  -0.064386  -0.115191
   24  C  4  Y    0.059416   0.111478  -0.030670   0.064603  -0.071074
   25  C  4  Z    0.029013  -0.091558  -0.033149  -0.075644  -0.039021
   26  C  4  S   -0.832526  -0.276915   1.173783  -0.962980  -1.315162
   27  C  4  X   -0.212986  -0.092751   0.074820   0.089788  -0.508953
   28  C  4  Y    0.133141   0.498939   0.082288   0.091205  -0.208311
   29  C  4  Z    0.043702  -0.284442  -0.012054  -0.066638  -0.108999
   30  C  5  S   -0.021092   0.049193   0.030935   0.008584  -0.030155
   31  C  5  S    0.017526  -0.028278  -0.028169   0.005807   0.033177
   32  C  5  X    0.018794  -0.011817  -0.033261   0.126509   0.070844
   33  C  5  Y    0.012393  -0.064942   0.084109  -0.056176  -0.024031
   34  C  5  Z   -0.010941   0.034938  -0.047338   0.036124   0.010639
   35  C  5  S    0.191133  -0.792625  -0.339835  -0.098563   0.291842
   36  C  5  X    0.207902  -0.071891  -0.306443   0.371478   0.328148
   37  C  5  Y    0.029477  -0.138350   0.306552  -0.279245   0.003563
   38  C  5  Z   -0.139382   0.102554  -0.183467   0.130143   0.075838
   39  N  6  S    0.020392   0.022480  -0.005496  -0.006266  -0.016759
   40  N  6  S   -0.018692  -0.003915   0.004361   0.008346  -0.004507
   41  N  6  X   -0.029782   0.004028   0.022232   0.025619  -0.018265
   42  N  6  Y    0.079474   0.129078  -0.033228   0.061825  -0.015264
   43  N  6  Z   -0.062246  -0.111218   0.013961  -0.074011   0.025765
   44  N  6  S   -0.170088  -0.341901   0.060771   0.005401   0.329642
   45  N  6  X   -0.003979   0.018422   0.030007   0.073143   0.027472
   46  N  6  Y    0.238141   0.384293  -0.091327   0.204092  -0.123079
   47  N  6  Z   -0.198848  -0.336894   0.067275  -0.210182   0.074346
   48  C  7  S   -0.029935  -0.026989  -0.012086  -0.021597  -0.004731
   49  C  7  S    0.020686   0.018861   0.001734   0.013531   0.004729
   50  C  7  X   -0.051258  -0.130191   0.051012  -0.024848   0.007994
   51  C  7  Y    0.038765   0.080599   0.007403  -0.004459  -0.079649
   52  C  7  Z   -0.019641  -0.034083  -0.019936   0.024801   0.060767
   53  C  7  S    0.392700   0.428538   0.093681   0.390015   0.102607
   54  C  7  X   -0.238119  -0.515651   0.383091  -0.091943   0.114289
   55  C  7  Y    0.213588   0.433815  -0.124720   0.124512  -0.349835
   56  C  7  Z   -0.111242  -0.215552  -0.003513  -0.070704   0.241679
   57  N  8  S   -0.000380  -0.042729   0.045683  -0.033690   0.000528
   58  N  8  S   -0.004895   0.011896  -0.020143   0.017563   0.006409
   59  N  8  X   -0.015620  -0.039604   0.035967   0.048808   0.103093
   60  N  8  Y    0.090684   0.056118  -0.008607   0.006835   0.100052
   61  N  8  Z   -0.073648  -0.054104  -0.018407  -0.064665  -0.026538
   62  N  8  S    0.034766   0.577200  -0.581824   0.369664  -0.074137
   63  N  8  X   -0.035736  -0.080248   0.090224   0.192036   0.231602
   64  N  8  Y    0.198620   0.185535  -0.076434   0.093194   0.192956
   65  N  8  Z   -0.189426  -0.171240   0.025309  -0.154679  -0.128954
   66  H  9  S    0.063575   0.000388  -0.027790  -0.032256   0.030685
   67  H  9  S    0.812342   0.327291  -0.687750  -0.248629  -0.454343
   68  H 10  S    0.007657  -0.052168  -0.034323   0.000361   0.042151
   69  H 10  S    0.086024  -0.779859   0.000119  -0.752913   0.631192
   70  H 11  S   -0.047962  -0.014952   0.011456   0.018924   0.027798
   71  H 11  S   -0.263371   0.536655  -0.189913   0.341917  -0.089398
   72  H 12  S   -0.002032  -0.038706   0.000518   0.013218   0.048590
   73  H 12  S   -0.119590  -0.196588   0.085089  -0.057151   0.021856
   74  H 13  S   -0.005398   0.009553  -0.013954   0.023434   0.013994
   75  H 13  S   -0.204654  -0.245378   0.143187  -0.175684  -0.290222
   76  H 14  S    0.052168  -0.021374   0.067954   0.094013   0.004969
   77  H 14  S   -0.055051  -0.148317   1.025273   1.350060   0.200731
   78  H 15  S   -0.027792   0.094483   0.032416  -0.057004   0.009136
   79  H 15  S   -0.756186   1.218230   0.520901  -0.690454   0.531954
   80  H 16  S    0.074065   0.066055   0.026641  -0.011726   0.026020
   81  H 16  S    0.416705   0.217850   0.134115  -0.096601   0.120774

                     41         42         43         44         45
                    0.1179     0.1817     0.2267     0.2689     0.4783
                     A          A          A          A          A   
    1  C  1  S    0.030537  -0.001621  -0.009833  -0.012422   0.005055
    2  C  1  S   -0.004545  -0.003131  -0.010273   0.008918   0.006492
    3  C  1  X    0.035289   0.027781   0.064145   0.013929  -0.134617
    4  C  1  Y    0.055278  -0.000734  -0.039250   0.011539  -0.113589
    5  C  1  Z    0.230178  -0.045255  -0.036737   0.056956   0.008340
    6  C  1  S   -0.438816  -0.000112   0.311716   0.181288  -0.028464
    7  C  1  X    0.206363   0.052893  -0.088085  -0.159772   0.183515
    8  C  1  Y    0.289889   0.026835  -0.317715  -0.102768   0.176721
    9  C  1  Z    1.012355  -0.178291  -0.191237   0.142063  -0.031719
   10  H  2  S   -0.019518  -0.002419  -0.009376  -0.023840   0.173404
   11  H  2  S   -0.381032   0.169734  -0.132919  -0.247537   0.004631
   12  C  3  S    0.017955  -0.015852  -0.001829   0.047960  -0.006505
   13  C  3  S   -0.000539   0.007700   0.007085   0.036176  -0.057056
   14  C  3  X    0.286307  -0.098186   0.010005   0.020560   0.251717
   15  C  3  Y   -0.004968   0.024229   0.130791   0.048404  -0.235938
   16  C  3  Z    0.152079  -0.010333  -0.118904  -0.044674   0.087211
   17  C  3  S   -0.289866   0.216553  -0.064135  -1.554543   0.562911
   18  C  3  X    1.404340  -0.427876  -0.106306   1.267059  -0.491682
   19  C  3  Y   -0.056136  -0.102505   0.666161   0.002698   0.357457
   20  C  3  Z    0.565735   0.152228  -0.678301  -0.412691  -0.004628
   21  C  4  S   -0.105538   0.030856   0.033302   0.076849  -0.021147
   22  C  4  S    0.061523  -0.051861  -0.029541  -0.027808  -0.011699
   23  C  4  X    0.093192  -0.093248   0.057401   0.375159   0.131945
   24  C  4  Y    0.001671   0.111459  -0.253844   0.049121  -0.298543
   25  C  4  Z   -0.119052  -0.050704   0.217889  -0.181102   0.191828
   26  C  4  S    1.623650  -0.158852  -1.169101  -1.639752  -0.510905
   27  C  4  X    0.498194  -0.432007   0.754776   2.951110  -0.581107
   28  C  4  Y    0.049463   0.281930  -1.552927  -0.368506   0.187081
   29  C  4  Z   -0.460065  -0.100836   1.164853  -0.558381  -0.007395
   30  C  5  S    0.060340  -0.013104  -0.047470  -0.114914  -0.023764
   31  C  5  S   -0.045505  -0.015942  -0.008569   0.011693  -0.006521
   32  C  5  X    0.044099  -0.013212   0.161869  -0.158733  -0.665052
   33  C  5  Y    0.041310  -0.064691  -0.075575  -0.181601   0.055977
   34  C  5  Z   -0.024245   0.055414   0.010459   0.219743   0.076346
[...]
   1216    3.12862    4.84946   -2.97726        -6.372453       6.478737       0.106284
   1217    4.05517    3.95285   -3.89237        -6.097252       6.200058       0.102806
   1218    4.62074    2.47216   -4.80749        -5.968733       6.070015       0.101282
   1219    4.60225    0.99147   -5.36163        -6.008981       6.110682       0.101700
   1220    3.70563    0.07636   -6.28817        -6.023120       6.125365       0.102245
   1221    0.74425    3.37584   -6.83525        -6.105136       6.214958       0.109823
   1222    2.22494    2.82170   -6.85375        -5.856304       5.959817       0.103513
   1223    3.70563    1.90659   -6.28817        -5.823894       5.924578       0.100685
   1224    0.74425    1.90659   -7.41932        -6.125695       6.233778       0.108083
   1225    2.36256    0.99147   -7.21405        -5.939393       6.042245       0.102852
   1226    0.74425    0.07636   -7.41932        -6.325736       6.433779       0.108043
   1227    2.57448    4.86796   -4.45795        -6.092132       6.197837       0.105706
   1228    3.36273    3.60995   -5.59574        -5.846554       5.948437       0.101883
   1229    1.65937    4.30239   -5.93863        -6.004610       6.111815       0.107205
   1230    1.65937    5.43353   -2.97726        -6.590046       6.701910       0.111864
   1231   -0.17086    5.43353   -2.97726        -7.158138       7.282941       0.124803
   1232    0.74425    5.22826   -4.59557        -6.422040       6.536595       0.114555
   1233   -0.17086    4.30239   -5.93863        -6.459468       6.577930       0.118461
   1234   -0.73643    2.82170   -6.85375        -6.571803       6.690839       0.119035
   1235   -0.87406    0.99147   -7.21405        -6.733871       6.850480       0.116608
   1236    3.14335   -6.14037   -2.34931        -6.064912       6.172490       0.107578
   1237    4.06989   -5.24375   -1.43419        -6.295451       6.403798       0.108347
   1238    2.58921   -6.15887   -0.86862        -6.475841       6.591567       0.115725
   1239    4.06989   -5.24375   -3.26442        -5.922564       6.025776       0.103212
   1240    4.63547   -3.76307   -4.17954        -5.957966       6.059813       0.101847
   1241    4.99577   -3.90069   -2.34931        -6.269966       6.375676       0.105710
   1242    0.75898   -4.66675   -6.20730        -6.094722       6.200079       0.105357
   1243    2.23966   -4.11261   -6.22580        -5.910193       6.012271       0.102078
   1244    3.72035   -3.19750   -5.66022        -5.930394       6.031690       0.101296
   1245    1.67409   -5.59330   -5.31068        -5.902769       6.006800       0.104031
   1246    3.37746   -4.90086   -4.96779        -5.795241       5.896454       0.101214
   1247    2.58921   -6.15887   -3.82999        -5.891123       5.995993       0.104871
   1248    2.37729   -2.28238   -6.58610        -6.172411       6.276674       0.104263
   1249    0.75898   -3.19750   -6.79137        -6.279155       6.385405       0.106250
   1250   -0.72171   -4.11261   -6.22580        -6.571742       6.682711       0.110969
   1251   -1.62539   -6.14037   -2.34931        -7.416463       7.549923       0.133460
   1252   -0.15614   -5.59330   -5.31068        -6.289941       6.399756       0.109815
   1253   -1.07125   -6.15887   -3.82999        -6.754607       6.873912       0.119304
   1254   -1.85950   -4.90086   -4.96779        -7.065948       7.185182       0.119234
   1255   -0.15614   -6.72444   -2.34931        -6.695103       6.817517       0.122415
   1256    0.75898   -6.51917   -3.96762        -6.153583       6.263845       0.110262
   1257    1.67409   -6.72444   -2.34931        -6.227719       6.340538       0.112819
   1258    0.75898   -6.51917   -0.73100        -6.883078       7.011450       0.128372
   1259   -1.79074    6.69718   -3.03454        -6.488610       6.608550       0.119940
   1260   -2.34488    6.71567   -1.55385        -6.795307       6.917017       0.121710
   1261   -0.86419    5.80056   -3.94966        -6.693921       6.816702       0.122782
   1262   -4.17511    5.22355   -6.89253        -5.793665       5.910163       0.116498
   1263   -2.69442    4.66941   -6.91103        -6.038280       6.155795       0.117515
   1264   -1.21373    3.75430   -6.34546        -6.644398       6.768245       0.123847
   1265   -4.17511    3.75430   -7.47660        -5.997956       6.115334       0.117378
   1266   -2.55680    2.83918   -7.27133        -6.449761       6.570000       0.120239
   1267   -4.17511    1.92407   -7.47660        -6.463237       6.583048       0.119811
   1268   -2.34488    6.71567   -4.51523        -6.079719       6.197320       0.117601
   1269   -1.55663    5.45766   -5.65302        -6.253639       6.373182       0.119542
   1270   -3.25999    6.15010   -5.99591        -5.833350       5.949692       0.116342
   1271   -3.25999    7.28124   -3.03454        -6.163260       6.281934       0.118673
   1272   -5.09022    7.28124   -3.03454        -6.046684       6.168381       0.121697
   1273   -6.55948    6.69718   -3.03454        -6.149509       6.278290       0.128782
   1274   -4.17511    7.07598   -1.41623        -6.530874       6.654125       0.123251
   1275   -6.00534    6.71567   -4.51523        -5.840862       5.962830       0.121968
   1276   -4.17511    7.07598   -4.65285        -5.821401       5.938836       0.117435
   1277   -5.09022    6.15010   -5.99591        -5.716978       5.834685       0.117707
   1278   -7.48602    5.80056   -3.94966        -6.158747       6.292145       0.133398
   1279   -6.79359    5.45766   -5.65302        -5.866571       5.990419       0.123847
   1280   -5.65579    4.66941   -6.91103        -5.822933       5.941749       0.118816
   1281   -8.05159    4.31987   -4.86477        -6.330706       6.468597       0.137891
   1282   -7.13648    3.75430   -6.34546        -6.103104       6.229242       0.126138
   1283   -5.79342    2.83918   -7.27133        -6.156073       6.276736       0.120663
   1284   -9.09572    5.96364   -0.63737        -6.018709       6.154172       0.135464
   1285  -10.56498    5.37957   -0.63737        -5.634242       5.766897       0.132655
   1286  -10.01084    5.39807    0.84332        -5.828004       5.961381       0.133377
   1287  -10.01084    5.39807   -2.11805        -5.765842       5.900442       0.134600
   1288   -8.18061    5.75837   -2.25568        -6.382212       6.524239       0.142027
   1289   -9.09572    4.83249   -3.59874        -6.126445       6.266249       0.139803
   1290  -11.49153    4.48295   -1.55248        -5.465677       5.597497       0.131820
   1291  -10.79909    4.14006   -3.25585        -5.652878       5.786385       0.133507
   1292   -9.66130    3.35181   -4.51385        -6.092322       6.229997       0.137675
   1293  -12.05710    3.00227   -2.46760        -5.455673       5.587444       0.131772
   1294  -11.14198    2.43669   -3.94828        -5.728297       5.861443       0.133145
   1295  -12.03860    1.52158   -3.02174        -5.606956       5.739595       0.132638
   1296  -11.14198    0.60646   -3.94828        -5.955753       6.089725       0.133972
   1297  -10.79909    4.14006    1.98111        -5.795971       5.930993       0.135022
   1298  -11.49153    4.48295    0.27775        -5.510449       5.642777       0.132328
   1299  -11.14198    2.43669    2.67355        -5.981004       6.122123       0.141119
   1300  -12.05710    3.00227    1.19286        -5.569033       5.704130       0.135098
   1301  -12.03860    1.52158    1.74700        -5.803634       5.944527       0.140893
   1302  -12.62267    1.52158    0.27775        -5.573117       5.709574       0.136457
   1303  -12.41740    3.13989   -0.63737        -5.403068       5.535430       0.132362
   1304  -12.62267    1.52158   -1.55248        -5.503175       5.636642       0.133466
   1305  -12.05710    0.04089    1.19286        -6.010643       6.156704       0.146061
   1306  -12.41740   -0.09673   -0.63737        -5.809520       5.948787       0.139267
   1307  -12.05710    0.04089   -2.46760        -5.807383       5.942632       0.135249
   1308   -7.36855   -4.57735    6.24139        -5.831111       5.964986       0.133875
   1309   -5.88786   -4.02321    6.25989        -6.368544       6.511454       0.142910
   1310   -7.36855   -3.10809    6.82546        -5.909109       6.041931       0.132822
   1311   -7.36855   -1.27786    6.82546        -6.161226       6.294554       0.133327
   1312   -6.45343   -5.50389    5.34477        -6.153712       6.295205       0.141493
   1313   -8.84924   -0.36275    6.25989        -6.000048       6.132504       0.132456
   1314   -9.98703    0.42550    5.00188        -6.103852       6.241872       0.138021
   1315  -10.32992   -1.27786    5.69432        -5.628186       5.758488       0.130302
   1316  -11.24504   -0.71229    4.21363        -5.779396       5.915616       0.136220
   1317  -11.22654   -2.19298    4.76777        -5.482764       5.612490       0.129726
   1318  -11.81061   -2.19298    3.29851        -5.611105       5.744595       0.133491
   1319  -11.60534   -0.57467    2.38340        -6.122168       6.269612       0.147444
   1320  -11.81061   -2.19298    1.46829        -5.971695       6.112665       0.140970
   1321   -9.75292   -6.05097    2.38340        -5.706859       5.836632       0.129773
   1322  -10.67946   -5.15435    3.29851        -5.467853       5.595591       0.127738
   1323  -11.24504   -3.67366    4.21363        -5.389878       5.517697       0.127819
   1324  -10.67946   -5.15435    1.46829        -5.767668       5.898331       0.130663
   1325  -11.60534   -3.81129    2.38340        -5.589661       5.720614       0.130953
   1326  -11.24504   -3.67366    0.55317        -6.045363       6.182339       0.136976
   1327   -9.19878   -6.06947    0.90271        -6.125635       6.258921       0.133285
   1328   -8.28366   -6.63504    2.38340        -6.012287       6.146657       0.134371
   1329  -10.32992   -3.10809    5.69432        -5.410998       5.538281       0.127283
   1330   -9.98703   -4.81146    5.00188        -5.395612       5.522726       0.127114
   1331   -9.19878   -6.06947    3.86409        -5.593958       5.723512       0.129554
   1332   -8.84924   -4.02321    6.25989        -5.532550       5.661181       0.128631
   1333   -8.28366   -5.50389    5.34477        -5.639422       5.770597       0.131175
   1334   -7.36855   -6.42977    4.00171        -6.002579       6.139985       0.137406
   1335   -8.98686   -2.19298    6.62019        -5.654172       5.783166       0.128993
   1336    7.03897   -0.97012    3.51258        -5.403285       5.492951       0.089666
   1337    7.93559   -0.05501    2.58603        -5.143599       5.230085       0.086486
   1338    7.03897    0.86011    3.51258        -5.385130       5.473522       0.088392
   1339    6.46197   -3.91300    0.20166        -5.654074       5.749673       0.095599
   1340    7.38851   -3.01638    1.11678        -5.333549       5.424223       0.090674
   1341    7.95408   -1.53569    2.03189        -5.154484       5.241991       0.087507
   1342    6.69608   -2.67349    2.82015        -5.534210       5.626824       0.092614
   1343    7.95408    1.42568    2.03189        -5.130295       5.216212       0.085917
   1344    7.38851    2.90637    1.11678        -5.280166       5.367512       0.087346
   1345    6.46197    3.80299    0.20166        -5.569516       5.660208       0.090692
   1346    7.38851    2.90637   -0.71345        -5.302379       5.391010       0.088631
   1347    8.31439    1.56330    0.20166        -5.053071       5.138993       0.085922
   1348    8.51965   -0.05501    1.11678        -5.006198       5.091803       0.085605
   1349    7.95408    1.42568   -1.62857        -5.172426       5.260718       0.088292
   1350    8.51965   -0.05501   -0.71345        -5.025411       5.112085       0.086675
   1351    7.93559   -0.05501   -2.18271        -5.200614       5.290029       0.089415
   1352    7.38851   -3.01638   -0.71345        -5.358187       5.449869       0.091681
   1353    7.95408   -1.53569   -1.62857        -5.198311       5.287907       0.089595
   1354    8.31439   -1.67332    0.20166        -5.078374       5.165799       0.087425
   1355    5.55828   -1.88523   -3.67482        -6.120498       6.223124       0.102627
   1356    7.03897   -0.97012   -3.10925        -5.502401       5.596256       0.093855
   1357    6.69608   -2.67349   -2.41682        -5.618603       5.714248       0.095645
   1358    5.90782   -3.93149   -1.27902        -5.898561       5.998138       0.099577
   1359    5.55828    1.77522   -3.67482        -6.058793       6.159831       0.101038
   1360    7.03897    0.86011   -3.10925        -5.481987       5.575067       0.093080
   1361    5.69590   -0.05501   -4.03513        -6.045423       6.146687       0.101264
   1362    5.90782    3.82148   -1.27902        -5.795490       5.889883       0.094393
   1363    6.69608    2.56348   -2.41682        -5.557312       5.650295       0.092983
   1364    1.74755    2.81194    6.06538        -6.107421       6.208217       0.100796
   1365    3.22824    3.72705    5.49981        -5.703978       5.798040       0.094062
   1366    1.74755    4.28119    5.48131        -5.908851       6.007124       0.098273
   1367    5.05847    4.85820    2.53843        -5.587547       5.678320       0.090773
   1368    4.13192    5.75482    1.62332        -5.707308       5.800644       0.093336
   1369    4.36603    4.51530    4.24180        -5.538402       5.629311       0.090909
   1370    3.57778    5.77331    3.10401        -5.607784       5.700609       0.092825
   1371    2.66266    5.20774    4.58469        -5.679254       5.773857       0.094602
   1372    3.57778    5.77331    0.14263        -6.035492       6.133512       0.098021
   1373    2.66266    6.33888    1.62332        -5.893957       5.991375       0.097418
   1374    0.83244    6.33888    1.62332        -6.373992       6.479250       0.105258
   1375   -0.63682    5.75482    1.62332        -7.094757       7.209655       0.114898
   1376    1.74755    6.13361    3.24163        -5.898335       5.996705       0.098370
   1377   -0.08268    5.77331    3.10401        -6.518167       6.625675       0.107509
   1378    0.83244    5.20774    4.58469        -6.094002       6.195522       0.101520
   1379   -0.08268    5.77331    0.14263        -7.232604       7.349719       0.117114
   1380    1.74755    6.13361    0.00501        -6.454627       6.560312       0.105684
   1381    0.26686    3.72705    5.49981        -6.415914       6.522024       0.106110
   1382   -0.87093    4.51530    4.24180        -6.900861       7.013559       0.112699
   1383   -1.56337    4.85820    2.53843        -7.631548       7.752466       0.120919
   1384   -1.21382    2.81194    4.93423        -7.422457       7.542513       0.120056
   1385    0.12924    1.89682    5.86011        -6.862164       6.974939       0.112775
   1386   -2.65764   -5.64639    5.73928        -6.229393       6.367848       0.138455
   1387   -1.17695   -5.09225    5.75778        -6.336076       6.472267       0.136191
   1388   -2.65764   -4.17714    6.32335        -6.505105       6.645194       0.140089
   1389   -1.03933   -3.26202    6.11808        -6.789815       6.927657       0.137842
   1390   -0.27327   -7.12001    1.88129        -6.514187       6.649729       0.135542
   1391    0.65328   -6.22339    2.79641        -6.667069       6.803621       0.136552
   1392   -0.82741   -7.13851    3.36198        -6.227540       6.362150       0.134610
   1393   -0.03916   -5.88050    4.49977        -6.384449       6.519876       0.135427
   1394   -1.74252   -6.57294    4.84266        -6.126291       6.261928       0.135637
   1395    0.65328   -6.22339    0.96618        -7.104351       7.243553       0.139202
   1396   -0.82741   -7.13851    0.40060        -6.797203       6.934274       0.137070
   1397   -3.57275   -7.70408    1.88129        -6.401703       6.540079       0.138376
   1398   -2.65764   -7.49881    0.26298        -6.717531       6.854705       0.137174
   1399   -1.74252   -7.70408    1.88129        -6.331967       6.467193       0.135226
   1400   -4.48787   -7.13851    3.36198        -6.376004       6.519237       0.143233
   1401   -4.13832   -5.09225    5.75778        -6.475501       6.621275       0.145774
   1402   -3.57275   -6.57294    4.84266        -6.200571       6.340924       0.140354
   1403   -2.65764   -7.49881    3.49960        -6.141480       6.277921       0.136441

 NET CHARGES:
 -------------------------------------
 ATOM                CHARGE    E.S.D.
 -------------------------------------
 C                  -0.2054    0.2082
 H                   0.0616    0.0147
 C                  -0.1028    0.2307
 C                   0.1046    0.1155
 C                  -0.2306    0.1125
 N                  -0.0751    0.1200
 C                  -0.0627    0.1154
 N                  -0.1429    0.1081
 H                   0.1167    0.0152
 H                   0.0963    0.0148
 H                   0.2547    0.0103
 H                   0.3591    0.0117
 H                   0.2514    0.0104
 H                   0.1133    0.0127
 H                   0.0902    0.0145
 H                   0.3717    0.0124
 -------------------------------------

 RMS DEVIATION IS            1.007 KCAL/MOLE
 RELATIVE RMS DEVIATION IS   1.186 %

 MULTIPOLE MOMENTS:
 ---------------------------------------------------------
 STATUS  ACTUAL VALUE       QUANTITY        FITTED VALUE 
 ---------------------------------------------------------
 FIXED       1.0000       TOTAL CHARGE         1.0000
             3.8814 D    DIPOLE MOMENT         3.8883 D
 FREE       -3.7254 D          DX             -3.7356 D
 FREE       -0.6404 D          DY             -0.6461 D
 FREE        0.8813 D          DZ              0.8640 D
 FREE        0.0000 BU         QXX            16.0945 BU
 FREE        0.0000 BU         QYY            -6.4711 BU
 FREE        0.0000 BU         QZZ            -9.6234 BU
 FREE        0.0000 BU         QXY            -3.5986 BU
 FREE        0.0000 BU         QXZ            -3.7929 BU
 FREE        0.0000 BU         QYZ           -10.2284 BU
 ---------------------------------------------------------
 ...... END OF PROPERTY EVALUATION ......
 CPU     0: STEP CPU TIME=     0.33 TOTAL CPU TIME=          9.9 (      0.2 MIN)
 TOTAL WALL CLOCK TIME=         14.1 SECONDS, CPU UTILIZATION IS    69.68%
               627176  WORDS OF DYNAMIC MEMORY USED
 EXECUTION OF GAMESS TERMINATED NORMALLY Sun May 17 14:28:10 2020
 DDI: 263640 bytes (0.3 MB / 0 MWords) used by master data server.
Note: The following floating-point exceptions are signalling: IEEE_UNDERFLOW_FLAGNote: The following floating-point exceptions are signalling: IEEE_UNDERFLOW_FLAG IEEE_DENORMAL
Note: The following floating-point exceptions are signalling: IEEE_UNDERFLOW_FLAGNote: The following floating-point exceptions are signalling:
 ----------------------------------------
 CPU timing information for all processes
 ========================================
 0: 9.643 + 0.229 = 9.873
 1: 9.257 + 0.80 = 9.338
 2: 8.800 + 0.76 = 8.876
 3: 9.148 + 0.68 = 9.217
 4: 8.535 + 0.77 = 8.612
 5: 8.279 + 0.40 = 8.319
 ----------------------------------------
 IEEE_DENORMAL
 IEEE_DENORMAL
 IEEE_UNDERFLOW_FLAG IEEE_DENORMALNote: The following floating-point exceptions are signalling: IEEE_UNDERFLOW_FLAGNote: The following floating-point exceptions are signalling: IEEE_UNDERFLOW_FLAG
 IEEE_DENORMAL
 IEEE_DENORMAL
 ddikick.x: exited gracefully.
unset echo
----- accounting info -----
Files used on the master node pietdev were:
-rwxr-xr-x 1 piet piet     1088 mei 17 14:27 /home/piet/scr/histidine_1__charge_geodisk.F05*
-rw-r--r-- 1 piet piet 50790400 mei 17 14:28 /home/piet/scr/histidine_1__charge_geodisk.F10
ls: No match.
ls: No match.
ls: No match.
zo 17 mei 2020 14:28:14 CEST
0.106u 0.030s 0:17.31 0.7%	0+0k 0+8io 0pf+0w
