----- GAMESS execution script 'rungms' -----
This job is running on host pietdev
under operating system Linux at vr 22 mei 2020 16:51:28 CEST
Available scratch disk space (Kbyte units) at beginning of the job is
Filesystem     1K-blocks     Used Available Use% Mounted on
/dev/sda2      244568380 31372968 200702356  14% /
GAMESS temporary binary files will be written to /home/piet/scr
GAMESS supplementary output files will be written to /home/piet/gamess/scr
Copying input file galacturonic_acid_fukui_base.inp to your run's scratch directory...
cp galacturonic_acid_fukui_base.inp /home/piet/scr/galacturonic_acid_fukui_base.F05
unset echo
 
Assuming a single but multicore node.
 
/home/piet/gamess/ddikick.x /home/piet/gamess/gamess.03.x galacturonic_acid_fukui_base -ddi 1 8 pietdev:cpus=8 -scr /home/piet/scr

 Distributed Data Interface kickoff program.
 Initiating 8 compute processes on 1 nodes to run the following command:
 /home/piet/gamess/gamess.03.x galacturonic_acid_fukui_base 

          ******************************************************
          *         GAMESS VERSION = 30 SEP 2019 (R2)          *
          *             FROM IOWA STATE UNIVERSITY             *
          * M.W.SCHMIDT, K.K.BALDRIDGE, J.A.BOATZ, S.T.ELBERT, *
          *   M.S.GORDON, J.H.JENSEN, S.KOSEKI, N.MATSUNAGA,   *
          *          K.A.NGUYEN, S.J.SU, T.L.WINDUS,           *
          *       TOGETHER WITH M.DUPUIS, J.A.MONTGOMERY       *
          *         J.COMPUT.CHEM.  14, 1347-1363(1993)        *
          **************** 64 BIT LINUX VERSION ****************

  SINCE 1993, STUDENTS AND POSTDOCS WORKING AT IOWA STATE UNIVERSITY
  AND ALSO IN THEIR VARIOUS JOBS AFTER LEAVING ISU HAVE MADE IMPORTANT
  CONTRIBUTIONS TO THE CODE:
     IVANA ADAMOVIC, CHRISTINE AIKENS, YURI ALEXEEV, POOJA ARORA,
     ANDREY ASADCHEV, ROB BELL, PRADIPTA BANDYOPADHYAY, JONATHAN BENTZ,
     COLLEEN BERTONI, BRETT BODE, KURT BRORSEN, CALEB CARLIN, GALINA CHABAN,
     WEI CHEN, CHEOL HO CHOI, PAUL DAY, ALBERT DEFUSCO, NUWAN DESILVA,
     TIM DUDLEY, DMITRI FEDOROV, ALEX FINDLATER, GRAHAM FLETCHER, 
     MARK FREITAG, KURT GLAESEMANN, EMILIE B GUIDEZ, ANASTASIA GUNINA, 
     DAN KEMP, SAROM SOK LEANG, GRANT MERRILL,
     NORIYUKI MINEZAWA, JONATHAN MULLIN,
     TAKESHI NAGATA, SEAN NEDD, HEATHER NETZLOFF, BOSILJKA NJEGIC, RYAN OLSON,
     MIKE PAK, BUU PHAM, DAVID POOLE,
     SPENCER PRUITT, LUKE ROSKOP, TOSAPORN SATTASATHUCHANA,
     JIM SHOEMAKER, LYUDMILA SLIPCHENKO,
     TONY SMITH, JIE SONG, TETSUYA TAKETSUGU, SIMON WEBB,
     JORGE LUIS GALVEZ VALLEJO, PENG XU, SOOHAENG YOO,
     FEDERICO ZAHARIEV

  ADDITIONAL CODE HAS BEEN PROVIDED BY COLLABORATORS IN OTHER GROUPS:
     IOWA STATE UNIVERSITY:
          JOE IVANIC, AARON WEST, LAIMUTIS BYTAUTAS, KLAUS RUEDENBERG
     UNIVERSITY OF TOKYO: KIMIHIKO HIRAO, TAKAHITO NAKAJIMA,
          TAKAO TSUNEDA, MUNEAKI KAMIYA, SUSUMU YANAGISAWA,
          KIYOSHI YAGI, MAHITO CHIBA, SEIKEN TOKURA, NAOAKI KAWAKAMI
     UNIVERSITY OF AARHUS: FRANK JENSEN
     UNIVERSITY OF IOWA: VISVALDAS KAIRYS, HUI LI
     NATIONAL INST. OF STANDARDS AND TECHNOLOGY: WALT STEVENS, DAVID GARMER
     UNIVERSITY OF PISA: BENEDETTA MENNUCCI, JACOPO TOMASI
     UNIVERSITY OF MEMPHIS: HENRY KURTZ, PRAKASHAN KORAMBATH
     UNIVERSITY OF ALBERTA: TOBY ZENG, MARIUSZ KLOBUKOWSKI
     UNIVERSITY OF NEW ENGLAND: MARK SPACKMAN
     MIE UNIVERSITY: HIROAKI UMEDA
     NAT. INST. OF ADVANCED INDUSTRIAL SCIENCE AND TECHNOLOGY: KAZUO KITAURA
     MICHIGAN STATE UNIVERSITY:
          KAROL KOWALSKI, MARTA WLOCH, JEFFREY GOUR, JESSE LUTZ,
          WEI LI, JUN SHEN, J. EMILIANO DEUSTUA, PIOTR PIECUCH
     UNIVERSITY OF MINNESOTA:
          ANDREW SAND, PRACHI SHARMA, YINAN SHU
     UNIVERSITY OF SILESIA: MONIKA MUSIAL, STANISLAW KUCHARSKI
     FACULTES UNIVERSITAIRES NOTRE-DAME DE LA PAIX:
          OLIVIER QUINET, BENOIT CHAMPAGNE
     UNIVERSITY OF CALIFORNIA - SANTA BARBARA: BERNARD KIRTMAN
     INSTITUTE FOR MOLECULAR SCIENCE:
          KAZUYA ISHIMURA, MICHIO KATOUDA, AND SHIGERU NAGASE
     UNIVERSITY OF NOTRE DAME: ANNA POMOGAEVA, DAN CHIPMAN
     KYUSHU UNIVERSITY:
          HARUYUKI NAKANO,
          FENG LONG GU, JACEK KORCHOWIEC, MARCIN MAKOWSKI, AND YURIKO AOKI,
          HIROTOSHI MORI AND EISAKU MIYOSHI
     PENNSYLVANIA STATE UNIVERSITY:
          TZVETELIN IORDANOV, CHET SWALINA, JONATHAN SKONE,
          SHARON HAMMES-SCHIFFER
     WASEDA UNIVERSITY:
          MASATO KOBAYASHI, TOMOKO AKAMA, TSUGUKI TOUMA,
          TAKESHI YOSHIKAWA, YASUHIRO IKABATA, JUNJI SEINO,
          YUYA NAKAJIMA, HIROMI NAKAI
     NANJING UNIVERSITY: SHUHUA LI
     UNIVERSITY OF NEBRASKA:
          PEIFENG SU, DEJUN SI, NANDUN THELLAMUREGE, YALI WANG, HUI LI
     UNIVERSITY OF ZURICH: ROBERTO PEVERATI, KIM BALDRIDGE
     N. COPERNICUS UNIVERSITY AND JACKSON STATE UNIVERSITY:
          MARIA BARYSZ
     UNIVERSITY OF COPENHAGEN: Jimmy Kromann, CASPER STEINMANN
     TOKYO INSTITUTE OF TECHNOLOGY: HIROYA NAKATA
     NAGOYA UNIVERSITY: YOSHIO NISHIMOTO, STEPHAN IRLE
     MOSCOW STATE UNIVERSITY: VLADIMIR MIRONOV
     A.N.NESMEYANOV INSTITUTE OF ORGANOELEMENT COMPOUNDS OF RUSSIAN ACADEMY OF SCIENCES:
          IGOR S. GERASIMOV
     JOHANNES KEPLER UNIVERSITY LINZ:
          CHRISTIAN FRIEDL


 PARALLEL VERSION RUNNING ON        8 PROCESSORS IN        1 NODES.

 EXECUTION OF GAMESS BEGUN Fri May 22 16:51:28 2020

            ECHO OF THE FIRST FEW INPUT CARDS -
 INPUT CARD> $BASIS GBASIS=N21 NGAUSS=3 $END                                                
 INPUT CARD> $CONTRL SCFTYP=UHF MAXIT=60 MULT=2 ICHARG=1 $END                               
 INPUT CARD> $SYSTEM MEMDDI=1000 MWORDS=30 $END                                             
 INPUT CARD> $SCF DIRSCF=.TRUE. $END                                                        
 INPUT CARD> $STATPT OPTTOL=0.0001 NSTEP=999 $END                                           
 INPUT CARD> $DATA                                                                          
 INPUT CARD>                                                                                
 INPUT CARD>C1                                                                              
 INPUT CARD>C 6.0000000 -1.0090558167 -1.1779449064 0.4938329242                            
 INPUT CARD>C 6.0000000 0.5005225082 -1.1004598835 0.2479007225                             
 INPUT CARD>C 6.0000000 -1.6614737606 0.0278418425 -0.1537169394                            
 INPUT CARD>C 6.0000000 1.0487191510 0.2815668951 0.6578644057                              
 INPUT CARD>C 6.0000000 -1.1332661971 1.3035047895 0.4678279559                             
 INPUT CARD>H 1.0000000 -2.4418902546 -2.2247372808 -0.3566429470                           
 INPUT CARD>H 1.0000000 0.0570864712 -1.9841742678 -1.4171839684                            
 INPUT CARD>H 1.0000000 -3.5171413176 0.6770645853 -0.3420350232                            
 INPUT CARD>H 1.0000000 -1.3845158091 3.2236418351 0.0486707048                             
 INPUT CARD>O 8.0000000 2.8632695894 1.2898020549 -0.6775496352                             
 INPUT CARD>O 8.0000000 -1.4666312338 -2.3798134269 -0.2047553139                           
 INPUT CARD>O 8.0000000 0.7200631083 -1.2700308148 -1.1756907853                            
 INPUT CARD>O 8.0000000 -3.0922850255 -0.1452972812 0.0247291204                            
 INPUT CARD>O 8.0000000 -1.8333026120 2.3644689091 -0.1739046934                            
 INPUT CARD>O 8.0000000 3.2196895632 -0.5796756285 0.6113042525                             
 INPUT CARD>C 6.0000000 2.4449368149 0.4408375999 0.0848904869                              
 INPUT CARD>H 1.0000000 4.1262527098 -0.5357002541 0.1994041575                             
 INPUT CARD>O 8.0000000 0.2793729831 1.4060870567 0.1449208113                              
 INPUT CARD>H 1.0000000 -1.2504648208 -1.2084131615 1.5638914452                            
 INPUT CARD>H 1.0000000 1.0336041190 -1.8538584833 0.8398391034                             
 INPUT CARD>H 1.0000000 -1.3556838378 0.0509402210 -1.2052812257                            
 INPUT CARD>H 1.0000000 1.1122682435 0.3045458264 1.7562109580                              
 INPUT CARD>H 1.0000000 -1.2739744761 1.3014037734 1.5629730833                             
 INPUT CARD> $END                                                                           
   30000000 WORDS OF MEMORY AVAILABLE

     BASIS OPTIONS
     -------------
     GBASIS=N21          IGAUSS=       3      POLAR=NONE    
     NDFUNC=       0     NFFUNC=       0     DIFFSP=       F
     NPFUNC=       0      DIFFS=       F     BASNAM=        


     RUN TITLE
     ---------
                                                                                 

 THE POINT GROUP OF THE MOLECULE IS C1      
 THE ORDER OF THE PRINCIPAL AXIS IS     0

 ATOM      ATOMIC                      COORDINATES (BOHR)
           CHARGE         X                   Y                   Z
 C           6.0    -1.9068389999       -2.2259931017        0.9332089105
 C           6.0     0.9458503912       -2.0795676403        0.4684644377
 C           6.0    -3.1397301433        0.0526134533       -0.2904828951
 C           6.0     1.9817918335        0.5320842790        1.2431834638
 C           6.0    -2.1415625837        2.4632668758        0.8840666460
 H           1.0    -4.6145034733       -4.2041438554       -0.6739574453
 H           1.0     0.1078777882       -3.7495456780       -2.6780893745
 H           1.0    -6.6464333504        1.2794665422       -0.6463524721
 H           1.0    -2.6163555049        6.0917997509        0.0919742957
 O           8.0     5.4107949529        2.4373724622       -1.2803831536
 O           8.0    -2.7715311569       -4.4971952787       -0.3869314378
 O           8.0     1.3607219686       -2.4000102359       -2.2217334305
 O           8.0    -5.8435713741       -0.2745720482        0.0467312615
 O           8.0    -3.4644395893        4.4681983447       -0.3286322185
 O           8.0     6.0843310400       -1.0954280996        1.1551975324
 C           6.0     4.6202606375        0.8330622689        0.1604197592
 H           1.0     7.7974869776       -1.0123266918        0.3768192185
 O           8.0     0.5279383864        2.6571192520        0.2738606233
 H           1.0    -2.3630358686       -2.2835697552        2.9553263060
 H           1.0     1.9532285647       -3.5032845535        1.5870657792
 H           1.0    -2.5618709794        0.0962630594       -2.2776512547
 H           1.0     2.1018822051        0.5755081626        3.3187574873
 H           1.0    -2.4074626752        2.4592965311        2.9535908536

          INTERNUCLEAR DISTANCES (ANGS.)
          ------------------------------

                1 C          2 C          3 C          4 C          5 C     

   1 C       0.0000000    1.5314416 *  1.5162096 *  2.5281453 *  2.4846926 *
   2 C       1.5314416 *  0.0000000    2.4715561 *  1.5422671 *  2.9149065 *
   3 C       1.5162096 *  2.4715561 *  0.0000000    2.8404553 *  1.5141457 *
   4 C       2.5281453 *  1.5422671 *  2.8404553 *  0.0000000    2.4169259 *
   5 C       2.4846926 *  2.9149065 *  1.5141457 *  2.4169259 *  0.0000000  
   6 H       1.9677647 *  3.2073767    2.3925596 *  4.4153301    3.8523683  
   7 H       2.3320915 *  1.9365159 *  2.9322358 *  3.2284275    3.9722844  
   8 H       3.2295864    4.4327463    1.9749572 *  4.6907674    2.5944491 *
   9 H       4.4399443    4.7213258    3.2141568    3.8662067    1.9813494 *
  10 O       4.7388623    3.4860270    4.7265470    2.4682913 *  4.1574482  
  11 O       1.4635193 *  2.3898403 *  2.4160655 *  3.7621863    3.7590336  
  12 O       2.4053360 *  1.4503672 *  2.8983826 *  2.4243339 *  3.5719839  
  13 O       2.3719746 *  3.7242995    1.4522538 *  4.2108181    2.4765134 *
  14 O       3.6978307    4.1988559    2.3430234 *  3.6518995    1.4239089 *
  15 O       4.2724715    2.7923373 *  4.9779605    2.3360263 *  4.7450161  
  16 C       3.8363727    2.4865473 *  4.1340182    1.5175935 *  3.7005908  
  17 H       5.1836821    3.6697718    5.8258091    3.2170366    5.5782852  
  18 O       2.9084377 *  2.5183903 *  2.3990895 *  1.4558675 *  1.4527015 *
  19 H       1.0973750 *  2.1930440 *  2.1557907 *  2.8856841 *  2.7431410 *
  20 H       2.1792290 *  1.0964381 *  3.4338600    2.1432183 *  3.8474228  
  21 H       2.1253937 *  2.6235400 *  1.0953668 *  3.0505170    2.1018282 *
  22 H       2.8794779 *  2.1501799 *  3.3790582    1.1004234 *  2.7749369 *
  23 H       2.7130080 *  3.2630053    2.1723582 *  2.6933612 *  1.1041495 *

                6 H          7 H          8 H          9 H         10 O     

   1 C       1.9677647 *  2.3320915 *  3.2295864    4.4399443    4.7388623  
   2 C       3.2073767    1.9365159 *  4.4327463    4.7213258    3.4860270  
   3 C       2.3925596 *  2.9322358 *  1.9749572 *  3.2141568    4.7265470  
   4 C       4.4153301    3.2284275    4.6907674    3.8662067    2.4682913 *
   5 C       3.8523683    3.9722844    2.5944491 *  1.9813494 *  4.1574482  
   6 H       0.0000000    2.7253445 *  3.0946457    5.5648140    6.3717885  
   7 H       2.7253445 *  0.0000000    4.5840203    5.5989549    4.3750021  
   8 H       3.0946457    4.5840203    0.0000000    3.3445176    6.4185404  
   9 H       5.5648140    5.5989549    3.3445176    0.0000000    4.7234323  
  10 O       6.3717885    4.3750021    6.4185404    4.7234323    0.0000000  
  11 O       0.9991239 *  1.9870152 *  3.6834685    5.6097842    5.6954063  
  12 O       3.4029771    1.0039212 *  4.7370944    5.1109106    3.3755330  
  13 O       2.2119061 *  3.9216225    0.9956394 *  3.7771417    6.1661444  
  14 O       4.6329888    4.9020416    2.3897519 *  0.9945489 *  4.8442087  
  15 O       5.9746662    4.0111643    6.9190420    5.9983737    2.2985052 *
  16 C       5.5840236    3.7200456    5.9820100    4.7339221    1.2153427 *
  17 H       6.8045967    4.6118920    7.7579267    6.6726264    2.3867620 *
  18 O       4.5650548    3.7394457    3.8964241    2.4660283 *  2.7141300 *
  19 H       2.4780762 *  3.3463871    3.5107555    4.6858270    5.3092324  
  20 H       3.6943445    2.4626656 *  5.3396331    5.6792835    3.9411605  
  21 H       2.6605900 *  2.4864661 *  2.4102125 *  3.4116363    4.4286394  
  22 H       4.8470060    4.0524170    5.0963555    4.2036586    3.1559351  
  23 H       4.1812228    4.6312074    3.0084303    2.4495572 *  4.7049830  

               11 O         12 O         13 O         14 O         15 O     

   1 C       1.4635193 *  2.4053360 *  2.3719746 *  3.6978307    4.2724715  
   2 C       2.3898403 *  1.4503672 *  3.7242995    4.1988559    2.7923373 *
   3 C       2.4160655 *  2.8983826 *  1.4522538 *  2.3430234 *  4.9779605  
   4 C       3.7621863    2.4243339 *  4.2108181    3.6518995    2.3360263 *
   5 C       3.7590336    3.5719839    2.4765134 *  1.4239089 *  4.7450161  
   6 H       0.9991239 *  3.4029771    2.2119061 *  4.6329888    5.9746662  
   7 H       1.9870152 *  1.0039212 *  3.9216225    4.9020416    4.0111643  
   8 H       3.6834685    4.7370944    0.9956394 *  2.3897519 *  6.9190420  
   9 H       5.6097842    5.1109106    3.7771417    0.9945489 *  5.9983737  
  10 O       5.6954063    3.3755330    6.1661444    4.8442087    2.2985052 *
  11 O       0.0000000    2.6374164 *  2.7728101 *  4.7585307    5.0860645  
  12 O       2.6374164 *  0.0000000    4.1521117    4.5533329    3.1492974  
  13 O       2.7728101 *  4.1521117    0.0000000    2.8148567 *  6.3540364  
  14 O       4.7585307    4.5533329    2.8148567 *  0.0000000    5.9006161  
  15 O       5.0860645    3.1492974    6.3540364    5.9006161    0.0000000  
  16 C       4.8311832    2.7370285 *  5.5684827    4.6979426    1.3852078 *
  17 H       5.9029187    3.7459652    7.2311972    6.6382709    0.9967208 *
  18 O       4.1837599    3.0165924    3.7133970    2.3416967 *  3.5785791  
  19 H       2.1323738 *  3.3752167    2.6251738 *  4.0156097    4.6135684  
  20 H       2.7602505 *  2.1216794 *  4.5394435    5.2001074    2.5406180 *
  21 H       2.6309551 *  2.4606027 *  2.1371051 *  2.5776486 *  4.9630334  
  22 H       4.2073621    3.3509945    4.5693168    4.0798305    2.5561462 *
  23 H       4.0881952    4.2530861    2.7866452 *  2.1118001 *  4.9635824  

               16 C         17 H         18 O         19 H         20 H     

   1 C       3.8363727    5.1836821    2.9084377 *  1.0973750 *  2.1792290 *
   2 C       2.4865473 *  3.6697718    2.5183903 *  2.1930440 *  1.0964381 *
   3 C       4.1340182    5.8258091    2.3990895 *  2.1557907 *  3.4338600  
   4 C       1.5175935 *  3.2170366    1.4558675 *  2.8856841 *  2.1432183 *
   5 C       3.7005908    5.5782852    1.4527015 *  2.7431410 *  3.8474228  
   6 H       5.5840236    6.8045967    4.5650548    2.4780762 *  3.6943445  
   7 H       3.7200456    4.6118920    3.7394457    3.3463871    2.4626656 *
   8 H       5.9820100    7.7579267    3.8964241    3.5107555    5.3396331  
   9 H       4.7339221    6.6726264    2.4660283 *  4.6858270    5.6792835  
  10 O       1.2153427 *  2.3867620 *  2.7141300 *  5.3092324    3.9411605  
  11 O       4.8311832    5.9029187    4.1837599    2.1323738 *  2.7602505 *
  12 O       2.7370285 *  3.7459652    3.0165924    3.3752167    2.1216794 *
  13 O       5.5684827    7.2311972    3.7133970    2.6251738 *  4.5394435  
  14 O       4.6979426    6.6382709    2.3416967 *  4.0156097    5.2001074  
  15 O       1.3852078 *  0.9967208 *  3.5785791    4.6135684    2.5406180 *
  16 C       0.0000000    1.9477070 *  2.3717034 *  4.3085340    2.7977558 *
  17 H       1.9477070 *  0.0000000    4.3095232    5.5877956    3.4223053  
  18 O       2.3717034 *  4.3095232    0.0000000    3.3450699    3.4174583  
  19 H       4.3085340    5.5877956    3.3450699    0.0000000    2.4814960 *
  20 H       2.7977558 *  3.4223053    3.4174583    2.4814960 *  0.0000000  
  21 H       4.0325278    5.6893687    2.5165213 *  3.0439053    3.6768835  
  22 H       2.1419368 *  3.4948195    2.1221130 *  2.8122125 *  2.3461958 *
  23 H       4.0933609    5.8648721    2.1058773 *  2.5099272 *  3.9753643  

               21 H         22 H         23 H     

   1 C       2.1253937 *  2.8794779 *  2.7130080 *
   2 C       2.6235400 *  2.1501799 *  3.2630053  
   3 C       1.0953668 *  3.3790582    2.1723582 *
   4 C       3.0505170    1.1004234 *  2.6933612 *
   5 C       2.1018282 *  2.7749369 *  1.1041495 *
   6 H       2.6605900 *  4.8470060    4.1812228  
   7 H       2.4864661 *  4.0524170    4.6312074  
   8 H       2.4102125 *  5.0963555    3.0084303  
   9 H       3.4116363    4.2036586    2.4495572 *
  10 O       4.4286394    3.1559351    4.7049830  
  11 O       2.6309551 *  4.2073621    4.0881952  
  12 O       2.4606027 *  3.3509945    4.2530861  
  13 O       2.1371051 *  4.5693168    2.7866452 *
  14 O       2.5776486 *  4.0798305    2.1118001 *
  15 O       4.9630334    2.5561462 *  4.9635824  
  16 C       4.0325278    2.1419368 *  4.0933609  
  17 H       5.6893687    3.4948195    5.8648721  
  18 O       2.5165213 *  2.1221130 *  2.1058773 *
  19 H       3.0439053    2.8122125 *  2.5099272 *
  20 H       3.6768835    2.3461958 *  3.9753643  
  21 H       0.0000000    3.8633585    3.0386786  
  22 H       3.8633585    0.0000000    2.5933031 *
  23 H       3.0386786    2.5933031 *  0.0000000  

  * ... LESS THAN  3.000


     ATOMIC BASIS SET
     ----------------
 THE CONTRACTED PRIMITIVE FUNCTIONS HAVE BEEN UNNORMALIZED
 THE CONTRACTED BASIS FUNCTIONS ARE NOW NORMALIZED TO UNITY

  SHELL TYPE  PRIMITIVE        EXPONENT          CONTRACTION COEFFICIENT(S)

 C         

      1   S       1           172.2560000    0.061766907377
      1   S       2            25.9109000    0.358794042852
      1   S       3             5.5333500    0.700713083689

      2   L       4             3.6649800   -0.395895162119    0.236459946619
      2   L       5             0.7705450    1.215834355681    0.860618805716

      3   L       6             0.1958570    1.000000000000    1.000000000000

 C         

      4   S       7           172.2560000    0.061766907377
      4   S       8            25.9109000    0.358794042852
      4   S       9             5.5333500    0.700713083689

      5   L      10             3.6649800   -0.395895162119    0.236459946619
      5   L      11             0.7705450    1.215834355681    0.860618805716

      6   L      12             0.1958570    1.000000000000    1.000000000000

 C         

      7   S      13           172.2560000    0.061766907377
      7   S      14            25.9109000    0.358794042852
      7   S      15             5.5333500    0.700713083689

      8   L      16             3.6649800   -0.395895162119    0.236459946619
      8   L      17             0.7705450    1.215834355681    0.860618805716

      9   L      18             0.1958570    1.000000000000    1.000000000000

 C         

     10   S      19           172.2560000    0.061766907377
     10   S      20            25.9109000    0.358794042852
     10   S      21             5.5333500    0.700713083689

     11   L      22             3.6649800   -0.395895162119    0.236459946619
     11   L      23             0.7705450    1.215834355681    0.860618805716

     12   L      24             0.1958570    1.000000000000    1.000000000000

 C         

     13   S      25           172.2560000    0.061766907377
     13   S      26            25.9109000    0.358794042852
     13   S      27             5.5333500    0.700713083689

     14   L      28             3.6649800   -0.395895162119    0.236459946619
     14   L      29             0.7705450    1.215834355681    0.860618805716

     15   L      30             0.1958570    1.000000000000    1.000000000000

 H         

     16   S      31             5.4471780    0.156284978695
     16   S      32             0.8245472    0.904690876670

     17   S      33             0.1831916    1.000000000000

 H         

     18   S      34             5.4471780    0.156284978695
     18   S      35             0.8245472    0.904690876670

     19   S      36             0.1831916    1.000000000000

 H         

     20   S      37             5.4471780    0.156284978695
     20   S      38             0.8245472    0.904690876670

     21   S      39             0.1831916    1.000000000000

 H         

     22   S      40             5.4471780    0.156284978695
     22   S      41             0.8245472    0.904690876670

     23   S      42             0.1831916    1.000000000000

 O         

     24   S      43           322.0370000    0.059239393389
     24   S      44            48.4308000    0.351499960776
     24   S      45            10.4206000    0.707657921031

     25   L      46             7.4029400   -0.404453583190    0.244586106967
     25   L      47             1.5762000    1.221561761397    0.853955373466

     26   L      48             0.3736840    1.000000000000    1.000000000000

 O         

     27   S      49           322.0370000    0.059239393389
     27   S      50            48.4308000    0.351499960776
     27   S      51            10.4206000    0.707657921031

     28   L      52             7.4029400   -0.404453583190    0.244586106967
     28   L      53             1.5762000    1.221561761397    0.853955373466

     29   L      54             0.3736840    1.000000000000    1.000000000000

 O         

     30   S      55           322.0370000    0.059239393389
     30   S      56            48.4308000    0.351499960776
     30   S      57            10.4206000    0.707657921031

     31   L      58             7.4029400   -0.404453583190    0.244586106967
     31   L      59             1.5762000    1.221561761397    0.853955373466

     32   L      60             0.3736840    1.000000000000    1.000000000000

 O         

     33   S      61           322.0370000    0.059239393389
     33   S      62            48.4308000    0.351499960776
     33   S      63            10.4206000    0.707657921031

     34   L      64             7.4029400   -0.404453583190    0.244586106967
     34   L      65             1.5762000    1.221561761397    0.853955373466

     35   L      66             0.3736840    1.000000000000    1.000000000000

 O         

     36   S      67           322.0370000    0.059239393389
     36   S      68            48.4308000    0.351499960776
     36   S      69            10.4206000    0.707657921031

     37   L      70             7.4029400   -0.404453583190    0.244586106967
     37   L      71             1.5762000    1.221561761397    0.853955373466

     38   L      72             0.3736840    1.000000000000    1.000000000000

 O         

     39   S      73           322.0370000    0.059239393389
     39   S      74            48.4308000    0.351499960776
     39   S      75            10.4206000    0.707657921031

     40   L      76             7.4029400   -0.404453583190    0.244586106967
     40   L      77             1.5762000    1.221561761397    0.853955373466

     41   L      78             0.3736840    1.000000000000    1.000000000000

 C         

     42   S      79           172.2560000    0.061766907377
     42   S      80            25.9109000    0.358794042852
     42   S      81             5.5333500    0.700713083689

     43   L      82             3.6649800   -0.395895162119    0.236459946619
     43   L      83             0.7705450    1.215834355681    0.860618805716

     44   L      84             0.1958570    1.000000000000    1.000000000000

 H         

     45   S      85             5.4471780    0.156284978695
     45   S      86             0.8245472    0.904690876670

     46   S      87             0.1831916    1.000000000000

 O         

     47   S      88           322.0370000    0.059239393389
     47   S      89            48.4308000    0.351499960776
     47   S      90            10.4206000    0.707657921031

     48   L      91             7.4029400   -0.404453583190    0.244586106967
     48   L      92             1.5762000    1.221561761397    0.853955373466

     49   L      93             0.3736840    1.000000000000    1.000000000000

 H         

     50   S      94             5.4471780    0.156284978695
     50   S      95             0.8245472    0.904690876670

     51   S      96             0.1831916    1.000000000000

 H         

     52   S      97             5.4471780    0.156284978695
     52   S      98             0.8245472    0.904690876670

     53   S      99             0.1831916    1.000000000000

 H         

     54   S     100             5.4471780    0.156284978695
     54   S     101             0.8245472    0.904690876670

     55   S     102             0.1831916    1.000000000000

 H         

     56   S     103             5.4471780    0.156284978695
     56   S     104             0.8245472    0.904690876670

     57   S     105             0.1831916    1.000000000000

 H         

     58   S     106             5.4471780    0.156284978695
     58   S     107             0.8245472    0.904690876670

     59   S     108             0.1831916    1.000000000000

 TOTAL NUMBER OF BASIS SET SHELLS             =   59
 NUMBER OF CARTESIAN GAUSSIAN BASIS FUNCTIONS =  137
 NUMBER OF ELECTRONS                          =  101
 CHARGE OF MOLECULE                           =    1
 SPIN MULTIPLICITY                            =    2
 NUMBER OF OCCUPIED ORBITALS (ALPHA)          =   51
 NUMBER OF OCCUPIED ORBITALS (BETA )          =   50
 TOTAL NUMBER OF ATOMS                        =   23
 THE NUCLEAR REPULSION ENERGY IS      920.8180054712

     $CONTRL OPTIONS
     ---------------
 SCFTYP=UHF          RUNTYP=ENERGY       EXETYP=RUN     
 MPLEVL=       0     CITYP =NONE         CCTYP =NONE         VBTYP =NONE    
 DFTTYP=NONE         TDDFT =NONE    
 MULT  =       2     ICHARG=       1     NZVAR =       0     COORD =UNIQUE  
 PP    =NONE         RELWFN=NONE         LOCAL =NONE         NUMGRD=       F
 ISPHER=      -1     NOSYM =       0     MAXIT =      60     UNITS =ANGS    
 PLTORB=       F     MOLPLT=       F     AIMPAC=       F     FRIEND=        
 NPRINT=       7     IREST =       0     GEOM  =INPUT   
 NORMF =       0     NORMP =       0     ITOL  =      20     ICUT  =       9
 INTTYP=BEST         GRDTYP=BEST         QMTTOL= 1.0E-06

     $SYSTEM OPTIONS
     ---------------
  REPLICATED MEMORY=    30000000 WORDS (ON EVERY NODE).
 DISTRIBUTED MEMDDI=        1000 MILLION WORDS IN AGGREGATE,
 MEMDDI DISTRIBUTED OVER   8 PROCESSORS IS   125000000 WORDS/PROCESSOR.
 TOTAL MEMORY REQUESTED ON EACH PROCESSOR=   155000000 WORDS.
 TIMLIM=      525600.00 MINUTES, OR     365.0 DAYS.
 PARALL= T  BALTYP=  DLB     KDIAG=    0  COREFL= F
 MXSEQ2=     300 MXSEQ3=     150  mem10=         0

          ----------------
          PROPERTIES INPUT
          ----------------

     MOMENTS            FIELD           POTENTIAL          DENSITY
 IEMOM =       1   IEFLD =       0   IEPOT =       0   IEDEN =       0
 WHERE =COMASS     WHERE =NUCLEI     WHERE =NUCLEI     WHERE =NUCLEI  
 OUTPUT=BOTH       OUTPUT=BOTH       OUTPUT=BOTH       OUTPUT=BOTH    
 IEMINT=       0   IEFINT=       0                     IEDINT=       0
                                                       MORB  =       0
          EXTRAPOLATION IN EFFECT
          SOSCF IN EFFECT
          DIIS or SOSCF will be reset if energy rises
 ORBITAL PRINTING OPTION: NPREO=     1   137     2     1

     -------------------------------
     INTEGRAL TRANSFORMATION OPTIONS
     -------------------------------
     NWORD  =            0
     CUTOFF = 1.0E-09     MPTRAN =       0
     DIRTRF =       T     AOINTS =DUP     

          ----------------------
          INTEGRAL INPUT OPTIONS
          ----------------------
 NOPK  =       1 NORDER=       0 SCHWRZ=       T

     ------------------------------------------
     THE POINT GROUP IS C1 , NAXIS= 0, ORDER= 1
     ------------------------------------------

     DIMENSIONS OF THE SYMMETRY SUBSPACES ARE
 A   =  137

 ..... DONE SETTING UP THE RUN .....
 CPU     0: STEP CPU TIME=     0.02 TOTAL CPU TIME=          0.0 (      0.0 MIN)
 TOTAL WALL CLOCK TIME=          0.1 SECONDS, CPU UTILIZATION IS    33.33%

          ********************
          1 ELECTRON INTEGRALS
          ********************
 ...... END OF ONE-ELECTRON INTEGRALS ......
 CPU     0: STEP CPU TIME=     0.02 TOTAL CPU TIME=          0.0 (      0.0 MIN)
 TOTAL WALL CLOCK TIME=          0.1 SECONDS, CPU UTILIZATION IS    50.00%

          -------------
          GUESS OPTIONS
          -------------
          GUESS =HUCKEL            NORB  =       0          NORDER=       0
          MIX   =       F          PRTMO =       F          PUNMO =       F
          TOLZ  = 1.0E-08          TOLE  = 1.0E-05
          SYMDEN=       F          PURIFY=       F

 INITIAL GUESS ORBITALS GENERATED BY HUCKEL   ROUTINE.
 HUCKEL GUESS REQUIRES    175910 WORDS.

 SYMMETRIES FOR INITIAL GUESS ORBITALS FOLLOW.  ALPHA SET(S).
    51 ORBITALS ARE OCCUPIED (   13 CORE ORBITALS).
    14=A       15=A       16=A       17=A       18=A       19=A       20=A   
    21=A       22=A       23=A       24=A       25=A       26=A       27=A   
    28=A       29=A       30=A       31=A       32=A       33=A       34=A   
    35=A       36=A       37=A       38=A       39=A       40=A       41=A   
    42=A       43=A       44=A       45=A       46=A       47=A       48=A   
    49=A       50=A       51=A       52=A       53=A       54=A       55=A   
    56=A       57=A       58=A       59=A       60=A       61=A   

 SYMMETRIES FOR INITIAL GUESS ORBITALS FOLLOW.   BETA SET(S).
    50 ORBITALS ARE OCCUPIED (   13 CORE ORBITALS).
    14=A       15=A       16=A       17=A       18=A       19=A       20=A   
    21=A       22=A       23=A       24=A       25=A       26=A       27=A   
    28=A       29=A       30=A       31=A       32=A       33=A       34=A   
    35=A       36=A       37=A       38=A       39=A       40=A       41=A   
    42=A       43=A       44=A       45=A       46=A       47=A       48=A   
    49=A       50=A       51=A       52=A       53=A       54=A       55=A   
    56=A       57=A       58=A       59=A       60=A   
 ...... END OF INITIAL ORBITAL SELECTION ......
 CPU     0: STEP CPU TIME=     0.05 TOTAL CPU TIME=          0.1 (      0.0 MIN)
 TOTAL WALL CLOCK TIME=          0.2 SECONDS, CPU UTILIZATION IS    56.25%

                    ----------------------
                    AO INTEGRAL TECHNOLOGY
                    ----------------------
     S,P,L SHELL ROTATED AXIS INTEGRALS, REPROGRAMMED BY
        KAZUYA ISHIMURA (IMS) AND JOSE SIERRA (SYNSTAR).
     S,P,D,L SHELL ROTATED AXIS INTEGRALS PROGRAMMED BY
        KAZUYA ISHIMURA (INSTITUTE FOR MOLECULAR SCIENCE).
     S,P,D,F,G SHELL TO TOTAL QUARTET ANGULAR MOMENTUM SUM 5,
        ERIC PROGRAM BY GRAHAM FLETCHER (ELORET AND NASA ADVANCED
        SUPERCOMPUTING DIVISION, AMES RESEARCH CENTER).
     S,P,D,F,G,L SHELL GENERAL RYS QUADRATURE PROGRAMMED BY
        MICHEL DUPUIS (PACIFIC NORTHWEST NATIONAL LABORATORY).

          --------------------
          2 ELECTRON INTEGRALS
          --------------------

 DIRECT SCF METHOD SKIPS INTEGRAL STORAGE ON DISK.
 DIRECT TRANSFORMATION SKIPS AO INTEGRAL STORAGE ON DISK.
  ...... END OF TWO-ELECTRON INTEGRALS .....
 CPU     0: STEP CPU TIME=     0.01 TOTAL CPU TIME=          0.1 (      0.0 MIN)
 TOTAL WALL CLOCK TIME=          0.2 SECONDS, CPU UTILIZATION IS    58.82%

          ---------------------------
                  UHF SCF CALCULATION
          ---------------------------

     NUCLEAR ENERGY =       920.8180054712
     MAXIT = 60     NPUNCH=  2     MULT=  2
     EXTRAP=T  DAMP=F  SHIFT=F  RSTRCT=F  DIIS=F  SOSCF=T
     DENSITY MATRIX CONV=  2.00E-05
     SOSCF WILL OPTIMIZE    4386 ALPHA AND    4350 BETA ROTATION ANGLES.
     SOGTOL= 2.500E-01
     MEMORY REQUIRED FOR UHF/ROHF ITERS=    298930 WORDS.

 DIRECT SCF CALCULATION, SCHWRZ=T   FDIFF=T
 SCHWARZ INEQUALITY OVERHEAD:      8569 INTEGRALS, T=        0.00

                                                                                NONZERO     BLOCKS
 ITER EX      TOTAL ENERGY        E CHANGE  DENSITY CHANGE    ORB. GRAD       INTEGRALS    SKIPPED
   1  0     -750.1913296139  -750.1913296139   0.939434222   0.000000000       23183220     868510
          ---------------START SECOND ORDER SCF---------------
   2  1     -752.1623818799    -1.9710522661   0.235868797   0.150514854       23152607     876950
   3  2     -752.2568418569    -0.0944599769   0.224543358   0.128444229       23057244     895415
   4  3     -752.4246883147    -0.1678464579   0.068679532   0.053406194       23013739     904691
   5  4     -752.4686196238    -0.0439313090   0.228469340   0.030264690       22751149     929288
   6  5     -752.3450653059     0.1235543178   0.188757137   0.115770151       23037728     900035
   7  6     -752.4849355360    -0.1398702301   0.051956142   0.036800643       23016225     903683
   8  7     -752.4987852836    -0.0138497476   0.033085135   0.020261937       22544292     945414
   9  8     -752.5033338534    -0.0045485698   0.015399331   0.012072277       22251560     964660
  10  9     -752.5054555372    -0.0021216838   0.009280063   0.003885705       21974230     980958
  11 10     -752.5056338549    -0.0001783177   0.004338129   0.003061298       21246079    1014732
  12 11     -752.5056860931    -0.0000522383   0.001358901   0.000747790       20383001    1052057
  13 12     -752.5056956304    -0.0000095373   0.000851544   0.000211755       19785097    1070316
  14 13     -752.5056983834    -0.0000027530   0.000509861   0.000082207       18760288    1104894
  15 14     -752.5056991200    -0.0000007365   0.000217404   0.000052044       18193347    1124462
  16 15     -752.5056992946    -0.0000001746   0.000104473   0.000042062       17368278    1150516
  17 16     -752.5056993489    -0.0000000543   0.000056273   0.000013739       16587082    1174876
  18 17     -752.5056993623    -0.0000000134   0.000028767   0.000008878       15598809    1203108
  19 18     -752.5056993653    -0.0000000030   0.000013534   0.000005494       14791408    1225979
  20 19     -752.5056993660    -0.0000000007   0.000006863   0.000002867       13946928    1251969

          -----------------
          DENSITY CONVERGED
          -----------------
     TIME TO FORM FOCK OPERATORS=       4.8 SECONDS (       0.2 SEC/ITER)
     FOCK TIME ON FIRST ITERATION=       0.3, LAST ITERATION=       0.2
     TIME TO SOLVE SCF EQUATIONS=       0.3 SECONDS (       0.0 SEC/ITER)

 FINAL UHF ENERGY IS     -752.5056993660 AFTER  20 ITERATIONS

          --------------------
          SPIN SZ   =    0.500
          S-SQUARED =    0.770
          --------------------

  ----- ALPHA SET ----- 

          ------------
          EIGENVECTORS
          ------------

                      1          2          3          4          5
                  -20.9137   -20.8081   -20.6625   -20.6144   -20.6097
                     A          A          A          A          A   
    1  C  1  S   -0.000041  -0.000041  -0.000008  -0.000142   0.000228
    2  C  1  S   -0.000280  -0.000187   0.000308  -0.000972   0.000800
    3  C  1  X   -0.000145   0.000157   0.000298  -0.000138  -0.001315
    4  C  1  Y    0.000044  -0.000088   0.000367  -0.000419  -0.000012
    5  C  1  Z   -0.000243   0.000222   0.000651  -0.000209   0.000014
    6  C  1  S    0.001525   0.001123   0.001547   0.002754  -0.007268
    7  C  1  X    0.001977  -0.000796   0.000875   0.002479   0.000628
    8  C  1  Y   -0.000428   0.000978  -0.001586   0.003131  -0.000731
    9  C  1  Z    0.002646  -0.002619  -0.005978   0.001690   0.005935
   10  C  2  S   -0.000082   0.000162   0.000222   0.000074  -0.001034
   11  C  2  S   -0.000570   0.001035   0.000924   0.000389  -0.004691
   12  C  2  X   -0.000352  -0.000006  -0.000357   0.000290   0.000766
   13  C  2  Y   -0.000291   0.000240  -0.000526  -0.000168  -0.001030
   14  C  2  Z    0.000392  -0.000504  -0.000467   0.000280  -0.000988
   15  C  2  S   -0.001294  -0.002428  -0.005099  -0.003807   0.022138
   16  C  2  X    0.001020   0.000145   0.003095   0.000573  -0.001893
   17  C  2  Y    0.000819  -0.001467  -0.002123  -0.000848   0.003989
   18  C  2  Z   -0.005859   0.004670   0.005503  -0.003242  -0.016581
   19  C  3  S   -0.000033   0.000050   0.000165   0.000313   0.000101
   20  C  3  S   -0.000208   0.000219   0.000234   0.001337   0.000980
   21  C  3  X   -0.000004  -0.000092  -0.000503   0.000146   0.000526
   22  C  3  Y   -0.000006   0.000016  -0.000531  -0.000505  -0.000011
   23  C  3  Z    0.000018  -0.000040  -0.000569  -0.000180   0.000100
   24  C  3  S    0.001268  -0.002103  -0.006383  -0.009954  -0.000391
   25  C  3  X   -0.000023  -0.000072  -0.002684  -0.002845  -0.002841
   26  C  3  Y   -0.000924   0.000959  -0.001617  -0.006468  -0.003945
   27  C  3  Z   -0.000273  -0.000076   0.002565   0.000183   0.000407
   28  C  4  S   -0.000001  -0.000071  -0.000844  -0.000036   0.000362
   29  C  4  S    0.000013  -0.000941  -0.003466  -0.000458   0.001696
   30  C  4  X   -0.000084  -0.000447  -0.001016   0.000653   0.000278
   31  C  4  Y    0.000612  -0.000223   0.001002  -0.000288   0.000986
   32  C  4  Z   -0.000664   0.000654   0.000404  -0.000098  -0.000242
   33  C  4  S    0.007084   0.001157   0.018896  -0.000164  -0.009565
   34  C  4  X    0.007163  -0.002521  -0.003990  -0.003712   0.001446
   35  C  4  Y   -0.007944   0.004262   0.009366  -0.001930  -0.002300
   36  C  4  Z    0.005942  -0.005570  -0.009757   0.001865   0.008665
   37  C  5  S   -0.000034  -0.000025  -0.000879  -0.001024  -0.000119
   38  C  5  S   -0.000482   0.000086  -0.003416  -0.004003  -0.000558
   39  C  5  X   -0.000503   0.000366   0.001658  -0.000295   0.000079
   40  C  5  Y    0.000028   0.000034   0.000350   0.001252  -0.000298
   41  C  5  Z    0.000077  -0.000088   0.000031  -0.000040  -0.000008
   42  C  5  S    0.000563   0.000726   0.019098   0.026247   0.004393
   43  C  5  X    0.000917  -0.000028   0.008565  -0.005973   0.000204
   44  C  5  Y   -0.000676   0.000212  -0.000032   0.007729  -0.000386
   45  C  5  Z   -0.000007  -0.000087  -0.005885  -0.012358  -0.001725
   46  H  6  S   -0.000132   0.000102   0.000163   0.000058  -0.000394
   47  H  6  S    0.000166  -0.000060  -0.000454  -0.000185  -0.000445
   48  H  7  S    0.000075  -0.000361  -0.000360   0.000077   0.003158
   49  H  7  S   -0.000596   0.000202   0.000075  -0.000046   0.005460
   50  H  8  S    0.000030  -0.000042  -0.000396  -0.000368   0.000110
   51  H  8  S    0.000107  -0.000009   0.000395   0.000777  -0.000210
   52  H  9  S   -0.000011   0.000025   0.000570   0.003241   0.000073
   53  H  9  S    0.000170  -0.000140  -0.000774   0.004097  -0.000113
   54  O 10  S    0.983554   0.001058   0.000383   0.000070  -0.000369
   55  O 10  S    0.101864  -0.000276  -0.000548  -0.000097   0.000607
   56  O 10  X   -0.001608   0.000721   0.000171  -0.000013  -0.000162
   57  O 10  Y   -0.003468  -0.000319  -0.000042   0.000028  -0.000012
   58  O 10  Z    0.003114  -0.000002   0.000025   0.000006  -0.000033
   59  O 10  S   -0.059935   0.002614   0.003068   0.000379  -0.003072
   60  O 10  X    0.005531  -0.004213  -0.001497   0.000088   0.001273
   61  O 10  Y    0.011780   0.002092  -0.000316  -0.000137   0.000424
   62  O 10  Z   -0.010510  -0.000225   0.000471  -0.000028  -0.000280
   63  O 11  S   -0.000064   0.000094   0.001819  -0.003124   0.004848
   64  O 11  S   -0.000094   0.000106   0.000704  -0.000528   0.000526
   65  O 11  X    0.000060  -0.000044   0.000030  -0.000006   0.000483
   66  O 11  Y   -0.000042   0.000045   0.000147   0.000064  -0.000092
   67  O 11  Z    0.000054  -0.000054  -0.000030  -0.000104  -0.000123
   68  O 11  S    0.000469  -0.000517  -0.002362   0.001468   0.001114
   69  O 11  X   -0.000235   0.000131  -0.000453   0.000085  -0.001628
   70  O 11  Y    0.000361  -0.000416  -0.001240   0.000098   0.001134
   71  O 11  Z   -0.000221   0.000205  -0.000032   0.000556   0.000686
   72  O 12  S    0.000529  -0.000437  -0.001565   0.009272   0.983518
   73  O 12  S    0.000698  -0.000504  -0.000659   0.001141   0.098557
   74  O 12  X    0.000073   0.000250   0.000087   0.000026  -0.002160
   75  O 12  Y    0.000124   0.000077   0.000182  -0.000069  -0.001319
   76  O 12  Z    0.000073   0.000018   0.000031   0.000074   0.002922
   77  O 12  S   -0.002830   0.002608   0.003029  -0.001471  -0.048018
   78  O 12  X   -0.000060  -0.000919  -0.000698  -0.000018   0.005353
   79  O 12  Y   -0.000548   0.000001  -0.000302   0.000167   0.001798
   80  O 12  Z   -0.001234   0.000955   0.001056  -0.000502  -0.009853
   81  O 13  S   -0.000012  -0.000081  -0.000658   0.004300   0.003840
   82  O 13  S   -0.000003  -0.000088  -0.000215   0.000728   0.000686
   83  O 13  X   -0.000037  -0.000002  -0.000080   0.000058   0.000060
   84  O 13  Y    0.000009  -0.000007  -0.000178   0.000065  -0.000005
   85  O 13  Z   -0.000043   0.000016   0.000003   0.000078  -0.000038
   86  O 13  S   -0.000146   0.000378  -0.000020  -0.000963  -0.001638
   87  O 13  X    0.000043   0.000162   0.000181  -0.000014  -0.000682
   88  O 13  Y   -0.000019   0.000007   0.000696   0.000174   0.000174
   89  O 13  Z    0.000184  -0.000080  -0.000166  -0.000231   0.000191
   90  O 14  S   -0.000101   0.000123   0.005061   0.983527  -0.009206
   91  O 14  S   -0.000124   0.000113   0.001712   0.098767  -0.000688
   92  O 14  X    0.000011   0.000007   0.000483   0.003118   0.000017
   93  O 14  Y    0.000054  -0.000040  -0.000136  -0.000670   0.000018
   94  O 14  Z   -0.000022   0.000003  -0.000134   0.002289  -0.000009
   95  O 14  S    0.000436  -0.000349  -0.004418  -0.048516  -0.000666
   96  O 14  X   -0.000025  -0.000089  -0.003247  -0.008567  -0.000387
   97  O 14  Y   -0.000286   0.000237   0.001608   0.005226   0.000254
   98  O 14  Z    0.000144  -0.000059   0.000133  -0.005887  -0.000105
   99  O 15  S   -0.001152   0.983602  -0.000238  -0.000094   0.000307
  100  O 15  S   -0.000624   0.099027   0.000223   0.000089  -0.000387
  101  O 15  X    0.000719   0.000112   0.000246  -0.000025  -0.000116
  102  O 15  Y    0.000230   0.003259   0.000073  -0.000009  -0.000187
  103  O 15  Z   -0.000431  -0.002691  -0.000145   0.000014  -0.000057
  104  O 15  S    0.004483  -0.049617  -0.001671  -0.000447   0.002359
  105  O 15  X   -0.004791   0.002658  -0.000739   0.000242  -0.000136
  106  O 15  Y   -0.000908  -0.009448  -0.000681  -0.000071   0.001147
  107  O 15  Z    0.002273   0.006704   0.000736  -0.000048  -0.000083
  108  C 16  S    0.000350  -0.000503   0.000167  -0.000045  -0.000002
  109  C 16  S    0.002306  -0.001322   0.000430  -0.000191   0.000216
  110  C 16  X    0.000583   0.001317   0.000365  -0.000161  -0.000045
  111  C 16  Y    0.001090  -0.000836  -0.000073   0.000050  -0.000056
  112  C 16  Z   -0.001083   0.000346  -0.000070  -0.000014   0.000355
  113  C 16  S    0.016038   0.014555  -0.006761   0.002732   0.003021
  114  C 16  X    0.010784   0.010025   0.005385  -0.001381  -0.003419
  115  C 16  Y    0.021662  -0.014528  -0.003726  -0.000385   0.003582
  116  C 16  Z   -0.019563   0.007855   0.001866   0.001036  -0.003072
  117  H 17  S    0.001346   0.003283   0.000469  -0.000021  -0.000201
  118  H 17  S   -0.000582   0.003747  -0.000440   0.000064   0.000435
  119  O 18  S   -0.000552   0.000334   0.983724  -0.004697   0.001444
  120  O 18  S   -0.000695   0.000368   0.099962   0.000850  -0.000392
  121  O 18  X    0.000379  -0.000534  -0.001439  -0.000542  -0.000217
  122  O 18  Y    0.000162  -0.000070  -0.002910   0.000373   0.000057
  123  O 18  Z   -0.000195   0.000155   0.001921  -0.000287  -0.000018
  124  O 18  S    0.003983  -0.002717  -0.052948  -0.004845   0.003174
  125  O 18  X   -0.000322   0.001235   0.004235   0.004672   0.002129
  126  O 18  Y   -0.001835   0.001178   0.008255  -0.001831  -0.001749
  127  O 18  Z    0.001072  -0.000739  -0.004724   0.001298   0.000270
  128  H 19  S   -0.000402   0.000237   0.000763  -0.000642  -0.000507
  129  H 19  S   -0.001002   0.000855   0.002392  -0.000123  -0.000569
  130  H 20  S    0.000494  -0.000640  -0.000582   0.000349  -0.000563
  131  H 20  S    0.000821  -0.000144  -0.000894   0.000853   0.002066
  132  H 21  S   -0.000125   0.000131   0.000746   0.001034  -0.000150
  133  H 21  S   -0.000228   0.000153   0.001520   0.000316   0.001163
  134  H 22  S   -0.001208   0.000769  -0.000458  -0.000370  -0.000784
  135  H 22  S   -0.001984   0.001271   0.001084  -0.000183  -0.001001
  136  H 23  S   -0.000129  -0.000032  -0.000956  -0.000636  -0.000016
  137  H 23  S    0.000347  -0.000199  -0.000136   0.000593   0.000038

                      6          7          8          9         10
                  -20.6011   -20.5935   -11.6546   -11.4889   -11.4514
                     A          A          A          A          A   
    1  C  1  S   -0.001061   0.000326  -0.000678  -0.000606  -0.003864
    2  C  1  S   -0.004642   0.001387  -0.001502   0.000038  -0.002286
    3  C  1  X   -0.000542   0.000246  -0.000428  -0.000803   0.000386
    4  C  1  Y   -0.001104  -0.000233   0.000083   0.000041  -0.000979
    5  C  1  Z    0.000077   0.000240  -0.000233  -0.000206   0.000156
    6  C  1  S    0.025717  -0.010062   0.007412  -0.003081   0.005210
    7  C  1  X   -0.002353   0.003782   0.004430  -0.001460   0.002300
    8  C  1  Y   -0.007525  -0.003839   0.000588  -0.002127   0.001209
    9  C  1  Z   -0.012469   0.001189   0.001191   0.002487  -0.000909
   10  C  2  S    0.000328  -0.000266  -0.001394  -0.004053   0.003446
   11  C  2  S    0.001355  -0.001761  -0.002408  -0.004819   0.002174
   12  C  2  X    0.000528   0.000475  -0.001333   0.000579  -0.000084
   13  C  2  Y    0.000325  -0.000738  -0.000792   0.000021  -0.000267
   14  C  2  Z   -0.000270   0.000450   0.000614   0.000581  -0.000330
   15  C  2  S   -0.009536   0.004781   0.002598   0.031665  -0.009812
   16  C  2  X    0.004610  -0.002190   0.006721   0.003965   0.003669
   17  C  2  Y    0.000062   0.005474   0.003171   0.017331  -0.003616
   18  C  2  Z    0.004277  -0.003516  -0.004137  -0.000497   0.000596
   19  C  3  S    0.000243  -0.000929   0.000176  -0.000201  -0.003737
   20  C  3  S    0.000817  -0.003789   0.000499   0.000050  -0.004325
   21  C  3  X   -0.000365  -0.000958   0.000119  -0.000215  -0.000021
   22  C  3  Y    0.000625  -0.000181  -0.000010  -0.000495   0.000148
   23  C  3  Z   -0.000228  -0.000526  -0.000073  -0.000099  -0.000355
   24  C  3  S   -0.008671   0.023296  -0.002852  -0.000974   0.028916
   25  C  3  X   -0.001658  -0.013209  -0.002231  -0.000899   0.006824
   26  C  3  Y    0.004936  -0.003255  -0.001130  -0.000748   0.015628
   27  C  3  Z    0.000551   0.007139  -0.000942  -0.001078   0.008802
   28  C  4  S   -0.000125   0.000150  -0.000820   0.988360   0.006689
   29  C  4  S   -0.000705   0.000597  -0.001811   0.106636  -0.002369
   30  C  4  X    0.000333   0.000535  -0.000357   0.000773   0.001450
   31  C  4  Y    0.000160   0.000144  -0.000012  -0.000061  -0.000332
   32  C  4  Z    0.000112  -0.000086  -0.000006  -0.000807  -0.000310
   33  C  4  S    0.001896  -0.005617   0.019833  -0.100033   0.008278
   34  C  4  X   -0.003165  -0.000471   0.016106  -0.004599  -0.012161
   35  C  4  Y    0.000007   0.000231   0.001582   0.007783   0.001505
   36  C  4  Z   -0.002021   0.003332  -0.002378   0.009308   0.000740
   37  C  5  S   -0.000080   0.000126  -0.000555  -0.007463   0.987965
   38  C  5  S   -0.000550   0.000324  -0.001263  -0.003421   0.102803
   39  C  5  X   -0.000015   0.000237  -0.000015  -0.000741   0.001133
   40  C  5  Y    0.000468   0.000457   0.000146   0.000728  -0.001114
   41  C  5  Z   -0.000081   0.000451  -0.000131  -0.000349  -0.000147
   42  C  5  S    0.000644  -0.003372   0.005656   0.008013  -0.083141
   43  C  5  X    0.001207   0.004397   0.002169   0.004954   0.000793
   44  C  5  Y   -0.002596   0.002036  -0.002207  -0.004577   0.015155
   45  C  5  Z    0.000634  -0.002878  -0.000163   0.002242   0.003790
   46  H  6  S    0.003131  -0.000587  -0.000027   0.000235  -0.000449
   47  H  6  S    0.005184   0.001110   0.000195   0.000172   0.001659
   48  H  7  S   -0.000640  -0.000145   0.000602   0.000488   0.000044
   49  H  7  S    0.002726  -0.000066   0.000246   0.000702  -0.000086
   50  H  8  S   -0.000413   0.003042   0.000073  -0.000093  -0.000374
   51  H  8  S   -0.000357   0.004838   0.000048   0.000322   0.000821
   52  H  9  S   -0.000253  -0.000370   0.000040   0.000010  -0.000338
   53  H  9  S    0.000321  -0.000577   0.000129   0.000502   0.002140
   54  O 10  S    0.000042   0.000016   0.000240   0.000058  -0.000060
   55  O 10  S   -0.000083  -0.000007   0.002179   0.000238  -0.000544
   56  O 10  X    0.000008  -0.000031   0.000664  -0.000223   0.000045
   57  O 10  Y    0.000040   0.000021   0.000150   0.000182   0.000044
   58  O 10  Z    0.000053  -0.000011  -0.000229  -0.000100   0.000004
   59  O 10  S    0.000456  -0.000081  -0.007804  -0.002030   0.002485
   60  O 10  X   -0.000120   0.000285  -0.000733   0.003089  -0.000332
   61  O 10  Y   -0.000243  -0.000059   0.005462  -0.000219  -0.000462
   62  O 10  Z   -0.000174  -0.000000  -0.004177  -0.000493   0.000191
   63  O 11  S    0.983501  -0.009811   0.000003  -0.000028  -0.000018
   64  O 11  S    0.098427  -0.000784   0.000005  -0.000277  -0.000253
   65  O 11  X   -0.001226  -0.000030   0.000016  -0.000274  -0.000008
   66  O 11  Y    0.003412   0.000050  -0.000025  -0.000056  -0.000284
   67  O 11  Z    0.001049  -0.000115  -0.000010   0.000005  -0.000008
   68  O 11  S   -0.047107   0.000360  -0.000015   0.000713   0.000193
   69  O 11  X    0.000992   0.000107  -0.000254   0.001227  -0.000062
   70  O 11  Y   -0.010212   0.000381   0.000047   0.000461   0.000965
   71  O 11  Z   -0.003570   0.000492  -0.000039  -0.000097   0.000030
   72  O 12  S   -0.004890  -0.003735   0.000082   0.000127  -0.000040
   73  O 12  S   -0.000475   0.000018   0.000462   0.000677  -0.000223
   74  O 12  X   -0.000265   0.000068  -0.000416  -0.000009  -0.000001
   75  O 12  Y   -0.000108   0.000084  -0.000344  -0.000382   0.000016
   76  O 12  Z   -0.000188   0.000038  -0.000012  -0.000235  -0.000004
   77  O 12  S    0.001461  -0.002005  -0.003097  -0.004621   0.001463
   78  O 12  X    0.000695   0.000165   0.001018   0.000319  -0.000366
   79  O 12  Y    0.000763  -0.000786   0.000621  -0.000023   0.000316
   80  O 12  Z    0.001817  -0.000999  -0.001248  -0.001516   0.000741
   81  O 13  S    0.009818   0.983492   0.000003   0.000002   0.000027
   82  O 13  S    0.001181   0.098338   0.000004  -0.000001  -0.000074
   83  O 13  X    0.000186   0.002524  -0.000050  -0.000057  -0.000265
   84  O 13  Y   -0.000350   0.002470   0.000026  -0.000057  -0.000083
   85  O 13  Z    0.000121  -0.001393  -0.000087  -0.000069   0.000002
   86  O 13  S   -0.000174  -0.047112  -0.000331  -0.000199  -0.000853
   87  O 13  X   -0.000190  -0.009135   0.000111   0.000150  -0.000251
   88  O 13  Y    0.001085  -0.005103  -0.000091   0.000204  -0.000919
   89  O 13  Z   -0.000511   0.002743   0.000396   0.000315  -0.000534
   90  O 14  S    0.003062  -0.004248   0.000001  -0.000047  -0.000156
   91  O 14  S    0.000100  -0.000118  -0.000015  -0.000449  -0.000282
   92  O 14  X   -0.000054  -0.000092   0.000051   0.000063   0.000276
   93  O 14  Y   -0.000078  -0.000374   0.000028   0.000144  -0.000248
   94  O 14  Z   -0.000089  -0.000237  -0.000045  -0.000103   0.000480
   95  O 14  S    0.000958  -0.000125   0.000179   0.002045   0.007082
   96  O 14  X    0.000402   0.000093  -0.000305  -0.000125   0.000934
   97  O 14  Y    0.000095   0.001125  -0.000060  -0.000910  -0.002848
   98  O 14  Z    0.000519   0.000960   0.000200   0.000577  -0.000229
   99  O 15  S   -0.000070   0.000063  -0.000034  -0.000051   0.000048
  100  O 15  S    0.000074  -0.000052   0.000615  -0.000824   0.000358
  101  O 15  X   -0.000006   0.000018   0.000231   0.000765   0.000048
  102  O 15  Y    0.000013  -0.000037   0.000661  -0.000465   0.000012
  103  O 15  Z    0.000021   0.000015  -0.000682  -0.000124  -0.000039
  104  O 15  S   -0.000377   0.000160   0.005077   0.001596  -0.002088
  105  O 15  X    0.000073  -0.000001  -0.003568  -0.002065   0.000376
  106  O 15  Y   -0.000161   0.000162  -0.001404   0.001644  -0.000545
  107  O 15  Z   -0.000074  -0.000086   0.002443   0.000220   0.000279
  108  C 16  S   -0.000000  -0.000041   0.986862   0.000223   0.000237
  109  C 16  S   -0.000016  -0.000167   0.095587  -0.002168  -0.000765
  110  C 16  X   -0.000035  -0.000139   0.000330  -0.000302  -0.000125
  111  C 16  Y   -0.000080  -0.000011   0.000513  -0.000129   0.000099
  112  C 16  Z   -0.000084  -0.000011  -0.000890   0.000004  -0.000159
  113  C 16  S    0.000581   0.002198  -0.049332   0.025420   0.005384
  114  C 16  X    0.000074  -0.001694   0.017968  -0.017496  -0.002008
  115  C 16  Y   -0.000134   0.000124   0.009682   0.001313  -0.003171
  116  C 16  Z    0.001268   0.000170  -0.012219   0.002880   0.003827
  117  H 17  S    0.000008  -0.000037   0.000858   0.000421   0.000142
  118  H 17  S   -0.000020   0.000189   0.001401   0.002281   0.000049
  119  O 18  S   -0.001696   0.000661   0.000020  -0.000220  -0.000152
  120  O 18  S    0.000379  -0.000101  -0.000135  -0.000658  -0.000157
  121  O 18  X    0.000032  -0.000083  -0.000554   0.000130  -0.000528
  122  O 18  Y   -0.000107   0.000346   0.000218  -0.000473  -0.000392
  123  O 18  Z    0.000123   0.000098   0.000203   0.000627   0.000647
  124  O 18  S   -0.002378  -0.000001  -0.000787   0.008897   0.006536
  125  O 18  X   -0.000079   0.001155   0.001788   0.004336  -0.004726
  126  O 18  Y    0.001202  -0.001716  -0.000746  -0.003574   0.001771
  127  O 18  Z   -0.000636  -0.000317  -0.000716  -0.000802  -0.001913
  128  H 19  S   -0.000729   0.000794  -0.000671   0.000123  -0.000145
  129  H 19  S    0.001116   0.000320  -0.000520  -0.001664  -0.000727
  130  H 20  S    0.000261   0.000404  -0.000207  -0.001304   0.000047
  131  H 20  S   -0.001052   0.002358  -0.000426   0.002596  -0.000382
  132  H 21  S    0.000756  -0.000470   0.000320  -0.000007  -0.001914
  133  H 21  S    0.000558   0.000523  -0.000235  -0.000429   0.002782
  134  H 22  S    0.000027  -0.000044  -0.001797   0.001136  -0.000829
  135  H 22  S    0.000570  -0.000834   0.001595   0.013818  -0.001783
  136  H 23  S   -0.000379   0.000825  -0.000446  -0.001052   0.000795
  137  H 23  S    0.000167   0.001332  -0.000350  -0.001725   0.014258

                     11         12         13         14         15
                  -11.4192   -11.3913   -11.3731    -1.8587    -1.6878
                     A          A          A          A          A   
    1  C  1  S   -0.005405   0.988403   0.005961   0.000163  -0.000842
    2  C  1  S   -0.003662   0.106878  -0.001735   0.001797   0.000151
    3  C  1  X    0.001048   0.000878  -0.000549   0.000716   0.000488
    4  C  1  Y   -0.000282   0.001020   0.000704  -0.000173   0.000236
    5  C  1  Z    0.000252  -0.001178  -0.000112   0.000593  -0.000682
    6  C  1  S    0.025886  -0.100721   0.021309  -0.011858   0.006468
    7  C  1  X    0.013860  -0.007024  -0.009300  -0.011250   0.005343
    8  C  1  Y    0.002173  -0.011566   0.012411   0.003149  -0.001301
    9  C  1  Z   -0.004026   0.011746  -0.004100  -0.006817   0.006394
   10  C  2  S    0.988393   0.004257   0.006792  -0.000853  -0.004985
   11  C  2  S    0.106697  -0.002758  -0.002625   0.005707   0.003841
   12  C  2  X   -0.000888  -0.000607   0.001629   0.003605   0.002234
   13  C  2  Y    0.001816  -0.000067  -0.000889   0.002904   0.001424
   14  C  2  Z   -0.000137   0.000435   0.000530  -0.001727   0.001445
   15  C  2  S   -0.098143   0.028230   0.007870  -0.001734  -0.001239
   16  C  2  X    0.009160  -0.017029  -0.006309  -0.015309   0.004481
   17  C  2  Y   -0.014394   0.000902   0.004168  -0.010148   0.003394
   18  C  2  Z   -0.000241  -0.001873  -0.003829   0.020368  -0.018944
   19  C  3  S   -0.007451  -0.006898   0.988262  -0.000028  -0.000538
   20  C  3  S   -0.003475  -0.003756   0.106367   0.000742  -0.000058
   21  C  3  X   -0.001743   0.000406   0.001219   0.000107   0.000371
   22  C  3  Y    0.000732  -0.000349  -0.000021   0.000157   0.000078
   23  C  3  Z   -0.000144   0.000375   0.000986   0.000232   0.000189
   24  C  3  S    0.004742   0.028913  -0.098755  -0.003503   0.004799
   25  C  3  X    0.008392   0.007779  -0.012413   0.001830   0.000444
   26  C  3  Y    0.002413  -0.016180  -0.001940   0.003356  -0.001352
   27  C  3  Z   -0.000080   0.003827  -0.009776  -0.000872  -0.000217
   28  C  4  S    0.002578   0.000838   0.000418  -0.011250  -0.012801
   29  C  4  S   -0.003715   0.000022   0.000385   0.008879   0.013446
   30  C  4  X   -0.000146   0.000816   0.000127   0.012052   0.013342
   31  C  4  Y   -0.000938   0.000892   0.000122   0.002459  -0.003288
   32  C  4  Z    0.000417  -0.000621   0.000575  -0.005054  -0.003449
   33  C  4  S    0.027669  -0.004710  -0.002831  -0.005626   0.033358
   34  C  4  X   -0.012651  -0.003902   0.003504  -0.027345   0.018987
   35  C  4  Y   -0.011035  -0.001568   0.000679   0.021246  -0.029558
   36  C  4  Z   -0.008679   0.005388  -0.000756  -0.021342   0.023108
   37  C  5  S   -0.002899   0.003413   0.002463  -0.000373  -0.000994
   38  C  5  S    0.001355  -0.001583  -0.003970   0.002452   0.001178
   39  C  5  X    0.000299   0.000305  -0.000147   0.001884  -0.000246
   40  C  5  Y    0.000054   0.001067  -0.000487  -0.000322  -0.000054
   41  C  5  Z    0.000214  -0.000207  -0.000282  -0.000324  -0.000024
   42  C  5  S   -0.007686   0.004453   0.031661  -0.004301  -0.001735
   43  C  5  X   -0.003340   0.000243  -0.004744  -0.005184   0.000533
   44  C  5  Y    0.004139  -0.003012  -0.015184   0.002622  -0.001236
   45  C  5  Z    0.001230   0.001282  -0.005589   0.000929   0.000471
   46  H  6  S    0.000389  -0.000303  -0.000182   0.000232  -0.000156
   47  H  6  S    0.001223   0.001905   0.000897  -0.000790   0.000497
   48  H  7  S   -0.000175  -0.000575   0.000427  -0.000192   0.001331
   49  H  7  S    0.002497   0.001636  -0.001362   0.001550  -0.002122
   50  H  8  S    0.000054   0.000346  -0.000405  -0.000047   0.000140
   51  H  8  S    0.001016   0.001284   0.002087  -0.000412   0.000114
   52  H  9  S    0.000073   0.000225   0.000315   0.000012   0.000040
   53  H  9  S   -0.000350   0.000747   0.001421  -0.000501   0.000624
   54  O 10  S   -0.000043  -0.000015  -0.000013  -0.217890   0.073025
   55  O 10  S   -0.000362  -0.000163  -0.000120   0.214987  -0.073331
   56  O 10  X   -0.000033  -0.000087   0.000055  -0.041641   0.022174
   57  O 10  Y   -0.000066  -0.000013  -0.000006  -0.089488   0.009732
   58  O 10  Z   -0.000033  -0.000074  -0.000013   0.080639  -0.014495
   59  O 10  S    0.002048   0.000706   0.000515   0.718591  -0.258799
   60  O 10  X   -0.000128   0.000634  -0.000354  -0.044245   0.032752
   61  O 10  Y   -0.000003   0.000064  -0.000034  -0.116474   0.015321
   62  O 10  Z    0.000210   0.000276   0.000135   0.102575  -0.022831
   63  O 11  S    0.000067  -0.000294   0.000023  -0.000012  -0.000426
   64  O 11  S    0.000265  -0.001197  -0.000083   0.000090   0.000274
   65  O 11  X   -0.000353  -0.000001  -0.000149  -0.000041   0.000178
   66  O 11  Y   -0.000204   0.000417  -0.000230   0.000113   0.000116
   67  O 11  Z   -0.000181   0.000427   0.000009  -0.000109   0.000138
   68  O 11  S   -0.002327   0.011290  -0.000741  -0.000234   0.001909
   69  O 11  X    0.000165   0.002496   0.000927   0.000565  -0.000470
   70  O 11  Y   -0.000417   0.004521  -0.000559  -0.000704   0.000921
   71  O 11  Z    0.000343   0.000979   0.000012   0.000769  -0.000602
   72  O 12  S   -0.000319   0.000063   0.000109  -0.001557  -0.003319
   73  O 12  S   -0.001467   0.000125   0.000903  -0.000478   0.004573
   74  O 12  X   -0.000111   0.000472  -0.000193   0.000238   0.000009
   75  O 12  Y   -0.000282   0.000013   0.000182   0.000302   0.000326
   76  O 12  Z    0.000477  -0.000365   0.000124   0.000281   0.002014
   77  O 12  S    0.012651  -0.003120  -0.003361   0.014070   0.002288
   78  O 12  X   -0.001125  -0.000236   0.001433   0.000479   0.000637
   79  O 12  Y    0.002824  -0.000246  -0.001239   0.001559  -0.001637
   80  O 12  Z    0.005137  -0.000621  -0.001639   0.005687  -0.002034
   81  O 13  S   -0.000111   0.000067  -0.000217  -0.000043  -0.000121
   82  O 13  S   -0.001044   0.000270  -0.000641  -0.000080   0.000166
   83  O 13  X   -0.000354  -0.000377   0.000543   0.000069   0.000050
   84  O 13  Y    0.000198   0.000109   0.000020  -0.000023   0.000071
   85  O 13  Z   -0.000069  -0.000190  -0.000355   0.000085  -0.000046
   86  O 13  S    0.004139  -0.002309   0.008525   0.001223  -0.000040
   87  O 13  X    0.002418  -0.000203   0.003756   0.000134  -0.000001
   88  O 13  Y   -0.000790   0.000327   0.000635   0.000191  -0.000185
   89  O 13  Z    0.000107   0.000609   0.001216  -0.000492   0.000233
   90  O 14  S    0.000010  -0.000051   0.000070  -0.000113  -0.000579
   91  O 14  S    0.000120  -0.000537   0.000271   0.000284   0.000229
   92  O 14  X   -0.000028   0.000020   0.000004   0.000032   0.000183
   93  O 14  Y   -0.000024   0.000381   0.000460  -0.000145  -0.000045
   94  O 14  Z    0.000079   0.000086  -0.000016   0.000101   0.000106
   95  O 14  S   -0.000608   0.001627  -0.002388  -0.000645   0.002829
   96  O 14  X    0.000224   0.000006  -0.000389   0.000655   0.000704
   97  O 14  Y    0.000074  -0.001719   0.000046   0.000713  -0.000900
   98  O 14  Z   -0.000478  -0.000258  -0.000154  -0.000549   0.000502
   99  O 15  S    0.000084   0.000018   0.000006  -0.048885  -0.220185
  100  O 15  S    0.000646   0.000065   0.000043   0.045797   0.206467
  101  O 15  X   -0.000035   0.000101   0.000030  -0.004142   0.005357
  102  O 15  Y    0.000081   0.000040   0.000019   0.024502   0.061901
  103  O 15  Z    0.000183   0.000032   0.000019  -0.017600  -0.052543
  104  O 15  S   -0.003008  -0.000931  -0.000255   0.130492   0.715331
  105  O 15  X    0.001189   0.000215  -0.000065   0.013121  -0.005914
  106  O 15  Y   -0.000815  -0.000329  -0.000115   0.035460   0.093051
  107  O 15  Z   -0.000306   0.000014  -0.000031  -0.032274  -0.072851
  108  C 16  S    0.000918   0.000250  -0.000040  -0.112590  -0.040700
  109  C 16  S   -0.002188  -0.001458   0.000192   0.126867   0.055156
  110  C 16  X    0.001040   0.000107  -0.000124   0.062516   0.040706
  111  C 16  Y    0.000606   0.000310   0.000035   0.085596  -0.113380
  112  C 16  Z   -0.000265  -0.000084  -0.000051  -0.081891   0.071638
  113  C 16  S    0.004551   0.007356  -0.001875   0.045574   0.050171
  114  C 16  X   -0.001290  -0.004515   0.001221  -0.051164  -0.007569
  115  C 16  Y   -0.003190  -0.002062  -0.000521  -0.074114   0.047004
  116  C 16  Z    0.003794   0.001423  -0.000003   0.071800  -0.031315
  117  H 17  S   -0.000041  -0.000002   0.000044   0.011588   0.085403
  118  H 17  S   -0.000207   0.000395  -0.000129   0.003833   0.005696
  119  O 18  S    0.000063   0.000037   0.000003  -0.005162  -0.003456
  120  O 18  S    0.000237   0.000420  -0.000386   0.006853   0.001760
  121  O 18  X    0.000039  -0.000294   0.000267   0.002468   0.001043
  122  O 18  Y    0.000018  -0.000262   0.000248  -0.002819  -0.001189
  123  O 18  Z   -0.000056   0.000063  -0.000021   0.000653   0.000415
  124  O 18  S   -0.002178  -0.000622  -0.000417   0.002411   0.021169
  125  O 18  X   -0.001905   0.001918   0.000911  -0.000081  -0.005162
  126  O 18  Y    0.002576   0.000987  -0.000332   0.005553  -0.006527
  127  O 18  Z    0.000091  -0.000570   0.000282  -0.002201   0.004970
  128  H 19  S   -0.001373   0.000647  -0.001709   0.001146  -0.000517
  129  H 19  S    0.001645   0.012243   0.000673   0.002963  -0.003054
  130  H 20  S    0.000360  -0.000968  -0.000027   0.000220   0.003049
  131  H 20  S    0.011604   0.001626   0.004264  -0.002827   0.007667
  132  H 21  S   -0.001356  -0.001954   0.001362   0.000030  -0.000087
  133  H 21  S   -0.000322  -0.000606   0.014672   0.000127  -0.000505
  134  H 22  S   -0.001199  -0.000311   0.000522   0.006007   0.001202
  135  H 22  S    0.002623  -0.002401   0.000293   0.001880  -0.008242
  136  H 23  S    0.000769  -0.000645  -0.002146   0.000555   0.000285
  137  H 23  S   -0.000743  -0.001397   0.000333  -0.000949   0.001223

                     16         17         18         19         20
                   -1.5893    -1.5227    -1.5054    -1.4838    -1.4650
                     A          A          A          A          A   
    1  C  1  S   -0.016237  -0.058989  -0.024901   0.033053  -0.036287
    2  C  1  S    0.017988   0.059554   0.025919  -0.034035   0.040572
    3  C  1  X    0.003270   0.003574  -0.019552   0.028289  -0.015312
    4  C  1  Y    0.005307  -0.024622  -0.005810   0.016969  -0.051505
    5  C  1  Z   -0.006506  -0.029777  -0.011660   0.015437  -0.021055
    6  C  1  S    0.016450   0.106838   0.053094  -0.055235   0.064291
    7  C  1  X   -0.006292  -0.001141  -0.009650  -0.003968   0.018432
    8  C  1  Y    0.005208   0.012139  -0.000865  -0.013768   0.005664
    9  C  1  Z    0.008167  -0.014732  -0.005454  -0.026254   0.011220
   10  C  2  S   -0.026371  -0.071704   0.017227  -0.032922   0.014161
   11  C  2  S    0.026333   0.076422  -0.016873   0.032447  -0.018630
   12  C  2  X   -0.000710  -0.008277  -0.012365   0.014497  -0.014435
   13  C  2  Y    0.016490  -0.007029  -0.009401  -0.008933  -0.005141
   14  C  2  Z   -0.006460  -0.055852   0.009258  -0.045514   0.024509
   15  C  2  S    0.046049   0.126873  -0.023624   0.077035  -0.027661
   16  C  2  X   -0.016391   0.001698   0.008792   0.004332  -0.008722
   17  C  2  Y   -0.000123  -0.007259  -0.007007   0.016546   0.000897
   18  C  2  Z   -0.003278   0.019057   0.011153   0.018903  -0.019935
   19  C  3  S   -0.027558  -0.022142  -0.051003   0.038176   0.041193
   20  C  3  S    0.028747   0.023023   0.051861  -0.039782  -0.043992
   21  C  3  X    0.008901  -0.005187  -0.037992   0.031319   0.056751
   22  C  3  Y    0.014461  -0.022240   0.001991   0.017807  -0.006724
   23  C  3  Z    0.008846   0.002999   0.009684  -0.007935  -0.004841
   24  C  3  S    0.047019   0.032665   0.089905  -0.072617  -0.071465
   25  C  3  X    0.013727   0.004347   0.007204  -0.012460  -0.022784
   26  C  3  Y    0.003085   0.002807   0.017221   0.020740  -0.012862
   27  C  3  Z   -0.010586   0.001370  -0.011915   0.001851  -0.003794
   28  C  4  S   -0.069067  -0.010281   0.045738   0.015254   0.008739
   29  C  4  S    0.075146   0.008241  -0.045381  -0.015196  -0.006925
   30  C  4  X   -0.035487   0.000674   0.010738   0.009101  -0.001454
   31  C  4  Y    0.042874  -0.027152  -0.022341  -0.026531   0.005111
   32  C  4  Z   -0.025956  -0.005490   0.016533   0.002814   0.004164
   33  C  4  S    0.133080   0.026446  -0.094551  -0.046032  -0.019555
   34  C  4  X    0.027504   0.005203   0.009453   0.005599   0.009650
   35  C  4  Y   -0.015534   0.009088   0.007680   0.013896  -0.004579
   36  C  4  Z    0.004346  -0.020618  -0.007643  -0.016240   0.010466
   37  C  5  S   -0.080552   0.022713  -0.040424  -0.018170  -0.005533
   38  C  5  S    0.092088  -0.022693   0.045823   0.021094   0.006758
   39  C  5  X    0.042334  -0.003936  -0.063973  -0.036462   0.000761
   40  C  5  Y    0.013992  -0.022081   0.036739   0.049294   0.024757
   41  C  5  Z   -0.026443   0.009602  -0.027561  -0.016609  -0.003347
   42  C  5  S    0.111134  -0.045888   0.053896   0.020398   0.017713
   43  C  5  X   -0.005468  -0.004897  -0.001374   0.013498   0.011590
   44  C  5  Y   -0.011263   0.011096  -0.010173  -0.013094  -0.000933
   45  C  5  Z    0.015308  -0.003253   0.020639   0.012710  -0.007162
   46  H  6  S    0.005292   0.047031   0.027279  -0.042160   0.064675
   47  H  6  S    0.000061   0.004596   0.005221  -0.009444   0.003737
   48  H  7  S    0.011097   0.071521  -0.011188   0.047864  -0.020459
   49  H  7  S   -0.001119   0.006962   0.001662   0.003841   0.001471
   50  H  8  S    0.008543   0.013115   0.048490  -0.042930  -0.067995
   51  H  8  S    0.000153  -0.000484   0.010229  -0.002252  -0.009691
   52  H  9  S    0.028435  -0.020833   0.065209   0.054586   0.021623
   53  H  9  S    0.005793  -0.004892   0.009673   0.010706   0.003344
   54  O 10  S    0.011033   0.000393  -0.007189  -0.002583  -0.001269
   55  O 10  S   -0.009305  -0.001016   0.007285   0.002099   0.001754
   56  O 10  X   -0.007481  -0.001161   0.007048   0.002262   0.001646
   57  O 10  Y    0.005049  -0.000509  -0.002976  -0.001784  -0.000080
   58  O 10  Z   -0.001608  -0.000932   0.000214  -0.000836   0.000294
   59  O 10  S   -0.050662   0.003157   0.027384   0.013868   0.001631
   60  O 10  X   -0.003052  -0.003108   0.003871   0.000345   0.001472
   61  O 10  Y    0.008434   0.000733  -0.003736  -0.001243  -0.000318
   62  O 10  Z   -0.004882   0.000875   0.001810   0.001119  -0.000117
   63  O 11  S   -0.013682  -0.114914  -0.057690   0.091555  -0.153723
   64  O 11  S    0.012269   0.106268   0.054751  -0.084043   0.141247
   65  O 11  X   -0.000352  -0.009509  -0.010286   0.018096  -0.022933
   66  O 11  Y    0.005645   0.036953   0.018272  -0.025817   0.037560
   67  O 11  Z    0.001261   0.008044   0.005005  -0.008016   0.010967
   68  O 11  S    0.043245   0.354826   0.173887  -0.294487   0.495991
   69  O 11  X   -0.000257  -0.008217  -0.010555   0.018829  -0.026614
   70  O 11  Y    0.007266   0.046446   0.022675  -0.040790   0.058350
   71  O 11  Z    0.001255   0.010360   0.005783  -0.014304   0.019196
   72  O 12  S   -0.028824  -0.162980   0.034446  -0.121816   0.062860
   73  O 12  S    0.027222   0.149906  -0.032880   0.111592  -0.056364
   74  O 12  X   -0.006433  -0.036141   0.004872  -0.022203   0.008904
   75  O 12  Y   -0.000226  -0.020115   0.001530  -0.015301   0.005779
   76  O 12  Z    0.010420   0.041097  -0.009531   0.025387  -0.012392
   77  O 12  S    0.084688   0.512502  -0.103899   0.392312  -0.210526
   78  O 12  X   -0.006276  -0.045406   0.005675  -0.028714   0.013492
   79  O 12  Y   -0.002184  -0.023471   0.005098  -0.019836   0.007068
   80  O 12  Z    0.010219   0.058603  -0.009908   0.040916  -0.022603
   81  O 13  S   -0.019255  -0.035218  -0.112894   0.103376   0.153790
   82  O 13  S    0.017757   0.032360   0.104659  -0.095319  -0.141578
   83  O 13  X    0.006839   0.009436   0.024171  -0.019721  -0.022707
   84  O 13  Y    0.005560   0.004523   0.026987  -0.020085  -0.038917
   85  O 13  Z   -0.001822  -0.004049  -0.013857   0.012370   0.018758
   86  O 13  S    0.059339   0.109962   0.351170  -0.327501  -0.494610
   87  O 13  X    0.007938   0.011778   0.036918  -0.029798  -0.042224
   88  O 13  Y    0.005073   0.005558   0.030615  -0.025816  -0.050088
   89  O 13  Z   -0.002806  -0.006486  -0.015893   0.017038   0.026498
   90  O 14  S   -0.078236   0.050003  -0.153698  -0.123213  -0.045208
   91  O 14  S    0.071351  -0.045779   0.141935   0.112856   0.042262
   92  O 14  X    0.027551  -0.014991   0.035967   0.030335   0.013521
   93  O 14  Y   -0.010664   0.001359  -0.004702   0.003556   0.004335
   94  O 14  Z    0.017550  -0.010247   0.029931   0.023160   0.008454
   95  O 14  S    0.239371  -0.158893   0.490534   0.401950   0.144881
   96  O 14  X    0.039685  -0.020832   0.050023   0.044564   0.017840
   97  O 14  Y   -0.013035   0.005141  -0.016385  -0.007744   0.002887
   98  O 14  Z    0.021388  -0.014637   0.041982   0.036371   0.013734
   99  O 15  S    0.011212   0.006702  -0.006726   0.001576  -0.002818
  100  O 15  S   -0.012115  -0.005051   0.006400  -0.000382   0.001951
  101  O 15  X   -0.005538  -0.004224   0.005958  -0.000716   0.002732
  102  O 15  Y   -0.003017  -0.001668   0.001124  -0.000698   0.000451
  103  O 15  Z    0.004121   0.000815  -0.002613  -0.000797  -0.000452
  104  O 15  S   -0.027092  -0.029257   0.022174  -0.011533   0.013626
  105  O 15  X   -0.003949  -0.001104   0.002423   0.000480   0.000508
  106  O 15  Y   -0.001913  -0.005608   0.002019  -0.003205   0.002411
  107  O 15  Z    0.002276   0.003773  -0.001700   0.001611  -0.001485
  108  C 16  S   -0.007526  -0.002461   0.008816   0.001727   0.002777
  109  C 16  S    0.010483   0.002237  -0.009723  -0.003930  -0.001755
  110  C 16  X   -0.031224  -0.007810   0.025028   0.005543   0.006181
  111  C 16  Y   -0.000321  -0.001233   0.000813  -0.001079   0.000850
  112  C 16  Z    0.009984  -0.000073  -0.007901  -0.003743  -0.001215
  113  C 16  S    0.003579  -0.000701  -0.026267  -0.003159  -0.010985
  114  C 16  X   -0.004493   0.008055   0.013216   0.006291   0.002540
  115  C 16  Y    0.023629  -0.015422  -0.004696  -0.015284   0.007919
  116  C 16  Z   -0.017954   0.001196  -0.000649   0.002644  -0.004348
  117  H 17  S   -0.007536  -0.003718   0.005692  -0.000255   0.002109
  118  H 17  S   -0.000723  -0.002913   0.000817  -0.001333   0.001053
  119  O 18  S   -0.187626   0.032719   0.082173   0.052709  -0.001984
  120  O 18  S    0.169578  -0.028939  -0.075776  -0.047280   0.000671
  121  O 18  X   -0.025609   0.010459  -0.013230  -0.004981  -0.004867
  122  O 18  Y   -0.044917  -0.000164   0.027784   0.016655   0.004992
  123  O 18  Z    0.028665  -0.005444  -0.014480  -0.009332   0.000386
  124  O 18  S    0.594807  -0.109960  -0.263552  -0.179461   0.009872
  125  O 18  X   -0.037206   0.005410  -0.008072  -0.005493  -0.000775
  126  O 18  Y   -0.065865   0.006221   0.040458   0.027363  -0.001395
  127  O 18  Z    0.045289  -0.006269  -0.023169  -0.018113   0.000011
  128  H 19  S    0.004597   0.016876   0.008013  -0.008402   0.010258
  129  H 19  S   -0.006011  -0.004221  -0.001113   0.009337  -0.005697
  130  H 20  S    0.007785   0.019797  -0.006831   0.009097  -0.003238
  131  H 20  S   -0.005083  -0.014962  -0.004146  -0.003223   0.009674
  132  H 21  S    0.008533   0.009241   0.012783  -0.009579  -0.011142
  133  H 21  S   -0.007812   0.001344  -0.011141   0.009914   0.003157
  134  H 22  S    0.020083   0.004506  -0.013642  -0.003264  -0.003117
  135  H 22  S   -0.011052   0.002044   0.009988   0.005577  -0.001427
  136  H 23  S    0.022924  -0.005442   0.010232   0.003334   0.002236
  137  H 23  S   -0.010773   0.004032  -0.011217  -0.004225   0.001578

                     21         22         23         24         25
                   -1.2784    -1.2191    -1.1252    -1.0745    -1.0593
                     A          A          A          A          A   
    1  C  1  S   -0.023297  -0.117092  -0.021761   0.028208   0.074265
    2  C  1  S    0.026543   0.112802   0.016294  -0.025038  -0.063790
    3  C  1  X    0.026708   0.032983   0.067582  -0.051979  -0.001453
    4  C  1  Y    0.008416   0.080276  -0.032572   0.025886  -0.015923
    5  C  1  Z    0.007017  -0.001579   0.017660  -0.015714  -0.001032
    6  C  1  S    0.039933   0.312876   0.085412  -0.091354  -0.257819
    7  C  1  X   -0.013435   0.033795   0.010599  -0.000724  -0.012670
    8  C  1  Y    0.012966   0.037056   0.008185  -0.010400  -0.033059
    9  C  1  Z   -0.002398  -0.010172   0.003349  -0.002055   0.016520
   10  C  2  S   -0.070387  -0.075681  -0.091154   0.055943  -0.011100
   11  C  2  S    0.077134   0.075035   0.078396  -0.048422   0.004821
   12  C  2  X    0.025709  -0.067019  -0.012587   0.024560   0.074015
   13  C  2  Y    0.055195   0.011832   0.005615   0.020888   0.022586
   14  C  2  Z    0.047158   0.038199   0.044007  -0.022871   0.014767
   15  C  2  S    0.142846   0.194448   0.287318  -0.203726   0.058522
   16  C  2  X   -0.022331   0.007192  -0.001063   0.022333   0.018283
   17  C  2  Y   -0.013598   0.032847   0.026137  -0.002243   0.007200
   18  C  2  Z    0.028875   0.024662   0.016744  -0.028279  -0.003940
   19  C  3  S    0.004399  -0.108855   0.080181  -0.055165   0.008573
   20  C  3  S   -0.003233   0.110695  -0.073327   0.048550  -0.007660
   21  C  3  X   -0.001466   0.080753  -0.031171   0.013476  -0.005241
   22  C  3  Y   -0.016780  -0.007650  -0.045774   0.031319   0.078759
   23  C  3  Z    0.000975   0.036429  -0.013356   0.002572   0.003392
   24  C  3  S   -0.009605   0.261416  -0.246446   0.189234  -0.021476
   25  C  3  X   -0.007447   0.028427  -0.043654   0.024880  -0.001345
   26  C  3  Y    0.012142   0.015292   0.003063  -0.003222  -0.000198
   27  C  3  Z    0.001093   0.012017  -0.005524   0.007925  -0.008773
   28  C  4  S   -0.147523   0.018285  -0.028421  -0.032440  -0.031140
   29  C  4  S    0.144161  -0.011088   0.024116   0.034415   0.027686
   30  C  4  X    0.083463  -0.055577  -0.099177   0.059670   0.006042
   31  C  4  Y   -0.053456  -0.065312  -0.039330   0.034168  -0.075797
   32  C  4  Z   -0.009960   0.014636   0.012240  -0.003483   0.054612
   33  C  4  S    0.420343  -0.072370   0.105907   0.085483   0.144749
   34  C  4  X    0.024329   0.007943  -0.004119   0.011265   0.037832
   35  C  4  Y   -0.038827  -0.012472  -0.010099  -0.013139  -0.060397
   36  C  4  Z   -0.000866   0.012033   0.017059   0.013096   0.039654
   37  C  5  S    0.038655  -0.066176   0.079021  -0.031646  -0.073030
   38  C  5  S   -0.034063   0.072326  -0.084739   0.034352   0.070038
   39  C  5  X   -0.046260  -0.017110   0.025399  -0.048341  -0.003204
   40  C  5  Y    0.004837  -0.075614   0.057237  -0.042566  -0.011185
   41  C  5  Z    0.006158  -0.007808   0.009612  -0.005231   0.013453
   42  C  5  S   -0.112623   0.149379  -0.203003   0.083657   0.240751
   43  C  5  X   -0.019553   0.014114   0.009739  -0.016368  -0.000835
[...]
    9 H            -0.000000                    -0.000003
   10 O             1.034849                     0.992404
   11 O             0.000680                     0.000710
   12 O             0.001788                     0.001534
   13 O             0.000045                     0.000039
   14 O            -0.000065                    -0.000058
   15 O             0.123853                     0.106120
   16 C            -0.258339                    -0.171559
   17 H            -0.002860                    -0.002037
   18 O            -0.007931                    -0.006018
   19 H            -0.000483                    -0.000376
   20 H             0.000378                     0.000299
   21 H             0.000097                     0.000056
   22 H            -0.005335                    -0.003155
   23 H             0.000013                     0.000021


          ********* ALL ELECTRONS ********

               ----- POPULATIONS IN EACH AO -----
                             MULLIKEN      LOWDIN
              1  C  1  S      1.99027     1.97557
              2  C  1  S      0.34947     0.42442
              3  C  1  X      0.52857     0.51885
              4  C  1  Y      0.47932     0.46967
              5  C  1  Z      0.55402     0.52874
              6  C  1  S      1.02827     0.55240
              7  C  1  X      0.29204     0.48518
              8  C  1  Y      0.24174     0.43812
              9  C  1  Z      0.50931     0.55060
             10  C  2  S      1.99028     1.97573
             11  C  2  S      0.35368     0.42624
             12  C  2  X      0.57087     0.56115
             13  C  2  Y      0.52173     0.49949
             14  C  2  Z      0.46018     0.44735
             15  C  2  S      1.01077     0.55418
             16  C  2  X      0.40101     0.52549
             17  C  2  Y      0.37245     0.51365
             18  C  2  Z      0.24892     0.43092
             19  C  3  S      1.99016     1.97559
             20  C  3  S      0.35253     0.42865
             21  C  3  X      0.44003     0.43408
             22  C  3  Y      0.56837     0.55713
             23  C  3  Z      0.57860     0.55242
             24  C  3  S      1.00705     0.54899
             25  C  3  X      0.22865     0.41741
             26  C  3  Y      0.28161     0.48889
             27  C  3  Z      0.52506     0.57255
             28  C  4  S      1.99028     1.97563
             29  C  4  S      0.35740     0.43106
             30  C  4  X      0.44363     0.43338
             31  C  4  Y      0.53079     0.51702
             32  C  4  Z      0.57469     0.54442
             33  C  4  S      1.05495     0.55880
             34  C  4  X      0.21642     0.44351
             35  C  4  Y      0.30018     0.47684
             36  C  4  Z      0.53662     0.55732
             37  C  5  S      1.98899     1.97507
             38  C  5  S      0.37362     0.42983
             39  C  5  X      0.39228     0.37974
             40  C  5  Y      0.53004     0.52216
             41  C  5  Z      0.57146     0.53506
             42  C  5  S      0.87595     0.55169
             43  C  5  X      0.16383     0.38113
             44  C  5  Y      0.26730     0.44726
             45  C  5  Z      0.43622     0.53661
             46  H  6  S      0.38757     0.40454
             47  H  6  S      0.17492     0.30357
             48  H  7  S      0.37673     0.39487
             49  H  7  S      0.17740     0.31247
             50  H  8  S      0.39462     0.41164
             51  H  8  S      0.18099     0.30267
             52  H  9  S      0.39712     0.41379
             53  H  9  S      0.18585     0.30133
             54  O 10  S      1.98826     1.98301
             55  O 10  S      0.46046     0.62016
             56  O 10  X      0.55816     0.55115
             57  O 10  Y      0.70122     0.69038
             58  O 10  Z      0.75643     0.74610
             59  O 10  S      1.59169     1.03768
             60  O 10  X      0.54471     0.56798
             61  O 10  Y      0.74704     0.76622
             62  O 10  Z      0.83123     0.84434
             63  O 11  S      1.98612     1.98033
             64  O 11  S      0.41392     0.57259
             65  O 11  X      0.61937     0.60342
             66  O 11  Y      0.67773     0.67783
             67  O 11  Z      0.77963     0.78369
             68  O 11  S      1.52124     1.04479
             69  O 11  X      0.79993     0.80491
             70  O 11  Y      0.89033     0.92064
             71  O 11  Z      0.97758     0.99457
             72  O 12  S      1.98618     1.98040
             73  O 12  S      0.41244     0.57269
             74  O 12  X      0.76548     0.76850
             75  O 12  Y      0.74853     0.74819
             76  O 12  Z      0.56556     0.55497
             77  O 12  S      1.52697     1.04830
             78  O 12  X      0.98588     0.97924
             79  O 12  Y      0.94716     0.94772
             80  O 12  Z      0.75328     0.81141
             81  O 13  S      1.98610     1.98034
             82  O 13  S      0.41402     0.57246
             83  O 13  X      0.54906     0.53524
             84  O 13  Y      0.69663     0.69013
             85  O 13  Z      0.83258     0.84071
             86  O 13  S      1.52240     1.04382
             87  O 13  X      0.72904     0.77871
             88  O 13  Y      0.90992     0.90835
             89  O 13  Z      1.03036     1.03417
             90  O 14  S      1.98620     1.98031
             91  O 14  S      0.41467     0.57277
             92  O 14  X      0.73806     0.73892
             93  O 14  Y      0.55317     0.53256
             94  O 14  Z      0.79552     0.80095
             95  O 14  S      1.52335     1.03417
             96  O 14  X      0.96503     0.97103
             97  O 14  Y      0.69862     0.72938
             98  O 14  Z      0.99560     1.00818
             99  O 15  S      1.98670     1.98094
            100  O 15  S      0.42876     0.58795
            101  O 15  X      0.62961     0.61076
            102  O 15  Y      0.67512     0.66861
            103  O 15  Z      0.75379     0.75185
            104  O 15  S      1.53777     1.02195
            105  O 15  X      0.75015     0.76175
            106  O 15  Y      0.85368     0.88625
            107  O 15  Z      0.94617     0.94705
            108  C 16  S      1.98766     1.97662
            109  C 16  S      0.46027     0.46199
            110  C 16  X      0.62970     0.60654
            111  C 16  Y      0.46132     0.43620
            112  C 16  Z      0.39952     0.37781
            113  C 16  S      0.53601     0.51002
            114  C 16  X      0.31076     0.44782
            115  C 16  Y      0.06975     0.36672
            116  C 16  Z      0.17475     0.37329
            117  H 17  S      0.38036     0.39287
            118  H 17  S      0.13469     0.26742
            119  O 18  S      1.98665     1.98056
            120  O 18  S      0.41026     0.57522
            121  O 18  X      0.58146     0.57689
            122  O 18  Y      0.67941     0.67991
            123  O 18  Z      0.81381     0.82110
            124  O 18  S      1.53560     1.01725
            125  O 18  X      0.77334     0.79387
            126  O 18  Y      0.88210     0.90597
            127  O 18  Z      0.98657     1.00185
            128  H 19  S      0.47079     0.48181
            129  H 19  S      0.27467     0.42001
            130  H 20  S      0.46985     0.48184
            131  H 20  S      0.24172     0.40580
            132  H 21  S      0.46810     0.48258
            133  H 21  S      0.25425     0.41244
            134  H 22  S      0.45450     0.46488
            135  H 22  S      0.21027     0.38741
            136  H 23  S      0.47966     0.49217
            137  H 23  S      0.28879     0.43576

          ----- MULLIKEN ATOMIC OVERLAP POPULATIONS -----
          (OFF-DIAGONAL ELEMENTS NEED TO BE MULTIPLIED BY 2)

             1           2           3           4           5

    1    5.4716912
    2    0.1457210   5.5203201
    3    0.1316506  -0.1060903   5.5983409
    4   -0.0548620   0.0757469  -0.0041708   5.6015035
    5   -0.0818291   0.0137982   0.0697496  -0.0766671   5.0522524
    6   -0.0558138   0.0061614  -0.0039499  -0.0001664   0.0008046
    7   -0.0084561  -0.0624717   0.0005035   0.0071191  -0.0000355
    8    0.0061828  -0.0002028  -0.0510533  -0.0000006  -0.0051262
    9   -0.0001633   0.0000196   0.0054905  -0.0001858  -0.0407103
   10   -0.0000165  -0.0001095   0.0000002  -0.0463559  -0.0000043
   11    0.2305593  -0.0441184  -0.0370836   0.0013479   0.0021255
   12   -0.0427409   0.2226706  -0.0030922  -0.0538256   0.0000195
   13   -0.0431600   0.0017795   0.2275046   0.0000831  -0.0349718
   14    0.0017227  -0.0000658  -0.0469162   0.0013498   0.2499533
   15    0.0000849   0.0054608   0.0000001  -0.0632296  -0.0000094
   16    0.0044570  -0.0831741  -0.0003654   0.1078870   0.0030993
   17    0.0000003  -0.0002257   0.0000001   0.0044496   0.0000008
   18   -0.0005803  -0.0354017  -0.0353560   0.2198508   0.1591780
   19    0.3573608  -0.0469966  -0.0497468   0.0019026  -0.0006366
   20   -0.0406590   0.3646061   0.0040545  -0.0562657  -0.0001570
   21   -0.0500407  -0.0023351   0.3460761   0.0000866  -0.0577233
   22   -0.0001169  -0.0445146  -0.0003600   0.3420564  -0.0023035
   23    0.0020100  -0.0007012  -0.0731189  -0.0027082   0.3488900

             6           7           8           9          10

    6    0.3362323
    7   -0.0009046   0.3246901
    8   -0.0004828  -0.0000005   0.3504000
    9    0.0000002   0.0000000  -0.0002492   0.3533660
   10   -0.0000000   0.0000023   0.0000000  -0.0000002   7.9876959
   11    0.2653368   0.0327517  -0.0000230   0.0000001   0.0000000
   12    0.0000737   0.2598625   0.0000021   0.0000001  -0.0001690
   13    0.0159844  -0.0000211   0.2675834  -0.0000122   0.0000000
   14   -0.0000023  -0.0000000   0.0095996   0.2658909  -0.0000000
   15    0.0000000  -0.0000064  -0.0000000   0.0000000  -0.0337070
   16    0.0000019  -0.0003878  -0.0000000  -0.0000035   0.2733351
   17    0.0000000   0.0000009   0.0000000   0.0000000  -0.0014954
   18   -0.0000025  -0.0000989   0.0000863   0.0016344  -0.0003840
   19   -0.0001222   0.0009120  -0.0001054   0.0000019   0.0000001
   20   -0.0000792  -0.0005688   0.0000013  -0.0000002   0.0000142
   21   -0.0005659   0.0013391  -0.0010697  -0.0001585  -0.0000002
   22   -0.0000010  -0.0000997   0.0000011  -0.0000079   0.0004069
   23   -0.0000137  -0.0000016   0.0000675  -0.0019399  -0.0000005

            11          12          13          14          15

   11    8.2493309
   12   -0.0063859   8.3170818
   13   -0.0022277   0.0000027   8.2605281
   14   -0.0000004   0.0000001  -0.0010313   8.2500512
   15   -0.0000000  -0.0005973  -0.0000000   0.0000000   8.1385571
   16   -0.0000151   0.0113628   0.0000003  -0.0000248   0.2537169
   17   -0.0000000  -0.0000116   0.0000000  -0.0000000   0.2548124
   18   -0.0000017   0.0003550   0.0002300  -0.0267528   0.0002515
   19   -0.0268024   0.0013643   0.0013832  -0.0000276   0.0000001
   20   -0.0000449  -0.0275062  -0.0000067   0.0000004   0.0047876
   21    0.0011202   0.0117095  -0.0261437   0.0018694   0.0000005
   22   -0.0000022   0.0013084   0.0000029  -0.0000272   0.0016264
   23   -0.0000195  -0.0000057   0.0026149  -0.0353654   0.0000007

            16          17          18          19          20

   16    4.5764649
   17   -0.0283520   0.2860172
   18   -0.0431691  -0.0000235   8.4737484
   19   -0.0001399  -0.0000000  -0.0000937   0.5001773
   20   -0.0030131  -0.0000404   0.0011244  -0.0010215   0.4622258
   21   -0.0001506  -0.0000000   0.0018391   0.0037265   0.0002516
   22   -0.0414962  -0.0000916  -0.0271053   0.0009413   0.0038584
   23   -0.0002987  -0.0000000  -0.0401376   0.0033784   0.0000010

            21          22          23

   21    0.4880343
   22    0.0001537   0.4255807
   23    0.0043379   0.0049694   0.5564952

          TOTAL MULLIKEN AND LOWDIN ATOMIC POPULATIONS
       ATOM         MULL.POP.    CHARGE          LOW.POP.     CHARGE
    1 C             5.973002    0.026998         5.943561    0.056439
    2 C             5.929877    0.070123         5.934204    0.065796
    3 C             5.972068    0.027932         5.975688    0.024312
    4 C             6.004945   -0.004945         5.937974    0.062026
    5 C             5.599697    0.400303         5.758555    0.241445
    6 H             0.562491    0.437509         0.708111    0.291889
    7 H             0.554129    0.445871         0.707340    0.292660
    8 H             0.575610    0.424390         0.714307    0.285693
    9 H             0.582973    0.417027         0.715117    0.284883
   10 O             8.179212   -0.179212         7.807007    0.192993
   11 O             8.665848   -0.665848         8.382770   -0.382770
   12 O             8.691479   -0.691479         8.411430   -0.411430
   13 O             8.670122   -0.670122         8.383945   -0.383945
   14 O             8.670224   -0.670224         8.368275   -0.368275
   15 O             8.561749   -0.561749         8.217113   -0.217113
   16 C             5.029735    0.970265         5.557016    0.442984
   17 H             0.515041    0.484959         0.660284    0.339716
   18 O             8.649191   -0.649191         8.352615   -0.352615
   19 H             0.745456    0.254544         0.901824    0.098176
   20 H             0.711563    0.288437         0.887635    0.112365
   21 H             0.722357    0.277643         0.895022    0.104978
   22 H             0.664779    0.335221         0.852284    0.147716
   23 H             0.768454    0.231546         0.927920    0.072080

          -------------------------------
          BOND ORDER AND VALENCE ANALYSIS     BOND ORDER THRESHOLD=0.050
          -------------------------------

                   BOND                       BOND                       BOND
  ATOM PAIR DIST  ORDER      ATOM PAIR DIST  ORDER      ATOM PAIR DIST  ORDER
    1   2  1.531  0.861        1   3  1.516  0.863        1  11  1.464  0.897
    1  19  1.097  0.871        2   4  1.542  0.796        2  12  1.450  0.903
    2  20  1.096  0.852        3   5  1.514  0.825        3  13  1.452  0.900
    3  21  1.095  0.847        4  16  1.518  0.820        4  18  1.456  0.882
    4  22  1.100  0.817        5  14  1.424  0.931        5  18  1.453  0.732
    5  23  1.104  0.856        6  11  0.999  0.750        7  11  1.987  0.063
    7  12  1.004  0.722        8  13  0.996  0.770        9  14  0.995  0.781
   10  15  2.299  0.077       10  16  1.215  1.220       15  16  1.385  1.100
   15  17  0.997  0.725

                       TOTAL       BONDED        FREE
      ATOM            VALENCE     VALENCE     VALENCE
    1 C                 3.476       3.476       0.000
    2 C                 3.398       3.398       0.000
    3 C                 3.435       3.435       0.000
    4 C                 3.338       3.329       0.009
    5 C                 3.359       3.359       0.000
    6 H                 0.797       0.797       0.000
    7 H                 0.798       0.798       0.000
    8 H                 0.803       0.803       0.000
    9 H                 0.808       0.808       0.000
   10 O                 2.162       1.333       0.829
   11 O                 1.782       1.782       0.000
   12 O                 1.732       1.732       0.000
   13 O                 1.765       1.765       0.000
   14 O                 1.778       1.778       0.000
   15 O                 1.944       1.927       0.016
   16 C                 3.200       3.179       0.020
   17 H                 0.750       0.750       0.000
   18 O                 1.731       1.731       0.000
   19 H                 0.890       0.890       0.000
   20 H                 0.874       0.874       0.000
   21 H                 0.888       0.888       0.000
   22 H                 0.844       0.844       0.000
   23 H                 0.890       0.890       0.000

          -----------------------------------------
          ATOMIC SPIN DENSITY AT THE NUCLEUS (A.U.)
          -----------------------------------------
                            SPIN DENS    ALPHA DENS     BETA DENS
    1  C            6.0     0.0040770      47.07712      47.07304
    2  C            6.0    -0.0041110      47.07630      47.08041
    3  C            6.0    -0.0003938      47.07912      47.07952
    4  C            6.0     0.0309651      47.09851      47.06755
    5  C            6.0     0.0006220      47.01408      47.01346
    6  H            1.0     0.0001626       0.15663       0.15647
    7  H            1.0    -0.0001154       0.15209       0.15220
    8  H            1.0     0.0000018       0.15952       0.15952
    9  H            1.0    -0.0000011       0.16032       0.16032
   10  O            8.0     0.2202762     117.27151     117.05123
   11  O            8.0     0.0010452     116.74527     116.74423
   12  O            8.0    -0.0011130     116.75502     116.75613
   13  O            8.0     0.0000439     116.74611     116.74607
   14  O            8.0    -0.0001544     116.75371     116.75387
   15  O            8.0    -0.0151289     116.85994     116.87506
   16  C            6.0    -0.0974202      46.98300      47.08042
   17  H            1.0    -0.0025606       0.15135       0.15391
   18  O            8.0    -0.0020909     116.81891     116.82100
   19  H            1.0    -0.0001919       0.18430       0.18449
   20  H            1.0     0.0001166       0.18413       0.18402
   21  H            1.0     0.0000267       0.18406       0.18403
   22  H            1.0    -0.0010681       0.17705       0.17812
   23  H            1.0     0.0000106       0.18725       0.18724

          ---------------------
          ELECTROSTATIC MOMENTS
          ---------------------

 POINT   1           X           Y           Z (BOHR)    CHARGE
                 0.081719    0.058456    0.010187        1.00 (A.U.)
         DX          DY          DZ         /D/  (DEBYE)
     8.185483    2.297247    2.727835    8.928637
 ...... END OF PROPERTY EVALUATION ......
 CPU     0: STEP CPU TIME=     0.08 TOTAL CPU TIME=          5.3 (      0.1 MIN)
 TOTAL WALL CLOCK TIME=         11.5 SECONDS, CPU UTILIZATION IS    46.48%
               580000  WORDS OF DYNAMIC MEMORY USED
 EXECUTION OF GAMESS TERMINATED NORMALLY Fri May 22 16:51:39 2020
 DDI: 263640 bytes (0.3 MB / 0 MWords) used by master data server.
Note: The following floating-point exceptions are signalling: IEEE_DENORMALNote: The following floating-point exceptions are signalling: IEEE_DENORMALNote: The following floating-point exceptions are signalling:Note: The following floating-point exceptions are signalling: IEEE_DENORMAL
Note: The following floating-point exceptions are signalling: IEEE_DENORMALNote: The following floating-point exceptions are signalling:
 ----------------------------------------
 CPU timing information for all processes
 ========================================
 0: 5.183 + 0.174 = 5.357
 1: 5.97 + 0.27 = 5.125
 2: 4.741 + 0.36 = 4.778
 3: 5.87 + 0.31 = 5.118
 4: 5.68 + 0.31 = 5.100
 5: 4.802 + 0.51 = 4.854
 6: 4.945 + 0.47 = 4.992
 7: 4.949 + 0.40 = 4.989
 ----------------------------------------

 IEEE_DENORMAL


 IEEE_DENORMAL
Note: The following floating-point exceptions are signalling: IEEE_DENORMALNote: The following floating-point exceptions are signalling: IEEE_DENORMAL

 ddikick.x: exited gracefully.
unset echo
----- accounting info -----
Files used on the master node pietdev were:
-rwxr-xr-x 1 piet piet     1404 mei 22 16:51 /home/piet/scr/galacturonic_acid_fukui_base.F05*
-rw-r--r-- 1 piet piet 68812800 mei 22 16:51 /home/piet/scr/galacturonic_acid_fukui_base.F10
ls: No match.
ls: No match.
ls: No match.
vr 22 mei 2020 16:51:42 CEST
0.129u 0.024s 0:14.69 0.9%	0+0k 0+8io 0pf+0w
