----- GAMESS execution script 'rungms' -----
This job is running on host pietdev
under operating system Linux at vr 22 mei 2020 16:51:28 CEST
Available scratch disk space (Kbyte units) at beginning of the job is
Filesystem     1K-blocks     Used Available Use% Mounted on
/dev/sda2      244568380 31372960 200702364  14% /
GAMESS temporary binary files will be written to /home/piet/scr
GAMESS supplementary output files will be written to /home/piet/gamess/scr
Copying input file galacturonic_acid_fukui_acid.inp to your run's scratch directory...
cp galacturonic_acid_fukui_acid.inp /home/piet/scr/galacturonic_acid_fukui_acid.F05
unset echo
 
Assuming a single but multicore node.
 
/home/piet/gamess/ddikick.x /home/piet/gamess/gamess.03.x galacturonic_acid_fukui_acid -ddi 1 8 pietdev:cpus=8 -scr /home/piet/scr

 Distributed Data Interface kickoff program.
 Initiating 8 compute processes on 1 nodes to run the following command:
 /home/piet/gamess/gamess.03.x galacturonic_acid_fukui_acid 

          ******************************************************
          *         GAMESS VERSION = 30 SEP 2019 (R2)          *
          *             FROM IOWA STATE UNIVERSITY             *
          * M.W.SCHMIDT, K.K.BALDRIDGE, J.A.BOATZ, S.T.ELBERT, *
          *   M.S.GORDON, J.H.JENSEN, S.KOSEKI, N.MATSUNAGA,   *
          *          K.A.NGUYEN, S.J.SU, T.L.WINDUS,           *
          *       TOGETHER WITH M.DUPUIS, J.A.MONTGOMERY       *
          *         J.COMPUT.CHEM.  14, 1347-1363(1993)        *
          **************** 64 BIT LINUX VERSION ****************

  SINCE 1993, STUDENTS AND POSTDOCS WORKING AT IOWA STATE UNIVERSITY
  AND ALSO IN THEIR VARIOUS JOBS AFTER LEAVING ISU HAVE MADE IMPORTANT
  CONTRIBUTIONS TO THE CODE:
     IVANA ADAMOVIC, CHRISTINE AIKENS, YURI ALEXEEV, POOJA ARORA,
     ANDREY ASADCHEV, ROB BELL, PRADIPTA BANDYOPADHYAY, JONATHAN BENTZ,
     COLLEEN BERTONI, BRETT BODE, KURT BRORSEN, CALEB CARLIN, GALINA CHABAN,
     WEI CHEN, CHEOL HO CHOI, PAUL DAY, ALBERT DEFUSCO, NUWAN DESILVA,
     TIM DUDLEY, DMITRI FEDOROV, ALEX FINDLATER, GRAHAM FLETCHER, 
     MARK FREITAG, KURT GLAESEMANN, EMILIE B GUIDEZ, ANASTASIA GUNINA, 
     DAN KEMP, SAROM SOK LEANG, GRANT MERRILL,
     NORIYUKI MINEZAWA, JONATHAN MULLIN,
     TAKESHI NAGATA, SEAN NEDD, HEATHER NETZLOFF, BOSILJKA NJEGIC, RYAN OLSON,
     MIKE PAK, BUU PHAM, DAVID POOLE,
     SPENCER PRUITT, LUKE ROSKOP, TOSAPORN SATTASATHUCHANA,
     JIM SHOEMAKER, LYUDMILA SLIPCHENKO,
     TONY SMITH, JIE SONG, TETSUYA TAKETSUGU, SIMON WEBB,
     JORGE LUIS GALVEZ VALLEJO, PENG XU, SOOHAENG YOO,
     FEDERICO ZAHARIEV

  ADDITIONAL CODE HAS BEEN PROVIDED BY COLLABORATORS IN OTHER GROUPS:
     IOWA STATE UNIVERSITY:
          JOE IVANIC, AARON WEST, LAIMUTIS BYTAUTAS, KLAUS RUEDENBERG
     UNIVERSITY OF TOKYO: KIMIHIKO HIRAO, TAKAHITO NAKAJIMA,
          TAKAO TSUNEDA, MUNEAKI KAMIYA, SUSUMU YANAGISAWA,
          KIYOSHI YAGI, MAHITO CHIBA, SEIKEN TOKURA, NAOAKI KAWAKAMI
     UNIVERSITY OF AARHUS: FRANK JENSEN
     UNIVERSITY OF IOWA: VISVALDAS KAIRYS, HUI LI
     NATIONAL INST. OF STANDARDS AND TECHNOLOGY: WALT STEVENS, DAVID GARMER
     UNIVERSITY OF PISA: BENEDETTA MENNUCCI, JACOPO TOMASI
     UNIVERSITY OF MEMPHIS: HENRY KURTZ, PRAKASHAN KORAMBATH
     UNIVERSITY OF ALBERTA: TOBY ZENG, MARIUSZ KLOBUKOWSKI
     UNIVERSITY OF NEW ENGLAND: MARK SPACKMAN
     MIE UNIVERSITY: HIROAKI UMEDA
     NAT. INST. OF ADVANCED INDUSTRIAL SCIENCE AND TECHNOLOGY: KAZUO KITAURA
     MICHIGAN STATE UNIVERSITY:
          KAROL KOWALSKI, MARTA WLOCH, JEFFREY GOUR, JESSE LUTZ,
          WEI LI, JUN SHEN, J. EMILIANO DEUSTUA, PIOTR PIECUCH
     UNIVERSITY OF MINNESOTA:
          ANDREW SAND, PRACHI SHARMA, YINAN SHU
     UNIVERSITY OF SILESIA: MONIKA MUSIAL, STANISLAW KUCHARSKI
     FACULTES UNIVERSITAIRES NOTRE-DAME DE LA PAIX:
          OLIVIER QUINET, BENOIT CHAMPAGNE
     UNIVERSITY OF CALIFORNIA - SANTA BARBARA: BERNARD KIRTMAN
     INSTITUTE FOR MOLECULAR SCIENCE:
          KAZUYA ISHIMURA, MICHIO KATOUDA, AND SHIGERU NAGASE
     UNIVERSITY OF NOTRE DAME: ANNA POMOGAEVA, DAN CHIPMAN
     KYUSHU UNIVERSITY:
          HARUYUKI NAKANO,
          FENG LONG GU, JACEK KORCHOWIEC, MARCIN MAKOWSKI, AND YURIKO AOKI,
          HIROTOSHI MORI AND EISAKU MIYOSHI
     PENNSYLVANIA STATE UNIVERSITY:
          TZVETELIN IORDANOV, CHET SWALINA, JONATHAN SKONE,
          SHARON HAMMES-SCHIFFER
     WASEDA UNIVERSITY:
          MASATO KOBAYASHI, TOMOKO AKAMA, TSUGUKI TOUMA,
          TAKESHI YOSHIKAWA, YASUHIRO IKABATA, JUNJI SEINO,
          YUYA NAKAJIMA, HIROMI NAKAI
     NANJING UNIVERSITY: SHUHUA LI
     UNIVERSITY OF NEBRASKA:
          PEIFENG SU, DEJUN SI, NANDUN THELLAMUREGE, YALI WANG, HUI LI
     UNIVERSITY OF ZURICH: ROBERTO PEVERATI, KIM BALDRIDGE
     N. COPERNICUS UNIVERSITY AND JACKSON STATE UNIVERSITY:
          MARIA BARYSZ
     UNIVERSITY OF COPENHAGEN: Jimmy Kromann, CASPER STEINMANN
     TOKYO INSTITUTE OF TECHNOLOGY: HIROYA NAKATA
     NAGOYA UNIVERSITY: YOSHIO NISHIMOTO, STEPHAN IRLE
     MOSCOW STATE UNIVERSITY: VLADIMIR MIRONOV
     A.N.NESMEYANOV INSTITUTE OF ORGANOELEMENT COMPOUNDS OF RUSSIAN ACADEMY OF SCIENCES:
          IGOR S. GERASIMOV
     JOHANNES KEPLER UNIVERSITY LINZ:
          CHRISTIAN FRIEDL


 PARALLEL VERSION RUNNING ON        8 PROCESSORS IN        1 NODES.

 EXECUTION OF GAMESS BEGUN Fri May 22 16:51:28 2020

            ECHO OF THE FIRST FEW INPUT CARDS -
 INPUT CARD> $BASIS GBASIS=N21 NGAUSS=3 $END                                                
 INPUT CARD> $CONTRL SCFTYP=UHF MAXIT=60 MULT=2 ICHARG=-1 $END                              
 INPUT CARD> $SYSTEM MEMDDI=1000 MWORDS=30 $END                                             
 INPUT CARD> $SCF DIRSCF=.TRUE. $END                                                        
 INPUT CARD> $STATPT OPTTOL=0.0001 NSTEP=999 $END                                           
 INPUT CARD> $DATA                                                                          
 INPUT CARD>                                                                                
 INPUT CARD>C1                                                                              
 INPUT CARD>C 6.0000000 -1.0090558167 -1.1779449064 0.4938329242                            
 INPUT CARD>C 6.0000000 0.5005225082 -1.1004598835 0.2479007225                             
 INPUT CARD>C 6.0000000 -1.6614737606 0.0278418425 -0.1537169394                            
 INPUT CARD>C 6.0000000 1.0487191510 0.2815668951 0.6578644057                              
 INPUT CARD>C 6.0000000 -1.1332661971 1.3035047895 0.4678279559                             
 INPUT CARD>H 1.0000000 -2.4418902546 -2.2247372808 -0.3566429470                           
 INPUT CARD>H 1.0000000 0.0570864712 -1.9841742678 -1.4171839684                            
 INPUT CARD>H 1.0000000 -3.5171413176 0.6770645853 -0.3420350232                            
 INPUT CARD>H 1.0000000 -1.3845158091 3.2236418351 0.0486707048                             
 INPUT CARD>O 8.0000000 2.8632695894 1.2898020549 -0.6775496352                             
 INPUT CARD>O 8.0000000 -1.4666312338 -2.3798134269 -0.2047553139                           
 INPUT CARD>O 8.0000000 0.7200631083 -1.2700308148 -1.1756907853                            
 INPUT CARD>O 8.0000000 -3.0922850255 -0.1452972812 0.0247291204                            
 INPUT CARD>O 8.0000000 -1.8333026120 2.3644689091 -0.1739046934                            
 INPUT CARD>O 8.0000000 3.2196895632 -0.5796756285 0.6113042525                             
 INPUT CARD>C 6.0000000 2.4449368149 0.4408375999 0.0848904869                              
 INPUT CARD>H 1.0000000 4.1262527098 -0.5357002541 0.1994041575                             
 INPUT CARD>O 8.0000000 0.2793729831 1.4060870567 0.1449208113                              
 INPUT CARD>H 1.0000000 -1.2504648208 -1.2084131615 1.5638914452                            
 INPUT CARD>H 1.0000000 1.0336041190 -1.8538584833 0.8398391034                             
 INPUT CARD>H 1.0000000 -1.3556838378 0.0509402210 -1.2052812257                            
 INPUT CARD>H 1.0000000 1.1122682435 0.3045458264 1.7562109580                              
 INPUT CARD>H 1.0000000 -1.2739744761 1.3014037734 1.5629730833                             
 INPUT CARD> $END                                                                           
   30000000 WORDS OF MEMORY AVAILABLE

     BASIS OPTIONS
     -------------
     GBASIS=N21          IGAUSS=       3      POLAR=NONE    
     NDFUNC=       0     NFFUNC=       0     DIFFSP=       F
     NPFUNC=       0      DIFFS=       F     BASNAM=        


     RUN TITLE
     ---------
                                                                                 

 THE POINT GROUP OF THE MOLECULE IS C1      
 THE ORDER OF THE PRINCIPAL AXIS IS     0

 ATOM      ATOMIC                      COORDINATES (BOHR)
           CHARGE         X                   Y                   Z
 C           6.0    -1.9068389999       -2.2259931017        0.9332089105
 C           6.0     0.9458503912       -2.0795676403        0.4684644377
 C           6.0    -3.1397301433        0.0526134533       -0.2904828951
 C           6.0     1.9817918335        0.5320842790        1.2431834638
 C           6.0    -2.1415625837        2.4632668758        0.8840666460
 H           1.0    -4.6145034733       -4.2041438554       -0.6739574453
 H           1.0     0.1078777882       -3.7495456780       -2.6780893745
 H           1.0    -6.6464333504        1.2794665422       -0.6463524721
 H           1.0    -2.6163555049        6.0917997509        0.0919742957
 O           8.0     5.4107949529        2.4373724622       -1.2803831536
 O           8.0    -2.7715311569       -4.4971952787       -0.3869314378
 O           8.0     1.3607219686       -2.4000102359       -2.2217334305
 O           8.0    -5.8435713741       -0.2745720482        0.0467312615
 O           8.0    -3.4644395893        4.4681983447       -0.3286322185
 O           8.0     6.0843310400       -1.0954280996        1.1551975324
 C           6.0     4.6202606375        0.8330622689        0.1604197592
 H           1.0     7.7974869776       -1.0123266918        0.3768192185
 O           8.0     0.5279383864        2.6571192520        0.2738606233
 H           1.0    -2.3630358686       -2.2835697552        2.9553263060
 H           1.0     1.9532285647       -3.5032845535        1.5870657792
 H           1.0    -2.5618709794        0.0962630594       -2.2776512547
 H           1.0     2.1018822051        0.5755081626        3.3187574873
 H           1.0    -2.4074626752        2.4592965311        2.9535908536

          INTERNUCLEAR DISTANCES (ANGS.)
          ------------------------------

                1 C          2 C          3 C          4 C          5 C     

   1 C       0.0000000    1.5314416 *  1.5162096 *  2.5281453 *  2.4846926 *
   2 C       1.5314416 *  0.0000000    2.4715561 *  1.5422671 *  2.9149065 *
   3 C       1.5162096 *  2.4715561 *  0.0000000    2.8404553 *  1.5141457 *
   4 C       2.5281453 *  1.5422671 *  2.8404553 *  0.0000000    2.4169259 *
   5 C       2.4846926 *  2.9149065 *  1.5141457 *  2.4169259 *  0.0000000  
   6 H       1.9677647 *  3.2073767    2.3925596 *  4.4153301    3.8523683  
   7 H       2.3320915 *  1.9365159 *  2.9322358 *  3.2284275    3.9722844  
   8 H       3.2295864    4.4327463    1.9749572 *  4.6907674    2.5944491 *
   9 H       4.4399443    4.7213258    3.2141568    3.8662067    1.9813494 *
  10 O       4.7388623    3.4860270    4.7265470    2.4682913 *  4.1574482  
  11 O       1.4635193 *  2.3898403 *  2.4160655 *  3.7621863    3.7590336  
  12 O       2.4053360 *  1.4503672 *  2.8983826 *  2.4243339 *  3.5719839  
  13 O       2.3719746 *  3.7242995    1.4522538 *  4.2108181    2.4765134 *
  14 O       3.6978307    4.1988559    2.3430234 *  3.6518995    1.4239089 *
  15 O       4.2724715    2.7923373 *  4.9779605    2.3360263 *  4.7450161  
  16 C       3.8363727    2.4865473 *  4.1340182    1.5175935 *  3.7005908  
  17 H       5.1836821    3.6697718    5.8258091    3.2170366    5.5782852  
  18 O       2.9084377 *  2.5183903 *  2.3990895 *  1.4558675 *  1.4527015 *
  19 H       1.0973750 *  2.1930440 *  2.1557907 *  2.8856841 *  2.7431410 *
  20 H       2.1792290 *  1.0964381 *  3.4338600    2.1432183 *  3.8474228  
  21 H       2.1253937 *  2.6235400 *  1.0953668 *  3.0505170    2.1018282 *
  22 H       2.8794779 *  2.1501799 *  3.3790582    1.1004234 *  2.7749369 *
  23 H       2.7130080 *  3.2630053    2.1723582 *  2.6933612 *  1.1041495 *

                6 H          7 H          8 H          9 H         10 O     

   1 C       1.9677647 *  2.3320915 *  3.2295864    4.4399443    4.7388623  
   2 C       3.2073767    1.9365159 *  4.4327463    4.7213258    3.4860270  
   3 C       2.3925596 *  2.9322358 *  1.9749572 *  3.2141568    4.7265470  
   4 C       4.4153301    3.2284275    4.6907674    3.8662067    2.4682913 *
   5 C       3.8523683    3.9722844    2.5944491 *  1.9813494 *  4.1574482  
   6 H       0.0000000    2.7253445 *  3.0946457    5.5648140    6.3717885  
   7 H       2.7253445 *  0.0000000    4.5840203    5.5989549    4.3750021  
   8 H       3.0946457    4.5840203    0.0000000    3.3445176    6.4185404  
   9 H       5.5648140    5.5989549    3.3445176    0.0000000    4.7234323  
  10 O       6.3717885    4.3750021    6.4185404    4.7234323    0.0000000  
  11 O       0.9991239 *  1.9870152 *  3.6834685    5.6097842    5.6954063  
  12 O       3.4029771    1.0039212 *  4.7370944    5.1109106    3.3755330  
  13 O       2.2119061 *  3.9216225    0.9956394 *  3.7771417    6.1661444  
  14 O       4.6329888    4.9020416    2.3897519 *  0.9945489 *  4.8442087  
  15 O       5.9746662    4.0111643    6.9190420    5.9983737    2.2985052 *
  16 C       5.5840236    3.7200456    5.9820100    4.7339221    1.2153427 *
  17 H       6.8045967    4.6118920    7.7579267    6.6726264    2.3867620 *
  18 O       4.5650548    3.7394457    3.8964241    2.4660283 *  2.7141300 *
  19 H       2.4780762 *  3.3463871    3.5107555    4.6858270    5.3092324  
  20 H       3.6943445    2.4626656 *  5.3396331    5.6792835    3.9411605  
  21 H       2.6605900 *  2.4864661 *  2.4102125 *  3.4116363    4.4286394  
  22 H       4.8470060    4.0524170    5.0963555    4.2036586    3.1559351  
  23 H       4.1812228    4.6312074    3.0084303    2.4495572 *  4.7049830  

               11 O         12 O         13 O         14 O         15 O     

   1 C       1.4635193 *  2.4053360 *  2.3719746 *  3.6978307    4.2724715  
   2 C       2.3898403 *  1.4503672 *  3.7242995    4.1988559    2.7923373 *
   3 C       2.4160655 *  2.8983826 *  1.4522538 *  2.3430234 *  4.9779605  
   4 C       3.7621863    2.4243339 *  4.2108181    3.6518995    2.3360263 *
   5 C       3.7590336    3.5719839    2.4765134 *  1.4239089 *  4.7450161  
   6 H       0.9991239 *  3.4029771    2.2119061 *  4.6329888    5.9746662  
   7 H       1.9870152 *  1.0039212 *  3.9216225    4.9020416    4.0111643  
   8 H       3.6834685    4.7370944    0.9956394 *  2.3897519 *  6.9190420  
   9 H       5.6097842    5.1109106    3.7771417    0.9945489 *  5.9983737  
  10 O       5.6954063    3.3755330    6.1661444    4.8442087    2.2985052 *
  11 O       0.0000000    2.6374164 *  2.7728101 *  4.7585307    5.0860645  
  12 O       2.6374164 *  0.0000000    4.1521117    4.5533329    3.1492974  
  13 O       2.7728101 *  4.1521117    0.0000000    2.8148567 *  6.3540364  
  14 O       4.7585307    4.5533329    2.8148567 *  0.0000000    5.9006161  
  15 O       5.0860645    3.1492974    6.3540364    5.9006161    0.0000000  
  16 C       4.8311832    2.7370285 *  5.5684827    4.6979426    1.3852078 *
  17 H       5.9029187    3.7459652    7.2311972    6.6382709    0.9967208 *
  18 O       4.1837599    3.0165924    3.7133970    2.3416967 *  3.5785791  
  19 H       2.1323738 *  3.3752167    2.6251738 *  4.0156097    4.6135684  
  20 H       2.7602505 *  2.1216794 *  4.5394435    5.2001074    2.5406180 *
  21 H       2.6309551 *  2.4606027 *  2.1371051 *  2.5776486 *  4.9630334  
  22 H       4.2073621    3.3509945    4.5693168    4.0798305    2.5561462 *
  23 H       4.0881952    4.2530861    2.7866452 *  2.1118001 *  4.9635824  

               16 C         17 H         18 O         19 H         20 H     

   1 C       3.8363727    5.1836821    2.9084377 *  1.0973750 *  2.1792290 *
   2 C       2.4865473 *  3.6697718    2.5183903 *  2.1930440 *  1.0964381 *
   3 C       4.1340182    5.8258091    2.3990895 *  2.1557907 *  3.4338600  
   4 C       1.5175935 *  3.2170366    1.4558675 *  2.8856841 *  2.1432183 *
   5 C       3.7005908    5.5782852    1.4527015 *  2.7431410 *  3.8474228  
   6 H       5.5840236    6.8045967    4.5650548    2.4780762 *  3.6943445  
   7 H       3.7200456    4.6118920    3.7394457    3.3463871    2.4626656 *
   8 H       5.9820100    7.7579267    3.8964241    3.5107555    5.3396331  
   9 H       4.7339221    6.6726264    2.4660283 *  4.6858270    5.6792835  
  10 O       1.2153427 *  2.3867620 *  2.7141300 *  5.3092324    3.9411605  
  11 O       4.8311832    5.9029187    4.1837599    2.1323738 *  2.7602505 *
  12 O       2.7370285 *  3.7459652    3.0165924    3.3752167    2.1216794 *
  13 O       5.5684827    7.2311972    3.7133970    2.6251738 *  4.5394435  
  14 O       4.6979426    6.6382709    2.3416967 *  4.0156097    5.2001074  
  15 O       1.3852078 *  0.9967208 *  3.5785791    4.6135684    2.5406180 *
  16 C       0.0000000    1.9477070 *  2.3717034 *  4.3085340    2.7977558 *
  17 H       1.9477070 *  0.0000000    4.3095232    5.5877956    3.4223053  
  18 O       2.3717034 *  4.3095232    0.0000000    3.3450699    3.4174583  
  19 H       4.3085340    5.5877956    3.3450699    0.0000000    2.4814960 *
  20 H       2.7977558 *  3.4223053    3.4174583    2.4814960 *  0.0000000  
  21 H       4.0325278    5.6893687    2.5165213 *  3.0439053    3.6768835  
  22 H       2.1419368 *  3.4948195    2.1221130 *  2.8122125 *  2.3461958 *
  23 H       4.0933609    5.8648721    2.1058773 *  2.5099272 *  3.9753643  

               21 H         22 H         23 H     

   1 C       2.1253937 *  2.8794779 *  2.7130080 *
   2 C       2.6235400 *  2.1501799 *  3.2630053  
   3 C       1.0953668 *  3.3790582    2.1723582 *
   4 C       3.0505170    1.1004234 *  2.6933612 *
   5 C       2.1018282 *  2.7749369 *  1.1041495 *
   6 H       2.6605900 *  4.8470060    4.1812228  
   7 H       2.4864661 *  4.0524170    4.6312074  
   8 H       2.4102125 *  5.0963555    3.0084303  
   9 H       3.4116363    4.2036586    2.4495572 *
  10 O       4.4286394    3.1559351    4.7049830  
  11 O       2.6309551 *  4.2073621    4.0881952  
  12 O       2.4606027 *  3.3509945    4.2530861  
  13 O       2.1371051 *  4.5693168    2.7866452 *
  14 O       2.5776486 *  4.0798305    2.1118001 *
  15 O       4.9630334    2.5561462 *  4.9635824  
  16 C       4.0325278    2.1419368 *  4.0933609  
  17 H       5.6893687    3.4948195    5.8648721  
  18 O       2.5165213 *  2.1221130 *  2.1058773 *
  19 H       3.0439053    2.8122125 *  2.5099272 *
  20 H       3.6768835    2.3461958 *  3.9753643  
  21 H       0.0000000    3.8633585    3.0386786  
  22 H       3.8633585    0.0000000    2.5933031 *
  23 H       3.0386786    2.5933031 *  0.0000000  

  * ... LESS THAN  3.000


     ATOMIC BASIS SET
     ----------------
 THE CONTRACTED PRIMITIVE FUNCTIONS HAVE BEEN UNNORMALIZED
 THE CONTRACTED BASIS FUNCTIONS ARE NOW NORMALIZED TO UNITY

  SHELL TYPE  PRIMITIVE        EXPONENT          CONTRACTION COEFFICIENT(S)

 C         

      1   S       1           172.2560000    0.061766907377
      1   S       2            25.9109000    0.358794042852
      1   S       3             5.5333500    0.700713083689

      2   L       4             3.6649800   -0.395895162119    0.236459946619
      2   L       5             0.7705450    1.215834355681    0.860618805716

      3   L       6             0.1958570    1.000000000000    1.000000000000

 C         

      4   S       7           172.2560000    0.061766907377
      4   S       8            25.9109000    0.358794042852
      4   S       9             5.5333500    0.700713083689

      5   L      10             3.6649800   -0.395895162119    0.236459946619
      5   L      11             0.7705450    1.215834355681    0.860618805716

      6   L      12             0.1958570    1.000000000000    1.000000000000

 C         

      7   S      13           172.2560000    0.061766907377
      7   S      14            25.9109000    0.358794042852
      7   S      15             5.5333500    0.700713083689

      8   L      16             3.6649800   -0.395895162119    0.236459946619
      8   L      17             0.7705450    1.215834355681    0.860618805716

      9   L      18             0.1958570    1.000000000000    1.000000000000

 C         

     10   S      19           172.2560000    0.061766907377
     10   S      20            25.9109000    0.358794042852
     10   S      21             5.5333500    0.700713083689

     11   L      22             3.6649800   -0.395895162119    0.236459946619
     11   L      23             0.7705450    1.215834355681    0.860618805716

     12   L      24             0.1958570    1.000000000000    1.000000000000

 C         

     13   S      25           172.2560000    0.061766907377
     13   S      26            25.9109000    0.358794042852
     13   S      27             5.5333500    0.700713083689

     14   L      28             3.6649800   -0.395895162119    0.236459946619
     14   L      29             0.7705450    1.215834355681    0.860618805716

     15   L      30             0.1958570    1.000000000000    1.000000000000

 H         

     16   S      31             5.4471780    0.156284978695
     16   S      32             0.8245472    0.904690876670

     17   S      33             0.1831916    1.000000000000

 H         

     18   S      34             5.4471780    0.156284978695
     18   S      35             0.8245472    0.904690876670

     19   S      36             0.1831916    1.000000000000

 H         

     20   S      37             5.4471780    0.156284978695
     20   S      38             0.8245472    0.904690876670

     21   S      39             0.1831916    1.000000000000

 H         

     22   S      40             5.4471780    0.156284978695
     22   S      41             0.8245472    0.904690876670

     23   S      42             0.1831916    1.000000000000

 O         

     24   S      43           322.0370000    0.059239393389
     24   S      44            48.4308000    0.351499960776
     24   S      45            10.4206000    0.707657921031

     25   L      46             7.4029400   -0.404453583190    0.244586106967
     25   L      47             1.5762000    1.221561761397    0.853955373466

     26   L      48             0.3736840    1.000000000000    1.000000000000

 O         

     27   S      49           322.0370000    0.059239393389
     27   S      50            48.4308000    0.351499960776
     27   S      51            10.4206000    0.707657921031

     28   L      52             7.4029400   -0.404453583190    0.244586106967
     28   L      53             1.5762000    1.221561761397    0.853955373466

     29   L      54             0.3736840    1.000000000000    1.000000000000

 O         

     30   S      55           322.0370000    0.059239393389
     30   S      56            48.4308000    0.351499960776
     30   S      57            10.4206000    0.707657921031

     31   L      58             7.4029400   -0.404453583190    0.244586106967
     31   L      59             1.5762000    1.221561761397    0.853955373466

     32   L      60             0.3736840    1.000000000000    1.000000000000

 O         

     33   S      61           322.0370000    0.059239393389
     33   S      62            48.4308000    0.351499960776
     33   S      63            10.4206000    0.707657921031

     34   L      64             7.4029400   -0.404453583190    0.244586106967
     34   L      65             1.5762000    1.221561761397    0.853955373466

     35   L      66             0.3736840    1.000000000000    1.000000000000

 O         

     36   S      67           322.0370000    0.059239393389
     36   S      68            48.4308000    0.351499960776
     36   S      69            10.4206000    0.707657921031

     37   L      70             7.4029400   -0.404453583190    0.244586106967
     37   L      71             1.5762000    1.221561761397    0.853955373466

     38   L      72             0.3736840    1.000000000000    1.000000000000

 O         

     39   S      73           322.0370000    0.059239393389
     39   S      74            48.4308000    0.351499960776
     39   S      75            10.4206000    0.707657921031

     40   L      76             7.4029400   -0.404453583190    0.244586106967
     40   L      77             1.5762000    1.221561761397    0.853955373466

     41   L      78             0.3736840    1.000000000000    1.000000000000

 C         

     42   S      79           172.2560000    0.061766907377
     42   S      80            25.9109000    0.358794042852
     42   S      81             5.5333500    0.700713083689

     43   L      82             3.6649800   -0.395895162119    0.236459946619
     43   L      83             0.7705450    1.215834355681    0.860618805716

     44   L      84             0.1958570    1.000000000000    1.000000000000

 H         

     45   S      85             5.4471780    0.156284978695
     45   S      86             0.8245472    0.904690876670

     46   S      87             0.1831916    1.000000000000

 O         

     47   S      88           322.0370000    0.059239393389
     47   S      89            48.4308000    0.351499960776
     47   S      90            10.4206000    0.707657921031

     48   L      91             7.4029400   -0.404453583190    0.244586106967
     48   L      92             1.5762000    1.221561761397    0.853955373466

     49   L      93             0.3736840    1.000000000000    1.000000000000

 H         

     50   S      94             5.4471780    0.156284978695
     50   S      95             0.8245472    0.904690876670

     51   S      96             0.1831916    1.000000000000

 H         

     52   S      97             5.4471780    0.156284978695
     52   S      98             0.8245472    0.904690876670

     53   S      99             0.1831916    1.000000000000

 H         

     54   S     100             5.4471780    0.156284978695
     54   S     101             0.8245472    0.904690876670

     55   S     102             0.1831916    1.000000000000

 H         

     56   S     103             5.4471780    0.156284978695
     56   S     104             0.8245472    0.904690876670

     57   S     105             0.1831916    1.000000000000

 H         

     58   S     106             5.4471780    0.156284978695
     58   S     107             0.8245472    0.904690876670

     59   S     108             0.1831916    1.000000000000

 TOTAL NUMBER OF BASIS SET SHELLS             =   59
 NUMBER OF CARTESIAN GAUSSIAN BASIS FUNCTIONS =  137
 NUMBER OF ELECTRONS                          =  103
 CHARGE OF MOLECULE                           =   -1
 SPIN MULTIPLICITY                            =    2
 NUMBER OF OCCUPIED ORBITALS (ALPHA)          =   52
 NUMBER OF OCCUPIED ORBITALS (BETA )          =   51
 TOTAL NUMBER OF ATOMS                        =   23
 THE NUCLEAR REPULSION ENERGY IS      920.8180054712

     $CONTRL OPTIONS
     ---------------
 SCFTYP=UHF          RUNTYP=ENERGY       EXETYP=RUN     
 MPLEVL=       0     CITYP =NONE         CCTYP =NONE         VBTYP =NONE    
 DFTTYP=NONE         TDDFT =NONE    
 MULT  =       2     ICHARG=      -1     NZVAR =       0     COORD =UNIQUE  
 PP    =NONE         RELWFN=NONE         LOCAL =NONE         NUMGRD=       F
 ISPHER=      -1     NOSYM =       0     MAXIT =      60     UNITS =ANGS    
 PLTORB=       F     MOLPLT=       F     AIMPAC=       F     FRIEND=        
 NPRINT=       7     IREST =       0     GEOM  =INPUT   
 NORMF =       0     NORMP =       0     ITOL  =      20     ICUT  =       9
 INTTYP=BEST         GRDTYP=BEST         QMTTOL= 1.0E-06

     $SYSTEM OPTIONS
     ---------------
  REPLICATED MEMORY=    30000000 WORDS (ON EVERY NODE).
 DISTRIBUTED MEMDDI=        1000 MILLION WORDS IN AGGREGATE,
 MEMDDI DISTRIBUTED OVER   8 PROCESSORS IS   125000000 WORDS/PROCESSOR.
 TOTAL MEMORY REQUESTED ON EACH PROCESSOR=   155000000 WORDS.
 TIMLIM=      525600.00 MINUTES, OR     365.0 DAYS.
 PARALL= T  BALTYP=  DLB     KDIAG=    0  COREFL= F
 MXSEQ2=     300 MXSEQ3=     150  mem10=         0

          ----------------
          PROPERTIES INPUT
          ----------------

     MOMENTS            FIELD           POTENTIAL          DENSITY
 IEMOM =       1   IEFLD =       0   IEPOT =       0   IEDEN =       0
 WHERE =COMASS     WHERE =NUCLEI     WHERE =NUCLEI     WHERE =NUCLEI  
 OUTPUT=BOTH       OUTPUT=BOTH       OUTPUT=BOTH       OUTPUT=BOTH    
 IEMINT=       0   IEFINT=       0                     IEDINT=       0
                                                       MORB  =       0
          EXTRAPOLATION IN EFFECT
          SOSCF IN EFFECT
          DIIS or SOSCF will be reset if energy rises
 ORBITAL PRINTING OPTION: NPREO=     1   137     2     1

     -------------------------------
     INTEGRAL TRANSFORMATION OPTIONS
     -------------------------------
     NWORD  =            0
     CUTOFF = 1.0E-09     MPTRAN =       0
     DIRTRF =       T     AOINTS =DUP     

          ----------------------
          INTEGRAL INPUT OPTIONS
          ----------------------
 NOPK  =       1 NORDER=       0 SCHWRZ=       T

     ------------------------------------------
     THE POINT GROUP IS C1 , NAXIS= 0, ORDER= 1
     ------------------------------------------

     DIMENSIONS OF THE SYMMETRY SUBSPACES ARE
 A   =  137

 ..... DONE SETTING UP THE RUN .....
 CPU     0: STEP CPU TIME=     0.02 TOTAL CPU TIME=          0.0 (      0.0 MIN)
 TOTAL WALL CLOCK TIME=          0.1 SECONDS, CPU UTILIZATION IS    40.00%

          ********************
          1 ELECTRON INTEGRALS
          ********************
 ...... END OF ONE-ELECTRON INTEGRALS ......
 CPU     0: STEP CPU TIME=     0.02 TOTAL CPU TIME=          0.0 (      0.0 MIN)
 TOTAL WALL CLOCK TIME=          0.1 SECONDS, CPU UTILIZATION IS    66.67%

          -------------
          GUESS OPTIONS
          -------------
          GUESS =HUCKEL            NORB  =       0          NORDER=       0
          MIX   =       F          PRTMO =       F          PUNMO =       F
          TOLZ  = 1.0E-08          TOLE  = 1.0E-05
          SYMDEN=       F          PURIFY=       F

 INITIAL GUESS ORBITALS GENERATED BY HUCKEL   ROUTINE.
 HUCKEL GUESS REQUIRES    175910 WORDS.

 SYMMETRIES FOR INITIAL GUESS ORBITALS FOLLOW.  ALPHA SET(S).
    52 ORBITALS ARE OCCUPIED (   13 CORE ORBITALS).
    14=A       15=A       16=A       17=A       18=A       19=A       20=A   
    21=A       22=A       23=A       24=A       25=A       26=A       27=A   
    28=A       29=A       30=A       31=A       32=A       33=A       34=A   
    35=A       36=A       37=A       38=A       39=A       40=A       41=A   
    42=A       43=A       44=A       45=A       46=A       47=A       48=A   
    49=A       50=A       51=A       52=A       53=A       54=A       55=A   
    56=A       57=A       58=A       59=A       60=A       61=A       62=A   

 SYMMETRIES FOR INITIAL GUESS ORBITALS FOLLOW.   BETA SET(S).
    51 ORBITALS ARE OCCUPIED (   13 CORE ORBITALS).
    14=A       15=A       16=A       17=A       18=A       19=A       20=A   
    21=A       22=A       23=A       24=A       25=A       26=A       27=A   
    28=A       29=A       30=A       31=A       32=A       33=A       34=A   
    35=A       36=A       37=A       38=A       39=A       40=A       41=A   
    42=A       43=A       44=A       45=A       46=A       47=A       48=A   
    49=A       50=A       51=A       52=A       53=A       54=A       55=A   
    56=A       57=A       58=A       59=A       60=A       61=A   
 ...... END OF INITIAL ORBITAL SELECTION ......
 CPU     0: STEP CPU TIME=     0.05 TOTAL CPU TIME=          0.1 (      0.0 MIN)
 TOTAL WALL CLOCK TIME=          0.2 SECONDS, CPU UTILIZATION IS    56.25%

                    ----------------------
                    AO INTEGRAL TECHNOLOGY
                    ----------------------
     S,P,L SHELL ROTATED AXIS INTEGRALS, REPROGRAMMED BY
        KAZUYA ISHIMURA (IMS) AND JOSE SIERRA (SYNSTAR).
     S,P,D,L SHELL ROTATED AXIS INTEGRALS PROGRAMMED BY
        KAZUYA ISHIMURA (INSTITUTE FOR MOLECULAR SCIENCE).
     S,P,D,F,G SHELL TO TOTAL QUARTET ANGULAR MOMENTUM SUM 5,
        ERIC PROGRAM BY GRAHAM FLETCHER (ELORET AND NASA ADVANCED
        SUPERCOMPUTING DIVISION, AMES RESEARCH CENTER).
     S,P,D,F,G,L SHELL GENERAL RYS QUADRATURE PROGRAMMED BY
        MICHEL DUPUIS (PACIFIC NORTHWEST NATIONAL LABORATORY).

          --------------------
          2 ELECTRON INTEGRALS
          --------------------

 DIRECT SCF METHOD SKIPS INTEGRAL STORAGE ON DISK.
 DIRECT TRANSFORMATION SKIPS AO INTEGRAL STORAGE ON DISK.
  ...... END OF TWO-ELECTRON INTEGRALS .....
 CPU     0: STEP CPU TIME=     0.02 TOTAL CPU TIME=          0.1 (      0.0 MIN)
 TOTAL WALL CLOCK TIME=          0.2 SECONDS, CPU UTILIZATION IS    61.11%

          ---------------------------
                  UHF SCF CALCULATION
          ---------------------------

     NUCLEAR ENERGY =       920.8180054712
     MAXIT = 60     NPUNCH=  2     MULT=  2
     EXTRAP=T  DAMP=F  SHIFT=F  RSTRCT=F  DIIS=F  SOSCF=T
     DENSITY MATRIX CONV=  2.00E-05
     SOSCF WILL OPTIMIZE    4420 ALPHA AND    4386 BETA ROTATION ANGLES.
     SOGTOL= 2.500E-01
     MEMORY REQUIRED FOR UHF/ROHF ITERS=    299420 WORDS.

 DIRECT SCF CALCULATION, SCHWRZ=T   FDIFF=T
 SCHWARZ INEQUALITY OVERHEAD:      8569 INTEGRALS, T=        0.00

                                                                                NONZERO     BLOCKS
 ITER EX      TOTAL ENERGY        E CHANGE  DENSITY CHANGE    ORB. GRAD       INTEGRALS    SKIPPED
   1  0     -750.5693458242  -750.5693458242   0.849726332   0.000000000       23167222     870602
          ---------------START SECOND ORDER SCF---------------
   2  1     -752.5631043185    -1.9937584943   0.178800023   0.079086914       23136395     879172
   3  2     -752.6738221692    -0.1107178507   0.151842518   0.059075190       22890494     913762
   4  3     -752.7181268113    -0.0443046421   0.031179537   0.004303484       22606428     937161
   5  4     -752.7191473711    -0.0010205598   0.006990671   0.001480376       21813412     982172
   6  5     -752.7193178262    -0.0001704551   0.003886451   0.000890150       20961283    1018087
   7  6     -752.7193427198    -0.0000248936   0.002622954   0.000280314       20202464    1047991
   8  7     -752.7193477356    -0.0000050159   0.001367576   0.000170433       19607174    1071863
   9  8     -752.7193493867    -0.0000016510   0.000688926   0.000100360       19034560    1092543
  10  9     -752.7193498516    -0.0000004649   0.000222235   0.000058770       18549593    1109897
  11 10     -752.7193499575    -0.0000001059   0.000092372   0.000019330       17582127    1140666
  12 11     -752.7193499787    -0.0000000212   0.000041957   0.000009271       16600910    1171040
  13 12     -752.7193499827    -0.0000000041   0.000033051   0.000003750       15274906    1209981
  14 13     -752.7193499843    -0.0000000016   0.000012644   0.000002050       14279553    1236757
  15 14     -752.7193499857    -0.0000000014   0.000005692   0.000001013       13435358    1258017

          -----------------
          DENSITY CONVERGED
          -----------------
     TIME TO FORM FOCK OPERATORS=       3.2 SECONDS (       0.2 SEC/ITER)
     FOCK TIME ON FIRST ITERATION=       0.2, LAST ITERATION=       0.2
     TIME TO SOLVE SCF EQUATIONS=       0.2 SECONDS (       0.0 SEC/ITER)

 FINAL UHF ENERGY IS     -752.7193499857 AFTER  15 ITERATIONS

          --------------------
          SPIN SZ   =    0.500
          S-SQUARED =    0.762
          --------------------

  ----- ALPHA SET ----- 

          ------------
          EIGENVECTORS
          ------------

                      1          2          3          4          5
                  -20.3558   -20.3553   -20.3448   -20.3164   -20.2890
                     A          A          A          A          A   
    1  C  1  S    0.000280  -0.000193  -0.001062   0.000001   0.000232
    2  C  1  S    0.001132  -0.001174  -0.004655   0.000355   0.000811
    3  C  1  X    0.000204  -0.000159  -0.000551   0.000304  -0.001315
    4  C  1  Y   -0.000317  -0.000365  -0.001092   0.000377  -0.000010
    5  C  1  Z    0.000202  -0.000239   0.000076   0.000654   0.000015
    6  C  1  S   -0.009045   0.004377   0.025791   0.001305  -0.007351
    7  C  1  X    0.004112   0.001811  -0.002421   0.000900   0.000633
    8  C  1  Y   -0.003379   0.003736  -0.007446  -0.001611  -0.000629
    9  C  1  Z    0.001267   0.001387  -0.012437  -0.005919   0.005985
   10  C  2  S   -0.000247   0.000128   0.000326   0.000221  -0.001032
   11  C  2  S   -0.001655   0.000724   0.001364   0.000920  -0.004679
   12  C  2  X    0.000525   0.000193   0.000518  -0.000359   0.000764
   13  C  2  Y   -0.000751  -0.000040   0.000325  -0.000526  -0.001029
   14  C  2  Z    0.000480   0.000205  -0.000285  -0.000461  -0.000984
   15  C  2  S    0.003963  -0.004761  -0.009479  -0.005051   0.022078
   16  C  2  X   -0.001981   0.000960   0.004643   0.003043  -0.001942
   17  C  2  Y    0.005247  -0.001806   0.000005  -0.002096   0.003916
   18  C  2  Z   -0.003979  -0.002397   0.004268   0.005478  -0.016585
   19  C  3  S   -0.000857   0.000464   0.000261   0.000158   0.000108
   20  C  3  S   -0.003496   0.001943   0.000891   0.000200   0.001008
   21  C  3  X   -0.000922   0.000293  -0.000351  -0.000503   0.000533
   22  C  3  Y   -0.000252  -0.000474   0.000621  -0.000530  -0.000019
   23  C  3  Z   -0.000551  -0.000095  -0.000221  -0.000575   0.000101
   24  C  3  S    0.021113  -0.013730  -0.009094  -0.006160  -0.000568
   25  C  3  X   -0.013485  -0.000591  -0.001446  -0.002700  -0.002797
   26  C  3  Y   -0.004211  -0.005826   0.004959  -0.001633  -0.004005
   27  C  3  Z    0.007058  -0.000997   0.000439   0.002639   0.000374
   28  C  4  S    0.000140  -0.000073  -0.000129  -0.000839   0.000359
   29  C  4  S    0.000501  -0.000603  -0.000719  -0.003447   0.001684
   30  C  4  X    0.000639   0.000537   0.000318  -0.001010   0.000278
   31  C  4  Y    0.000100  -0.000306   0.000167   0.000990   0.000977
   32  C  4  Z   -0.000100  -0.000075   0.000114   0.000403  -0.000251
   33  C  4  S   -0.005528   0.001067   0.002013   0.018751  -0.009442
   34  C  4  X   -0.001118  -0.003615  -0.003159  -0.003986   0.001453
   35  C  4  Y   -0.000104  -0.001806   0.000062   0.009314  -0.002332
   36  C  4  Z    0.003575   0.001093  -0.002071  -0.009690   0.008665
   37  C  5  S   -0.000048  -0.001037  -0.000088  -0.000874  -0.000129
   38  C  5  S   -0.000357  -0.004031  -0.000577  -0.003378  -0.000597
   39  C  5  X    0.000183  -0.000312  -0.000009   0.001683   0.000076
   40  C  5  Y    0.000665   0.001158   0.000460   0.000332  -0.000291
   41  C  5  Z    0.000435  -0.000113  -0.000089   0.000038  -0.000011
   42  C  5  S    0.001071   0.026557   0.000838   0.018966   0.004662
   43  C  5  X    0.003357  -0.006531   0.001170   0.008713   0.000140
   44  C  5  Y    0.003241   0.007257  -0.002616  -0.000033  -0.000315
   45  C  5  Z   -0.004879  -0.011717   0.000637  -0.005863  -0.001825
   46  H  6  S   -0.000519   0.000150   0.003134   0.000142  -0.000408
   47  H  6  S    0.001151  -0.000388   0.005205  -0.000481  -0.000486
   48  H  7  S   -0.000130   0.000068  -0.000623  -0.000359   0.003174
   49  H  7  S   -0.000009  -0.000095   0.002746   0.000050   0.005509
   50  H  8  S    0.002922  -0.000875  -0.000467  -0.000388   0.000094
   51  H  8  S    0.004925  -0.000030  -0.000437   0.000400  -0.000224
   52  H  9  S    0.000170   0.003251  -0.000241   0.000536   0.000105
   53  H  9  S    0.000124   0.004149   0.000329  -0.000831  -0.000077
   54  O 10  S   -0.000036  -0.000115  -0.000081  -0.000629   0.000814
   55  O 10  S   -0.000028  -0.000125  -0.000095  -0.000658   0.000723
   56  O 10  X   -0.000033  -0.000004   0.000009   0.000172  -0.000162
   57  O 10  Y    0.000026   0.000024   0.000039  -0.000039  -0.000015
   58  O 10  Z   -0.000009   0.000007   0.000052   0.000021  -0.000029
   59  O 10  S   -0.000020   0.000458   0.000465   0.003157  -0.003123
   60  O 10  X    0.000296   0.000008  -0.000128  -0.001511   0.001271
   61  O 10  Y   -0.000084  -0.000132  -0.000242  -0.000329   0.000426
   62  O 10  Z   -0.000008  -0.000017  -0.000170   0.000487  -0.000292
   63  O 11  S    0.006005  -0.004997   0.983525  -0.003731  -0.000757
   64  O 11  S    0.000759  -0.000739   0.098433   0.000150  -0.000034
   65  O 11  X   -0.000050   0.000000  -0.001356   0.000038   0.000493
   66  O 11  Y    0.000114   0.000046   0.003278   0.000128  -0.000111
   67  O 11  Z   -0.000114  -0.000086   0.001045  -0.000035  -0.000132
   68  O 11  S   -0.000168   0.001516  -0.047083  -0.002107   0.001383
   69  O 11  X    0.000131   0.000073   0.001054  -0.000464  -0.001644
   70  O 11  Y    0.000231   0.000043  -0.010148  -0.001181   0.001188
   71  O 11  Z    0.000523   0.000471  -0.003564  -0.000017   0.000718
   72  O 12  S    0.001079   0.000493   0.000704  -0.002962   0.983589
   73  O 12  S    0.000528   0.000187   0.000074  -0.000798   0.098524
   74  O 12  X    0.000059   0.000036  -0.000277   0.000091  -0.002337
   75  O 12  Y    0.000065  -0.000067  -0.000116   0.000184  -0.001475
   76  O 12  Z    0.000056   0.000040  -0.000172   0.000028   0.002817
   77  O 12  S   -0.002348  -0.000633   0.001247   0.003080  -0.048039
   78  O 12  X    0.000188  -0.000106   0.000713  -0.000703   0.005438
   79  O 12  Y   -0.000726   0.000272   0.000777  -0.000308   0.001883
   80  O 12  Z   -0.001068  -0.000230   0.001780   0.001056  -0.009799
   81  O 13  S    0.970424  -0.159999  -0.006724   0.001129  -0.000879
   82  O 13  S    0.097098  -0.015713  -0.000473  -0.000037   0.000214
   83  O 13  X    0.002357  -0.000343   0.000144  -0.000076   0.000048
   84  O 13  Y    0.002428  -0.000346  -0.000394  -0.000174  -0.000015
   85  O 13  Z   -0.001366   0.000311   0.000144  -0.000000  -0.000031
   86  O 13  S   -0.046573   0.006929   0.000617  -0.000121  -0.001415
   87  O 13  X   -0.008933   0.001513  -0.000035   0.000154  -0.000635
   88  O 13  Y   -0.004982   0.001024   0.001182   0.000688   0.000194
   89  O 13  Z    0.002662  -0.000687  -0.000557  -0.000162   0.000178
   90  O 14  S    0.160080   0.970445   0.003875  -0.005939  -0.000624
   91  O 14  S    0.016379   0.097434   0.000185   0.000624   0.000175
   92  O 14  X    0.000407   0.002964  -0.000048   0.000449   0.000046
   93  O 14  Y   -0.000467  -0.000514  -0.000073  -0.000130   0.000015
   94  O 14  Z    0.000142   0.002264  -0.000084  -0.000160   0.000012
   95  O 14  S   -0.008197  -0.047808   0.000892  -0.003954  -0.001098
   96  O 14  X   -0.001320  -0.008434   0.000374  -0.003186  -0.000468
   97  O 14  Y    0.001974   0.004930   0.000090   0.001576   0.000295
   98  O 14  Z   -0.000024  -0.005945   0.000496   0.000191  -0.000164
   99  O 15  S   -0.000088   0.000196   0.000150   0.000498  -0.001190
  100  O 15  S   -0.000050   0.000133   0.000096   0.000306  -0.000539
  101  O 15  X    0.000013  -0.000024  -0.000006   0.000243  -0.000113
  102  O 15  Y   -0.000038   0.000001   0.000013   0.000076  -0.000190
  103  O 15  Z    0.000017   0.000010   0.000019  -0.000147  -0.000053
  104  O 15  S    0.000092  -0.000520  -0.000387  -0.001749   0.002437
  105  O 15  X    0.000039   0.000232   0.000070  -0.000711  -0.000155
  106  O 15  Y    0.000150  -0.000117  -0.000162  -0.000699   0.001154
  107  O 15  Z   -0.000095  -0.000022  -0.000067   0.000740  -0.000095
  108  C 16  S   -0.000047  -0.000036   0.000001   0.000164   0.000002
  109  C 16  S   -0.000193  -0.000157  -0.000010   0.000432   0.000233
  110  C 16  X   -0.000164  -0.000130  -0.000031   0.000349  -0.000052
  111  C 16  Y   -0.000004   0.000050  -0.000080  -0.000068  -0.000056
  112  C 16  Z   -0.000013  -0.000015  -0.000081  -0.000067   0.000349
  113  C 16  S    0.002618   0.002212   0.000525  -0.006721   0.002965
  114  C 16  X   -0.001897  -0.000982   0.000112   0.005378  -0.003386
  115  C 16  Y    0.000072  -0.000481  -0.000148  -0.003805   0.003626
  116  C 16  Z    0.000344   0.001038   0.001257   0.001918  -0.003087
  117  H 17  S   -0.000041  -0.000007   0.000011   0.000470  -0.000203
  118  H 17  S    0.000197   0.000024  -0.000022  -0.000446   0.000428
  119  O 18  S   -0.000093   0.006371   0.003905   0.983715   0.002797
  120  O 18  S    0.000055   0.001985   0.000947   0.099925  -0.000247
  121  O 18  X   -0.000172  -0.000536   0.000022  -0.001813  -0.000225
  122  O 18  Y    0.000400   0.000277  -0.000128  -0.002787   0.000057
  123  O 18  Z    0.000051  -0.000277   0.000132   0.001943  -0.000019
  124  O 18  S   -0.000843  -0.005378  -0.002653  -0.052921   0.003075
  125  O 18  X    0.001919   0.004429  -0.000062   0.004447   0.002171
  126  O 18  Y   -0.001975  -0.001414   0.001262   0.008176  -0.001756
  127  O 18  Z   -0.000105   0.001277  -0.000654  -0.004737   0.000279
  128  H 19  S    0.000662  -0.000748  -0.000744   0.000779  -0.000509
  129  H 19  S    0.000313  -0.000148   0.001107   0.002393  -0.000563
  130  H 20  S    0.000457   0.000273   0.000248  -0.000578  -0.000560
  131  H 20  S    0.002448   0.000421  -0.001076  -0.000878   0.002061
  132  H 21  S   -0.000280   0.001103   0.000766   0.000739  -0.000143
  133  H 21  S    0.000577   0.000225   0.000559   0.001534   0.001168
  134  H 22  S   -0.000107  -0.000354   0.000021  -0.000452  -0.000791
  135  H 22  S   -0.000844  -0.000020   0.000582   0.001063  -0.001014
  136  H 23  S    0.000699  -0.000776  -0.000398  -0.000943  -0.000026
  137  H 23  S    0.001412   0.000353   0.000141  -0.000122   0.000033

                      6          7          8          9         10
                  -20.2247   -20.1044   -11.1654   -11.1102   -11.1099
                     A          A          A          A          A   
    1  C  1  S   -0.000041  -0.000042  -0.004179  -0.509464   0.847018
    2  C  1  S   -0.000187  -0.000286  -0.002323  -0.057076   0.090346
    3  C  1  X    0.000156  -0.000145   0.000386  -0.000641  -0.000034
    4  C  1  Y   -0.000088   0.000044  -0.000979   0.000111   0.001168
    5  C  1  Z    0.000223  -0.000245   0.000158   0.000475  -0.000994
    6  C  1  S    0.001122   0.001563   0.005233   0.070348  -0.075217
    7  C  1  X   -0.000792   0.002000   0.002314  -0.004627  -0.010742
    8  C  1  Y    0.000973  -0.000426   0.001243   0.016558  -0.003417
    9  C  1  Z   -0.002620   0.002656  -0.000945  -0.009524   0.007793
   10  C  2  S    0.000160  -0.000080   0.001484  -0.006178  -0.008868
   11  C  2  S    0.001029  -0.000562   0.001998  -0.001804  -0.005483
   12  C  2  X   -0.000005  -0.000357  -0.000085   0.001708   0.000337
   13  C  2  Y    0.000240  -0.000292  -0.000266  -0.000721  -0.000557
   14  C  2  Z   -0.000505   0.000397  -0.000335   0.000222   0.000643
   15  C  2  S   -0.002388  -0.001367  -0.009895  -0.007067   0.029693
   16  C  2  X    0.000161   0.001031   0.003609   0.003411  -0.017918
   17  C  2  Y   -0.001429   0.000808  -0.003723   0.003142   0.003158
   18  C  2  Z    0.004645  -0.005881   0.000615  -0.002206  -0.003601
   19  C  3  S    0.000049  -0.000033  -0.005036   0.847358   0.508582
   20  C  3  S    0.000219  -0.000208  -0.004441   0.092731   0.052211
   21  C  3  X   -0.000091  -0.000005  -0.000013   0.000605   0.000879
   22  C  3  Y    0.000017  -0.000007   0.000146   0.000122  -0.000336
   23  C  3  Z   -0.000040   0.000018  -0.000361   0.000568   0.000773
   24  C  3  S   -0.002095   0.001260   0.028993  -0.099243  -0.026822
   25  C  3  X   -0.000079  -0.000028   0.006737  -0.014503  -0.000008
   26  C  3  Y    0.000961  -0.000931   0.015661   0.006802  -0.014829
   27  C  3  Z   -0.000068  -0.000277   0.008846  -0.010294  -0.001717
   28  C  4  S   -0.000066  -0.000004  -0.002954   0.000328  -0.001388
   29  C  4  S   -0.000915  -0.000007  -0.003371   0.000384   0.000057
   30  C  4  X   -0.000443  -0.000084   0.001427  -0.000312   0.000753
   31  C  4  Y   -0.000227   0.000621  -0.000328  -0.000350   0.000834
   32  C  4  Z    0.000655  -0.000672  -0.000301   0.000804  -0.000237
   33  C  4  S    0.001006   0.007232   0.009127  -0.000204  -0.005765
   34  C  4  X   -0.002559   0.007227  -0.011909   0.005053  -0.001191
   35  C  4  Y    0.004273  -0.007987   0.001423   0.001490  -0.000798
   36  C  4  Z   -0.005533   0.005944   0.000663  -0.003382   0.004325
   37  C  5  S   -0.000024  -0.000036   0.987988   0.001298   0.005164
   38  C  5  S    0.000090  -0.000490   0.102853  -0.002477  -0.003353
   39  C  5  X    0.000365  -0.000503   0.000576  -0.000287   0.000168
   40  C  5  Y    0.000033   0.000029  -0.001090  -0.000967   0.000651
   41  C  5  Z   -0.000087   0.000077  -0.000079  -0.000136  -0.000325
   42  C  5  S    0.000704   0.000599  -0.083330   0.024614   0.020353
   43  C  5  X   -0.000034   0.000937   0.001012  -0.004192  -0.002182
   44  C  5  Y    0.000216  -0.000684   0.015173  -0.011377  -0.010521
   45  C  5  Z   -0.000086  -0.000016   0.003702  -0.005407  -0.001869
   46  H  6  S    0.000101  -0.000133  -0.000454  -0.000002  -0.000365
   47  H  6  S   -0.000062   0.000169   0.001660  -0.000239   0.002110
   48  H  7  S   -0.000356   0.000072   0.000038   0.000660  -0.000255
   49  H  7  S    0.000211  -0.000608  -0.000093  -0.002033   0.000629
   50  H  8  S   -0.000040   0.000029  -0.000388  -0.000532   0.000102
   51  H  8  S   -0.000010   0.000110   0.000836   0.001120   0.002178
   52  H  9  S    0.000024  -0.000010  -0.000331   0.000152   0.000354
   53  H  9  S   -0.000141   0.000172   0.002135   0.000832   0.001386
   54  O 10  S   -0.000984   0.983674  -0.000057  -0.000003  -0.000019
   55  O 10  S   -0.000499   0.101415  -0.000528  -0.000013  -0.000196
   56  O 10  X    0.000719  -0.001444   0.000044   0.000092  -0.000044
   57  O 10  Y   -0.000310  -0.003261   0.000042   0.000002  -0.000013
   58  O 10  Z   -0.000008   0.002914   0.000006   0.000027  -0.000068
   59  O 10  S    0.002809  -0.059932   0.002417   0.000051   0.000836
   60  O 10  X   -0.004196   0.005471  -0.000341  -0.000623   0.000349
   61  O 10  Y    0.002033   0.011727  -0.000452  -0.000059   0.000037
   62  O 10  Z   -0.000185  -0.010456   0.000186  -0.000036   0.000310
   63  O 11  S   -0.000123   0.000055  -0.000018   0.000172  -0.000238
   64  O 11  S    0.000085  -0.000082  -0.000250   0.000538  -0.001038
   65  O 11  X   -0.000044   0.000060  -0.000004  -0.000127  -0.000067
   66  O 11  Y    0.000044  -0.000041  -0.000283  -0.000416   0.000245
   67  O 11  Z   -0.000055   0.000054  -0.000009  -0.000212   0.000371
   68  O 11  S   -0.000510   0.000466   0.000189  -0.006489   0.009228
   69  O 11  X    0.000130  -0.000237  -0.000077  -0.000482   0.002561
   70  O 11  Y   -0.000414   0.000361   0.000959  -0.002811   0.003533
   71  O 11  Z    0.000207  -0.000223   0.000036  -0.000508   0.000836
   72  O 12  S    0.001060  -0.000656  -0.000040   0.000061   0.000118
   73  O 12  S   -0.000354   0.000581  -0.000228   0.000700   0.000619
   74  O 12  X    0.000247   0.000077  -0.000001  -0.000404   0.000295
   75  O 12  Y    0.000074   0.000126   0.000020   0.000149   0.000114
   76  O 12  Z    0.000022   0.000070  -0.000004   0.000287  -0.000248
   77  O 12  S    0.002536  -0.002784   0.001486  -0.001293  -0.004658
   78  O 12  X   -0.000911  -0.000066  -0.000367   0.001332   0.000596
   79  O 12  Y    0.000002  -0.000553   0.000308  -0.000942  -0.000909
   80  O 12  Z    0.000940  -0.001228   0.000748  -0.001085  -0.001496
   81  O 13  S    0.000101   0.000021   0.000028  -0.000219  -0.000052
   82  O 13  S   -0.000069  -0.000000  -0.000072  -0.000653  -0.000072
   83  O 13  X   -0.000002  -0.000037  -0.000271   0.000676  -0.000036
   84  O 13  Y   -0.000006   0.000009  -0.000091  -0.000044   0.000112
   85  O 13  Z    0.000016  -0.000044  -0.000000  -0.000200  -0.000351
   86  O 13  S    0.000365  -0.000147  -0.000898   0.008444   0.002356
   87  O 13  X    0.000158   0.000045  -0.000261   0.003244   0.001729
   88  O 13  Y    0.000005  -0.000018  -0.000902   0.000387   0.000573
   89  O 13  Z   -0.000080   0.000186  -0.000527   0.000703   0.001166
   90  O 14  S   -0.000152   0.000090  -0.000153   0.000086  -0.000006
   91  O 14  S    0.000085  -0.000105  -0.000259   0.000510  -0.000315
   92  O 14  X    0.000006   0.000013   0.000286  -0.000007   0.000021
   93  O 14  Y   -0.000040   0.000054  -0.000255   0.000195   0.000564
   94  O 14  Z    0.000003  -0.000022   0.000479  -0.000058   0.000063
   95  O 14  S   -0.000337   0.000426   0.007076  -0.002879   0.000144
   96  O 14  X   -0.000085  -0.000031   0.000887  -0.000334  -0.000208
   97  O 14  Y    0.000237  -0.000285  -0.002816   0.000928  -0.001437
   98  O 14  Z   -0.000058   0.000145  -0.000234  -0.000003  -0.000290
   99  O 15  S    0.983563   0.000887   0.000046  -0.000005   0.000017
  100  O 15  S    0.099096  -0.000432   0.000350  -0.000001   0.000066
  101  O 15  X    0.000275   0.000723   0.000042  -0.000026   0.000100
  102  O 15  Y    0.002744   0.000236   0.000014  -0.000005   0.000043
  103  O 15  Z   -0.002390  -0.000437  -0.000037  -0.000003   0.000035
  104  O 15  S   -0.049468   0.004441  -0.002026   0.000291  -0.000872
  105  O 15  X    0.002576  -0.004821   0.000377  -0.000179   0.000135
  106  O 15  Y   -0.009193  -0.000916  -0.000537   0.000076  -0.000324
  107  O 15  Z    0.006556   0.002288   0.000266  -0.000028   0.000001
  108  C 16  S   -0.000503   0.000340  -0.000446   0.000708  -0.000786
  109  C 16  S   -0.001348   0.002292  -0.000798   0.001016  -0.001182
  110  C 16  X    0.001281   0.000566  -0.000112  -0.000168   0.000010
  111  C 16  Y   -0.000809   0.001068   0.000091  -0.000135   0.000269
  112  C 16  Z    0.000339  -0.001061  -0.000155   0.000003  -0.000093
  113  C 16  S    0.014357   0.015934   0.005076  -0.005438   0.005135
  114  C 16  X    0.009819   0.010878  -0.001839   0.003376  -0.003133
  115  C 16  Y   -0.014505   0.021720  -0.003068   0.000654  -0.001973
  116  C 16  Z    0.007897  -0.019633   0.003701  -0.000764   0.001118
  117  H 17  S    0.003215   0.001358   0.000134   0.000040   0.000019
  118  H 17  S    0.003851  -0.000574   0.000035  -0.000311   0.000266
  119  O 18  S   -0.000398   0.000456  -0.000155  -0.000017   0.000032
  120  O 18  S    0.000294  -0.000597  -0.000223  -0.000545   0.000155
  121  O 18  X   -0.000533   0.000377  -0.000508   0.000377  -0.000116
  122  O 18  Y   -0.000067   0.000161  -0.000376   0.000342  -0.000092
  123  O 18  Z    0.000154  -0.000194   0.000631  -0.000050   0.000041
  124  O 18  S   -0.002675   0.003943   0.006550  -0.000006  -0.000723
  125  O 18  X    0.001231  -0.000311  -0.004893  -0.000221   0.002144
  126  O 18  Y    0.001167  -0.001833   0.001743  -0.000793   0.000616
  127  O 18  Z   -0.000736   0.001070  -0.001847   0.000538  -0.000328
  128  H 19  S    0.000238  -0.000406  -0.000140  -0.001765  -0.000339
  129  H 19  S    0.000856  -0.001008  -0.000718  -0.005888   0.010901
  130  H 20  S   -0.000651   0.000500   0.000059   0.000470  -0.000845
  131  H 20  S   -0.000108   0.000824  -0.000429   0.002649   0.003386
  132  H 21  S    0.000132  -0.000124  -0.001899   0.002164  -0.000924
  133  H 21  S    0.000157  -0.000230   0.002782   0.012843   0.007174
  134  H 22  S    0.000772  -0.001219  -0.000823   0.000611   0.000033
  135  H 22  S    0.001279  -0.001996  -0.001926   0.001491  -0.001973
  136  H 23  S   -0.000029  -0.000132   0.000783  -0.001502  -0.001676
  137  H 23  S   -0.000200   0.000350   0.014380   0.001012  -0.000988

                     11         12         13         14         15
                  -11.0749   -11.0558   -10.9662    -1.2835    -1.2531
                     A          A          A          A          A   
    1  C  1  S    0.003286   0.001573   0.000622  -0.026479  -0.056866
    2  C  1  S   -0.002694   0.000110  -0.001353   0.028443   0.057471
    3  C  1  X    0.001047  -0.000812  -0.000439  -0.006975  -0.019812
    4  C  1  Y   -0.000248  -0.000001   0.000103   0.002491  -0.026620
    5  C  1  Z    0.000241  -0.000214  -0.000247  -0.011430  -0.028626
    6  C  1  S    0.025282  -0.002570   0.007329   0.040836   0.099402
    7  C  1  X    0.013738  -0.001321   0.004650  -0.013664  -0.003691
    8  C  1  Y    0.002110  -0.001733   0.000338   0.002700   0.013609
    9  C  1  Z   -0.003971   0.002440   0.001344   0.002241   0.003859
   10  C  2  S    0.988298   0.011160   0.002311  -0.015097  -0.018866
   11  C  2  S    0.106737  -0.003074  -0.002226   0.015503   0.022782
   12  C  2  X   -0.001403   0.000569  -0.001381  -0.006259  -0.013703
   13  C  2  Y    0.001134   0.000054  -0.000841   0.006964  -0.005549
   14  C  2  Z   -0.000259   0.000556   0.000655  -0.004706  -0.011215
   15  C  2  S   -0.098263   0.030018   0.003048   0.033069   0.022767
   16  C  2  X    0.009153   0.003866   0.007123  -0.008215   0.003590
   17  C  2  Y   -0.014145   0.016963   0.003670  -0.003514  -0.018175
   18  C  2  Z   -0.000330  -0.000204  -0.004489   0.006132   0.006208
   19  C  3  S    0.009155   0.000710  -0.000057  -0.052985  -0.046130
   20  C  3  S   -0.001761   0.000102   0.000440   0.054323   0.047801
   21  C  3  X   -0.001716  -0.000280   0.000138  -0.016274  -0.040287
   22  C  3  Y    0.000732  -0.000489  -0.000014   0.013250  -0.028063
   23  C  3  Z   -0.000126  -0.000086  -0.000088   0.012760   0.006663
   24  C  3  S    0.003663  -0.001110  -0.002536   0.091187   0.077795
   25  C  3  X    0.008347  -0.000662  -0.002288   0.016670   0.010919
   26  C  3  Y    0.002202  -0.000487  -0.001279   0.014531  -0.008268
   27  C  3  Z   -0.000093  -0.001338  -0.000770  -0.016413  -0.001097
   28  C  4  S   -0.012614   0.988381   0.001031  -0.025298   0.007831
   29  C  4  S   -0.005425   0.106162  -0.001339   0.029830  -0.010562
   30  C  4  X   -0.000133  -0.000863  -0.000479  -0.019942   0.005108
   31  C  4  Y   -0.000926  -0.000301  -0.000037   0.016096  -0.013836
   32  C  4  Z    0.000418  -0.000327   0.000032  -0.009401   0.002808
   33  C  4  S    0.029188  -0.099272   0.018533   0.038562   0.000750
   34  C  4  X   -0.012640  -0.003745   0.015956   0.023808  -0.002925
   35  C  4  Y   -0.011132   0.007835   0.001634  -0.007171   0.003881
   36  C  4  Z   -0.008699   0.008556  -0.001889  -0.001096  -0.008249
   37  C  5  S   -0.000845   0.002158   0.000127  -0.087760   0.035468
   38  C  5  S    0.001544  -0.002516  -0.001212   0.099922  -0.038563
   39  C  5  X    0.000326  -0.000769  -0.000005  -0.002981  -0.005376
   40  C  5  Y    0.000043   0.000747   0.000146   0.031596  -0.038315
   41  C  5  Z    0.000216  -0.000376  -0.000123  -0.036363   0.015584
   42  C  5  S   -0.007491   0.007434   0.005715   0.118301  -0.057092
   43  C  5  X   -0.003524   0.005080   0.002234  -0.007146  -0.011516
   44  C  5  Y    0.003997  -0.004742  -0.002120  -0.015366   0.016493
   45  C  5  Z    0.001112   0.002516  -0.000264   0.026126  -0.008217
   46  H  6  S    0.000402   0.000232  -0.000021   0.018769   0.061763
   47  H  6  S    0.001271   0.000240   0.000203   0.003961   0.014113
   48  H  7  S   -0.000186   0.000466   0.000621   0.008405   0.019414
   49  H  7  S    0.002524   0.000774   0.000255   0.000950   0.004636
   50  H  8  S    0.000051  -0.000100   0.000076   0.039019   0.054913
   51  H  8  S    0.001064   0.000381   0.000045   0.008685   0.007348
   52  H  9  S    0.000083   0.000007   0.000043   0.063166  -0.040330
   53  H  9  S   -0.000328   0.000557   0.000124   0.013055  -0.010561
   54  O 10  S   -0.000043   0.000052   0.000299  -0.003642   0.001600
   55  O 10  S   -0.000364   0.000199   0.002295   0.004602  -0.001932
   56  O 10  X   -0.000028  -0.000243   0.000708  -0.001649   0.000810
   57  O 10  Y   -0.000068   0.000176   0.000185  -0.001708   0.000553
   58  O 10  Z   -0.000031  -0.000099  -0.000271   0.001713  -0.000768
   59  O 10  S    0.002044  -0.001770  -0.008675   0.003667  -0.001873
   60  O 10  X   -0.000190   0.003096  -0.000781  -0.000402  -0.000713
   61  O 10  Y   -0.000036  -0.000258   0.005615  -0.000216   0.000565
   62  O 10  Z    0.000199  -0.000424  -0.004280   0.000879  -0.000007
   63  O 11  S    0.000066  -0.000030   0.000004  -0.040532  -0.137332
   64  O 11  S    0.000240  -0.000293   0.000001   0.038012   0.126786
   65  O 11  X   -0.000377  -0.000281   0.000009  -0.005555  -0.020251
   66  O 11  Y   -0.000213  -0.000062  -0.000029   0.013928   0.040205
   67  O 11  Z   -0.000178  -0.000005  -0.000005   0.003610   0.010548
   68  O 11  S   -0.002244   0.000785  -0.000014   0.122085   0.429034
   69  O 11  X    0.000265   0.001259  -0.000241  -0.005537  -0.020509
   70  O 11  Y   -0.000367   0.000488   0.000070   0.016390   0.053863
   71  O 11  Z    0.000343  -0.000041  -0.000068   0.003499   0.015822
   72  O 12  S   -0.000316   0.000117   0.000093  -0.017240  -0.033409
   73  O 12  S   -0.001429   0.000616   0.000519   0.015701   0.030534
   74  O 12  X   -0.000108  -0.000004  -0.000419  -0.005155  -0.010424
   75  O 12  Y   -0.000263  -0.000378  -0.000352  -0.001308  -0.005993
   76  O 12  Z    0.000482  -0.000232  -0.000006   0.005680   0.008940
   77  O 12  S    0.012567  -0.004238  -0.003392   0.052870   0.103450
   78  O 12  X   -0.001129   0.000285   0.001007  -0.005626  -0.014007
   79  O 12  Y    0.002745   0.000026   0.000606  -0.001345  -0.004845
   80  O 12  Z    0.005085  -0.001341  -0.001380   0.006887   0.012814
   81  O 13  S   -0.000114  -0.000003   0.000005  -0.088233  -0.129984
   82  O 13  S   -0.001044  -0.000051   0.000023   0.081374   0.119412
   83  O 13  X   -0.000347  -0.000076  -0.000048   0.019863   0.023639
   84  O 13  Y    0.000199  -0.000056   0.000027   0.021913   0.025025
   85  O 13  Z   -0.000074  -0.000080  -0.000085  -0.010432  -0.015857
   86  O 13  S    0.004237  -0.000007  -0.000426   0.274809   0.410966
   87  O 13  X    0.002461   0.000278   0.000067   0.028021   0.035006
   88  O 13  Y   -0.000778   0.000189  -0.000092   0.023588   0.031210
   89  O 13  Z    0.000119   0.000361   0.000389  -0.012574  -0.021407
   90  O 14  S    0.000011  -0.000053   0.000002  -0.155782   0.093394
   91  O 14  S    0.000124  -0.000484  -0.000003   0.142514  -0.084897
   92  O 14  X   -0.000028   0.000066   0.000053   0.042143  -0.026173
   93  O 14  Y   -0.000014   0.000150   0.000028  -0.010829  -0.000357
   94  O 14  Z    0.000084  -0.000102  -0.000044   0.032212  -0.018508
   95  O 14  S   -0.000651   0.002276   0.000124   0.489198  -0.300760
   96  O 14  X    0.000222  -0.000087  -0.000335   0.057594  -0.036597
   97  O 14  Y    0.000061  -0.001003  -0.000048  -0.018816   0.005982
   98  O 14  Z   -0.000498   0.000603   0.000193   0.042065  -0.027830
   99  O 15  S    0.000082  -0.000043   0.000025  -0.003678   0.000780
  100  O 15  S    0.000645  -0.000766   0.000864   0.002547  -0.000258
  101  O 15  X   -0.000054   0.000726   0.000223  -0.000917   0.000092
  102  O 15  Y    0.000079  -0.000461   0.000690   0.001182  -0.000293
  103  O 15  Z    0.000183  -0.000106  -0.000713  -0.000708  -0.000006
  104  O 15  S   -0.002975   0.001378   0.004328   0.016147  -0.004849
  105  O 15  X    0.001214  -0.001870  -0.003313  -0.000777  -0.000001
  106  O 15  Y   -0.000816   0.001596  -0.001902   0.002946  -0.001550
  107  O 15  Z   -0.000340   0.000184   0.002769  -0.002198   0.001273
  108  C 16  S   -0.002782  -0.001597   0.986328  -0.006327   0.002216
  109  C 16  S   -0.002451  -0.002417   0.097304   0.008122  -0.002031
  110  C 16  X    0.001027  -0.000279  -0.000625  -0.003075   0.001072
  111  C 16  Y    0.000607  -0.000130  -0.000413   0.000527  -0.000978
  112  C 16  Z   -0.000242   0.000035   0.000140   0.000539  -0.000096
  113  C 16  S    0.004204   0.025005  -0.047806  -0.006166  -0.005718
  114  C 16  X   -0.000995  -0.017370   0.018542   0.002688   0.005537
  115  C 16  Y   -0.003086   0.000981   0.010004   0.010484  -0.005825
  116  C 16  Z    0.003759   0.003001  -0.012669  -0.010480   0.001617
  117  H 17  S   -0.000054   0.000376   0.000988   0.000641   0.000129
  118  H 17  S   -0.000252   0.002253   0.001202   0.000079  -0.000877
  119  O 18  S    0.000069  -0.000215   0.000010  -0.096177   0.047375
  120  O 18  S    0.000268  -0.000583  -0.000200   0.085921  -0.042830
  121  O 18  X    0.000039   0.000143  -0.000581  -0.027891   0.013424
  122  O 18  Y    0.000011  -0.000492   0.000241  -0.018185   0.005555
  123  O 18  Z   -0.000068   0.000634   0.000208   0.013802  -0.007424
  124  O 18  S   -0.002362   0.008784  -0.000518   0.304290  -0.147884
  125  O 18  X   -0.001971   0.004140   0.002010  -0.038013   0.014991
  126  O 18  Y    0.002695  -0.003408  -0.000938  -0.025833   0.010873
  127  O 18  Z    0.000097  -0.000832  -0.000726   0.022010  -0.008322
  128  H 19  S   -0.001388   0.000060  -0.000678   0.008163   0.015522
  129  H 19  S    0.001793  -0.001625  -0.000554  -0.005127  -0.006556
  130  H 20  S    0.000341  -0.001299  -0.000232   0.003385   0.004265
  131  H 20  S    0.011758   0.002763  -0.000315  -0.006878  -0.008400
  132  H 21  S   -0.001364  -0.000070   0.000329   0.014565   0.013317
  133  H 21  S   -0.000065  -0.000485  -0.000204  -0.012371  -0.005626
  134  H 22  S   -0.001238   0.001082  -0.001805   0.007714  -0.002350
  135  H 22  S    0.002287   0.014087   0.001704  -0.001493   0.002280
  136  H 23  S    0.000753  -0.001117  -0.000431   0.024412  -0.009062
  137  H 23  S   -0.000681  -0.001647  -0.000340  -0.014556   0.004649

                     16         17         18         19         20
                   -1.2297    -1.2006    -1.1757    -1.1594    -1.0583
                     A          A          A          A          A   
    1  C  1  S    0.044277   0.006853   0.006239   0.001398   0.002533
    2  C  1  S   -0.047942  -0.007568  -0.008702  -0.000363  -0.000672
    3  C  1  X    0.000045   0.015770   0.028986  -0.005128  -0.000290
    4  C  1  Y    0.041462   0.023247   0.017989  -0.005260  -0.002221
    5  C  1  Z    0.024159   0.005679   0.003325   0.000430   0.000660
    6  C  1  S   -0.070840  -0.025555  -0.003278  -0.003367  -0.017235
    7  C  1  X   -0.012815  -0.002512  -0.010603  -0.002078  -0.012558
    8  C  1  Y   -0.008073   0.004167  -0.004342  -0.001540   0.002422
    9  C  1  Z   -0.002645   0.007291  -0.035236   0.001529  -0.008656
   10  C  2  S    0.034915  -0.029925  -0.061755   0.009621   0.003348
   11  C  2  S   -0.033352   0.031845   0.066501  -0.008287   0.000734
   12  C  2  X    0.008505   0.006423   0.007828   0.004688   0.002272
   13  C  2  Y    0.002746   0.014852  -0.011886   0.001900   0.000913
   14  C  2  Z    0.018064  -0.015242  -0.068750   0.012981  -0.004274
   15  C  2  S   -0.059948   0.049081   0.117529  -0.025497  -0.003729
   16  C  2  X    0.013116  -0.013358   0.002108  -0.000325  -0.015134
   17  C  2  Y   -0.002775   0.002659   0.001649  -0.002921  -0.012342
   18  C  2  Z    0.008318  -0.004262   0.033304  -0.003866   0.025303
   19  C  3  S   -0.033816  -0.012980   0.001160   0.003837   0.003414
   20  C  3  S    0.036190   0.014446  -0.000702  -0.004235  -0.002860
   21  C  3  X   -0.060889   0.002028  -0.006578  -0.004340  -0.003205
   22  C  3  Y    0.007967   0.004345  -0.000105  -0.002086  -0.001433
   23  C  3  Z    0.003449   0.003588  -0.003464  -0.001120  -0.001208
   24  C  3  S    0.056299   0.024867  -0.011947  -0.005271  -0.011591
   25  C  3  X    0.014045   0.017602   0.001334  -0.003742   0.000147
   26  C  3  Y    0.009454  -0.009946   0.023039   0.001406   0.003829
   27  C  3  Z    0.000158   0.005465   0.004089  -0.000466  -0.000879
   28  C  4  S    0.020469  -0.059058   0.009324  -0.006086  -0.002278
   29  C  4  S   -0.022342   0.060807  -0.011829   0.005235  -0.001000
   30  C  4  X    0.010917  -0.026338   0.013060   0.031008   0.008586
   31  C  4  Y   -0.004375   0.030914  -0.033425  -0.007489   0.004699
   32  C  4  Z    0.008054  -0.022041   0.000982  -0.001375  -0.004688
   33  C  4  S   -0.031064   0.095057  -0.019011  -0.005702  -0.006780
   34  C  4  X   -0.011528  -0.004956   0.000910  -0.009113  -0.025613
   35  C  4  Y    0.003588  -0.015021   0.019244  -0.007547   0.031558
   36  C  4  Z   -0.002452   0.011177  -0.024269   0.006510  -0.031064
   37  C  5  S    0.008731  -0.013461   0.013814   0.009600   0.006928
   38  C  5  S   -0.011679   0.014849  -0.013420  -0.009289  -0.006071
   39  C  5  X   -0.023873   0.079281  -0.039167  -0.020070  -0.006066
   40  C  5  Y   -0.008041  -0.043665   0.013465   0.007948   0.003034
   41  C  5  Z    0.000246   0.009699  -0.002480   0.000056   0.000342
   42  C  5  S   -0.016066   0.027704  -0.041120  -0.022436  -0.017264
   43  C  5  X   -0.009036  -0.004807   0.000561  -0.003221  -0.005090
   44  C  5  Y   -0.001433   0.005173  -0.001184   0.002316   0.003731
   45  C  5  Z    0.006443  -0.006872   0.009577  -0.000258   0.000422
   46  H  6  S   -0.058510  -0.030609  -0.034012   0.006600   0.001186
   47  H  6  S   -0.004287  -0.004846  -0.008303   0.001528  -0.000303
   48  H  7  S   -0.031721   0.020929   0.084245  -0.015854   0.000576
   49  H  7  S   -0.006348  -0.000853   0.011833  -0.002685   0.002682
   50  H  8  S    0.070960   0.011467   0.005220   0.000628   0.001077
   51  H  8  S    0.015299  -0.003052   0.003333   0.001235   0.000735
   52  H  9  S   -0.003313  -0.059284   0.020230   0.010710   0.003473
   53  H  9  S   -0.000499  -0.011924   0.004795   0.002250   0.000521
   54  O 10  S    0.005806  -0.026074  -0.003968  -0.096349  -0.193702
   55  O 10  S   -0.005805   0.024766   0.002602   0.087460   0.178553
   56  O 10  X    0.001751  -0.006941   0.000290  -0.013992  -0.035793
   57  O 10  Y    0.002737  -0.011524  -0.002735  -0.044304  -0.063151
   58  O 10  Z   -0.002443   0.010775   0.001371   0.037958   0.059123
   59  O 10  S   -0.014667   0.073926   0.019310   0.302797   0.627722
   60  O 10  X    0.001117  -0.002672  -0.001436  -0.004593  -0.038449
   61  O 10  Y    0.002045  -0.011964  -0.002741  -0.053150  -0.067127
   62  O 10  Z   -0.002429   0.010126   0.003520   0.041353   0.064373
   63  O 11  S    0.140869   0.065952   0.068842  -0.012836  -0.001458
   64  O 11  S   -0.128787  -0.061704  -0.062547   0.012043   0.001452
   65  O 11  X    0.017139   0.013235   0.019775  -0.003951  -0.000721
   66  O 11  Y   -0.035770  -0.014302  -0.012863   0.001989  -0.000115
   67  O 11  Z   -0.009583  -0.004698  -0.006260   0.001113  -0.000307
   68  O 11  S   -0.450952  -0.207608  -0.230915   0.041462   0.004451
   69  O 11  X    0.020878   0.015756   0.023035  -0.004786   0.000187
   70  O 11  Y   -0.050529  -0.020302  -0.026579   0.003775  -0.000695
   71  O 11  Z   -0.015696  -0.007397  -0.012858   0.001826   0.000733
   72  O 12  S    0.062663  -0.055620  -0.195712   0.034503  -0.002359
   73  O 12  S   -0.059349   0.052027   0.179455  -0.031840   0.000012
   74  O 12  X    0.016871  -0.011134  -0.042287   0.009366  -0.000185
   75  O 12  Y    0.008981  -0.004210  -0.028577   0.005850  -0.000104
   76  O 12  Z   -0.016761   0.014805   0.040373  -0.006185  -0.000974
   77  O 12  S   -0.186285   0.171384   0.627198  -0.109760   0.019165
   78  O 12  X    0.019986  -0.013766  -0.057741   0.012012  -0.000583
   79  O 12  Y    0.012709  -0.008359  -0.037541   0.006759   0.002051
   80  O 12  Z   -0.018997   0.016869   0.062702  -0.009672   0.005946
   81  O 13  S   -0.155670  -0.026166  -0.009814  -0.000913  -0.001882
   82  O 13  S    0.143023   0.023499   0.008820   0.001030   0.001583
   83  O 13  X    0.020114   0.003204  -0.000175  -0.000361  -0.000813
   84  O 13  Y    0.039425   0.006133   0.004390   0.000121   0.000400
   85  O 13  Z   -0.019385  -0.002527  -0.001398  -0.000314  -0.000356
   86  O 13  S    0.498829   0.088966   0.033706   0.001914   0.007574
   87  O 13  X    0.038044   0.004740   0.002472  -0.000110   0.000093
   88  O 13  Y    0.049166   0.009651   0.005513  -0.000238   0.000755
   89  O 13  Z   -0.025420  -0.006688  -0.002476   0.000201  -0.000714
   90  O 14  S    0.006008   0.125073  -0.041991  -0.021122  -0.005464
   91  O 14  S   -0.005689  -0.115369   0.038047   0.019626   0.005288
   92  O 14  X   -0.005367  -0.022084   0.004886   0.002235  -0.000320
   93  O 14  Y   -0.001916  -0.009241   0.004728   0.003253   0.002331
   94  O 14  Z   -0.001420  -0.021697   0.006558   0.003237   0.000461
   95  O 14  S   -0.018156  -0.409376   0.142879   0.069835   0.018035
   96  O 14  X   -0.006995  -0.029668   0.008769   0.003540   0.000219
   97  O 14  Y   -0.003868   0.001555  -0.001130   0.001140   0.002155
   98  O 14  Z   -0.002947  -0.034042   0.011635   0.005192   0.000452
   99  O 15  S    0.007880  -0.034434  -0.015923  -0.184730   0.127160
  100  O 15  S   -0.007092   0.031294   0.016028   0.169287  -0.115698
  101  O 15  X    0.001157  -0.002615  -0.000652   0.003691  -0.014572
  102  O 15  Y   -0.002300   0.010118   0.003787   0.048521  -0.011057
  103  O 15  Z    0.001819  -0.007644  -0.004172  -0.040951   0.016063
  104  O 15  S   -0.025120   0.107657   0.041597   0.574987  -0.436555
  105  O 15  X    0.000016   0.001940   0.000681   0.007740   0.002673
  106  O 15  Y   -0.003198   0.014071   0.001863   0.066963  -0.023121
  107  O 15  Z    0.002866  -0.012723  -0.002451  -0.056709   0.019051
  108  C 16  S    0.008792  -0.033944  -0.006913  -0.106561  -0.066814
  109  C 16  S   -0.010056   0.035935   0.006187   0.116580   0.068047
  110  C 16  X    0.002041  -0.000982   0.005166   0.060628   0.017724
  111  C 16  Y    0.000275   0.001862  -0.005576  -0.009370   0.135778
  112  C 16  Z    0.000237  -0.002028  -0.001043  -0.011153  -0.105450
  113  C 16  S   -0.004369   0.042897   0.004915   0.113929   0.078724
  114  C 16  X    0.000234  -0.018149   0.005740  -0.045456  -0.013003
  115  C 16  Y   -0.002175   0.004926  -0.018894  -0.013760  -0.050833
  116  C 16  Z    0.004034   0.001377   0.005975   0.027401   0.041820
  117  H 17  S   -0.002488   0.011803   0.007039   0.075678  -0.061837
  118  H 17  S   -0.000225   0.003767  -0.000154   0.022949  -0.016257
  119  O 18  S    0.048952  -0.157131   0.081020   0.039377   0.010589
  120  O 18  S   -0.044138   0.143692  -0.072665  -0.035968  -0.007168
  121  O 18  X    0.005901  -0.011964   0.011723   0.011077   0.009611
  122  O 18  Y    0.011751  -0.043042   0.015326   0.007854   0.000185
  123  O 18  Z   -0.007772   0.025764  -0.013706  -0.006509  -0.002535
  124  O 18  S   -0.154997   0.502666  -0.268512  -0.126212  -0.050606
  125  O 18  X    0.010171  -0.026127   0.010740   0.010078   0.009837
  126  O 18  Y    0.021161  -0.061080   0.030444   0.013820   0.011624
  127  O 18  Z   -0.012426   0.042458  -0.022997  -0.009579  -0.008266
  128  H 19  S   -0.012805  -0.002171  -0.000801  -0.000207   0.000011
  129  H 19  S    0.005815  -0.002878   0.008068   0.000148   0.004140
  130  H 20  S   -0.010624   0.009761   0.016739  -0.001053  -0.002452
  131  H 20  S   -0.002061  -0.001588  -0.011514   0.008240  -0.010070
  132  H 21  S    0.006565   0.005821   0.001793  -0.002338  -0.001501
  133  H 21  S   -0.005765  -0.000077   0.008246  -0.000331   0.001005
  134  H 22  S   -0.006239   0.016797  -0.000991   0.002603   0.002917
  135  H 22  S    0.004034  -0.009406   0.004770  -0.002559   0.003887
  136  H 23  S   -0.004016   0.006293  -0.005660  -0.003116  -0.002593
  137  H 23  S   -0.002217   0.002051  -0.000546   0.001063  -0.000736

                     21         22         23         24         25
                   -0.9338    -0.8699    -0.7582    -0.7267    -0.6557
                     A          A          A          A          A   
    1  C  1  S   -0.125060  -0.036678  -0.112849   0.007929   0.060426
    2  C  1  S    0.121402   0.035257   0.094114  -0.010549  -0.051505
    3  C  1  X    0.018446   0.067243   0.007069  -0.111832   0.097706
    4  C  1  Y    0.081701  -0.020694  -0.008242   0.071955  -0.001646
    5  C  1  Z   -0.003665   0.018450   0.015363  -0.049421  -0.098323
    6  C  1  S    0.330386   0.099515   0.415451  -0.018974  -0.255420
    7  C  1  X    0.023883  -0.008222   0.016283  -0.026080   0.049797
    8  C  1  Y    0.035304   0.017963   0.034374   0.026043  -0.024245
    9  C  1  Z   -0.015214   0.004674  -0.009678  -0.029584  -0.064362
   10  C  2  S   -0.067099  -0.109921   0.011775   0.088690  -0.083871
   11  C  2  S    0.071846   0.106858  -0.013768  -0.071220   0.072747
   12  C  2  X   -0.055768   0.007998  -0.101730   0.020564   0.009157
   13  C  2  Y    0.018706   0.044768  -0.064156   0.051233  -0.017095
   14  C  2  Z    0.035387   0.056132  -0.008818  -0.040046  -0.003724
   15  C  2  S    0.145616   0.290667  -0.043479  -0.338484   0.317220
   16  C  2  X    0.005683  -0.032676  -0.003739   0.036905  -0.019268
   17  C  2  Y    0.014692   0.005499  -0.006861  -0.002493   0.012451
   18  C  2  Z    0.028100   0.029467  -0.007802  -0.027316   0.011557
   19  C  3  S   -0.125027   0.071318   0.031094  -0.100904  -0.045908
   20  C  3  S    0.125172  -0.066027  -0.027258   0.083060   0.038714
   21  C  3  X    0.074702  -0.022549   0.002421  -0.007352   0.030837
   22  C  3  Y   -0.016175  -0.057282  -0.127723  -0.083672   0.054922
   23  C  3  Z    0.037595  -0.009627   0.002290  -0.047987  -0.144955
   24  C  3  S    0.317539  -0.211918  -0.126144   0.391848   0.206030
   25  C  3  X    0.024667  -0.027724  -0.013206   0.033436   0.026799
   26  C  3  Y    0.016971   0.005957  -0.020139  -0.026787   0.034887
   27  C  3  Z    0.016710  -0.004880   0.007041  -0.009056  -0.099805
   28  C  4  S   -0.011313  -0.123883   0.100932  -0.054397   0.041417
   29  C  4  S    0.016720   0.117808  -0.096197   0.043891  -0.038013
   30  C  4  X   -0.011703   0.000533  -0.049984   0.039944  -0.053485
   31  C  4  Y   -0.047640  -0.041460   0.046470   0.065775  -0.055932
   32  C  4  Z    0.006564  -0.006822  -0.011093  -0.017030  -0.043819
   33  C  4  S    0.013191   0.335660  -0.304064   0.197757  -0.146978
   34  C  4  X    0.014018  -0.003760  -0.012730  -0.024553  -0.004914
   35  C  4  Y   -0.004431  -0.020976   0.048123   0.007940  -0.012321
   36  C  4  Z    0.003384   0.009750  -0.011151  -0.013115  -0.020547
   37  C  5  S   -0.053666   0.097625   0.082967   0.097540   0.037495
   38  C  5  S    0.062000  -0.097432  -0.084119  -0.087946  -0.038458
   39  C  5  X   -0.043876   0.000492   0.089923  -0.016724   0.027481
   40  C  5  Y   -0.077256   0.043856   0.047999  -0.047732  -0.019727
   41  C  5  Z   -0.008206   0.013837  -0.007445  -0.055115  -0.157665
   42  C  5  S    0.105430  -0.269401  -0.255385  -0.364519  -0.142400
   43  C  5  X   -0.000673  -0.006356   0.054259  -0.006896   0.029404
   44  C  5  Y   -0.019931   0.033169   0.049683   0.033621  -0.009743
   45  C  5  Z    0.008623  -0.009571  -0.018079  -0.044126  -0.106697
   46  H  6  S   -0.043872  -0.016668  -0.059438   0.026052   0.013779
   47  H  6  S   -0.035548  -0.004922  -0.037471   0.009630   0.013163
   48  H  7  S   -0.030504  -0.043960   0.018993   0.022226  -0.045178
   49  H  7  S   -0.022656  -0.032288  -0.002427   0.020923  -0.030564
[...]
    8 H            -0.000024                    -0.000021
    9 H            -0.000021                    -0.000019
   10 O             0.302053                     0.313404
   11 O             0.000602                     0.001778
   12 O            -0.005371                    -0.002410
   13 O            -0.000127                    -0.000108
   14 O             0.000129                     0.000100
   15 O            -0.001979                     0.023357
   16 C             0.717462                     0.626028
   17 H            -0.002283                    -0.001856
   18 O             0.004910                     0.003923
   19 H             0.000157                     0.000099
   20 H            -0.006103                    -0.003326
   21 H            -0.000108                    -0.000055
   22 H             0.070602                     0.055343
   23 H             0.000119                     0.000283


          ********* ALL ELECTRONS ********

               ----- POPULATIONS IN EACH AO -----
                             MULLIKEN      LOWDIN
              1  C  1  S      1.99036     1.97573
              2  C  1  S      0.35073     0.42760
              3  C  1  X      0.57301     0.56863
              4  C  1  Y      0.45142     0.44284
              5  C  1  Z      0.53043     0.50290
              6  C  1  S      1.02238     0.55353
              7  C  1  X      0.36869     0.51321
              8  C  1  Y      0.22435     0.43017
              9  C  1  Z      0.47063     0.53967
             10  C  2  S      1.99029     1.97570
             11  C  2  S      0.35179     0.42808
             12  C  2  X      0.53207     0.51833
             13  C  2  Y      0.57817     0.56257
             14  C  2  Z      0.44000     0.42859
             15  C  2  S      0.99797     0.55413
             16  C  2  X      0.29363     0.49137
             17  C  2  Y      0.47641     0.55778
             18  C  2  Z      0.24277     0.42824
             19  C  3  S      1.99023     1.97571
             20  C  3  S      0.35477     0.43097
             21  C  3  X      0.41394     0.40843
             22  C  3  Y      0.58555     0.57611
             23  C  3  Z      0.57983     0.55513
             24  C  3  S      1.00614     0.55094
             25  C  3  X      0.19622     0.40189
             26  C  3  Y      0.31557     0.50130
             27  C  3  Z      0.54096     0.57817
             28  C  4  S      1.99014     1.97550
             29  C  4  S      0.35527     0.42680
             30  C  4  X      0.54329     0.54307
             31  C  4  Y      0.44497     0.43363
             32  C  4  Z      0.54139     0.50804
             33  C  4  S      1.02706     0.55766
             34  C  4  X      0.40203     0.51645
             35  C  4  Y      0.22942     0.44183
             36  C  4  Z      0.48132     0.54908
             37  C  5  S      1.98894     1.97501
             38  C  5  S      0.37262     0.42818
             39  C  5  X      0.44926     0.43588
             40  C  5  Y      0.49849     0.49174
             41  C  5  Z      0.54955     0.51145
             42  C  5  S      0.85861     0.54936
             43  C  5  X      0.20418     0.40320
             44  C  5  Y      0.25059     0.44001
             45  C  5  Z      0.40459     0.53107
             46  H  6  S      0.40382     0.42223
             47  H  6  S      0.21353     0.32810
             48  H  7  S      0.40672     0.42474
             49  H  7  S      0.22860     0.34349
             50  H  8  S      0.40519     0.42335
             51  H  8  S      0.21033     0.32189
             52  H  9  S      0.40342     0.42129
             53  H  9  S      0.20923     0.31684
             54  O 10  S      1.98681     1.98093
             55  O 10  S      0.41052     0.56748
             56  O 10  X      0.74142     0.74391
             57  O 10  Y      0.68807     0.69061
             58  O 10  Z      0.68416     0.68922
             59  O 10  S      1.54098     1.04365
             60  O 10  X      0.95766     0.99341
             61  O 10  Y      0.89174     0.90851
             62  O 10  Z      0.88415     0.89761
             63  O 11  S      1.98614     1.98038
             64  O 11  S      0.41227     0.57309
             65  O 11  X      0.60509     0.58850
             66  O 11  Y      0.69126     0.69437
             67  O 11  Z      0.78229     0.78827
             68  O 11  S      1.52059     1.04810
             69  O 11  X      0.78121     0.79307
             70  O 11  Y      0.92313     0.94044
             71  O 11  Z      0.99219     1.00440
             72  O 12  S      1.98635     1.98068
             73  O 12  S      0.41642     0.57857
             74  O 12  X      0.75520     0.75596
             75  O 12  Y      0.73403     0.73134
             76  O 12  Z      0.58031     0.57106
             77  O 12  S      1.52945     1.05247
             78  O 12  X      0.96322     0.96356
             79  O 12  Y      0.91961     0.93124
             80  O 12  Z      0.77539     0.82542
             81  O 13  S      1.98604     1.98025
             82  O 13  S      0.41064     0.56989
             83  O 13  X      0.56939     0.55906
             84  O 13  Y      0.68726     0.68121
             85  O 13  Z      0.82735     0.83717
             86  O 13  S      1.52001     1.04497
             87  O 13  X      0.76643     0.80134
             88  O 13  Y      0.90553     0.90567
             89  O 13  Z      1.03909     1.03930
             90  O 14  S      1.98609     1.98014
             91  O 14  S      0.41024     0.56860
             92  O 14  X      0.74930     0.75316
             93  O 14  Y      0.55122     0.53176
             94  O 14  Z      0.79480     0.80242
             95  O 14  S      1.51939     1.03474
             96  O 14  X      0.98738     0.98369
             97  O 14  Y      0.70963     0.73594
             98  O 14  Z      1.01241     1.01960
             99  O 15  S      1.98610     1.98001
            100  O 15  S      0.40467     0.56706
            101  O 15  X      0.57540     0.55838
            102  O 15  Y      0.74783     0.75712
            103  O 15  Z      0.78711     0.79832
            104  O 15  S      1.51616     1.02636
            105  O 15  X      0.74603     0.76771
            106  O 15  Y      0.98659     0.98185
            107  O 15  Z      1.03099     1.01555
            108  C 16  S      1.98591     1.97393
            109  C 16  S      0.38816     0.40188
            110  C 16  X      0.47449     0.46657
            111  C 16  Y      0.54359     0.53426
            112  C 16  Z      0.59657     0.59148
            113  C 16  S      0.45911     0.49149
            114  C 16  X      0.28749     0.46767
            115  C 16  Y      0.24459     0.49518
            116  C 16  Z      0.41651     0.57955
            117  H 17  S      0.41209     0.42989
            118  H 17  S      0.25865     0.34945
            119  O 18  S      1.98676     1.98074
            120  O 18  S      0.41355     0.57822
            121  O 18  X      0.55004     0.54022
            122  O 18  Y      0.70239     0.70458
            123  O 18  Z      0.81255     0.81850
            124  O 18  S      1.53967     1.01728
            125  O 18  X      0.71194     0.75614
            126  O 18  Y      0.92027     0.92785
            127  O 18  Z      0.98390     1.00263
            128  H 19  S      0.47815     0.48997
            129  H 19  S      0.32905     0.44486
            130  H 20  S      0.47610     0.48842
            131  H 20  S      0.30235     0.43188
            132  H 21  S      0.46867     0.48266
            133  H 21  S      0.26690     0.41807
            134  H 22  S      0.48033     0.50106
            135  H 22  S      0.38106     0.47598
            136  H 23  S      0.48700     0.50095
            137  H 23  S      0.34855     0.46351

          ----- MULLIKEN ATOMIC OVERLAP POPULATIONS -----
          (OFF-DIAGONAL ELEMENTS NEED TO BE MULTIPLIED BY 2)

             1           2           3           4           5

    1    5.5496934
    2    0.1114750   5.6340217
    3    0.1533821  -0.1006958   5.6293722
    4   -0.0640348   0.0524447  -0.0007111   5.7084369
    5   -0.0766160   0.0109401   0.0864673  -0.0826242   4.9774997
    6   -0.0592241   0.0061210  -0.0061573  -0.0001544   0.0007125
    7   -0.0113277  -0.0675392   0.0002783   0.0075620  -0.0000565
    8    0.0066017  -0.0001968  -0.0564428   0.0000037  -0.0048900
    9   -0.0001692   0.0000262   0.0064526  -0.0001629  -0.0433134
   10   -0.0000286   0.0008855  -0.0000030  -0.0881022   0.0000464
   11    0.2037398  -0.0418662  -0.0376900   0.0011362   0.0020885
   12   -0.0474104   0.2257250  -0.0042562  -0.0441251  -0.0000948
   13   -0.0429366   0.0015909   0.1926071   0.0000448  -0.0320390
   14    0.0016088  -0.0000699  -0.0450264   0.0013818   0.2246814
   15    0.0000932   0.0139667  -0.0000017  -0.1239582  -0.0000087
   16    0.0050868  -0.1095249  -0.0003036   0.1900190   0.0036231
   17   -0.0000000  -0.0004556   0.0000002   0.0104674   0.0000013
   18   -0.0025954  -0.0351176  -0.0414972   0.1898235   0.2389540
   19    0.3521775  -0.0425571  -0.0565434   0.0033099  -0.0008470
   20   -0.0536093   0.3727360   0.0044764  -0.0496525  -0.0000367
   21   -0.0488092  -0.0020306   0.3428450  -0.0002331  -0.0535110
   22    0.0037018  -0.1254014   0.0004886   0.3048999  -0.0084193
   23    0.0012020  -0.0013898  -0.0838338  -0.0008778   0.3342820

             6           7           8           9          10

    6    0.4019918
    7   -0.0010445   0.4257047
    8   -0.0006473   0.0000003   0.3957860
    9    0.0000002   0.0000001  -0.0003482   0.3843610
   10   -0.0000000  -0.0000011   0.0000000  -0.0000006   8.4689770
   11    0.2599477   0.0273058  -0.0000232   0.0000001   0.0000000
   12    0.0000653   0.2537656   0.0000025   0.0000000  -0.0000830
   13    0.0164616  -0.0000272   0.2657833  -0.0000276   0.0000000
   14   -0.0000022  -0.0000001   0.0106608   0.2648673   0.0000000
   15   -0.0000000  -0.0000213  -0.0000000   0.0000000  -0.0532038
   16    0.0000030   0.0000822  -0.0000000  -0.0000097   0.4492389
   17    0.0000000   0.0000010   0.0000000  -0.0000000   0.0048747
   18   -0.0000020  -0.0001369   0.0000897   0.0028323   0.0010046
   19   -0.0000413   0.0008723  -0.0001275   0.0000033   0.0000002
   20   -0.0001183  -0.0008019   0.0000015  -0.0000002   0.0000406
   21   -0.0005561   0.0008343  -0.0009759  -0.0001250   0.0000014
   22    0.0000060  -0.0001247   0.0000014  -0.0000047   0.0018666
   23   -0.0000112  -0.0000042   0.0002447  -0.0017370  -0.0000000

            11          12          13          14          15

   11    8.3174992
   12   -0.0060839   8.2898617
   13   -0.0021639   0.0000027   8.3368794
   14   -0.0000004   0.0000001  -0.0009385   8.3318310
   15    0.0000000  -0.0003827  -0.0000000   0.0000000   8.5704516
   16   -0.0000189   0.0047642   0.0000002  -0.0000179   0.1028126
   17   -0.0000000  -0.0000034   0.0000000  -0.0000000   0.2559338
   18   -0.0000017   0.0002237   0.0002363  -0.0293410   0.0002199
   19   -0.0304000   0.0016603   0.0011999  -0.0000280   0.0000009
   20   -0.0000150  -0.0295541  -0.0000071   0.0000004   0.0080129
   21    0.0007674   0.0143211  -0.0274939   0.0015955   0.0000006
   22   -0.0000300   0.0015920   0.0000007  -0.0000246   0.0069535
   23   -0.0000217  -0.0000053   0.0025560  -0.0407109   0.0000008

            16          17          18          19          20

   16    4.8801239
   17   -0.0357039   0.4362341
   18   -0.0274163  -0.0000334   8.3951374
   19   -0.0000714  -0.0000002  -0.0001536   0.5701077
   20   -0.0028819  -0.0002151   0.0013111  -0.0008592   0.5269061
   21   -0.0000680  -0.0000001   0.0025842   0.0040628   0.0003351
   22   -0.0629861  -0.0003610  -0.0321020   0.0021392   0.0023641
   23   -0.0003307  -0.0000001  -0.0429483   0.0032940   0.0000141

            21          22          23

   21    0.4970144
   22    0.0001907   0.7592546
   23    0.0048278   0.0073823   0.6536204

          TOTAL MULLIKEN AND LOWDIN ATOMIC POPULATIONS
       ATOM         MULL.POP.    CHARGE          LOW.POP.     CHARGE
    1 C             5.982001    0.017999         5.954277    0.045723
    2 C             5.903088    0.096912         5.944799    0.055201
    3 C             5.983208    0.016792         5.978643    0.021357
    4 C             6.014893   -0.014893         5.952081    0.047919
    5 C             5.576840    0.423160         5.765896    0.234104
    6 H             0.617350    0.382650         0.750329    0.249671
    7 H             0.635321    0.364679         0.768226    0.231774
    8 H             0.615524    0.384476         0.745247    0.254753
    9 H             0.612644    0.387356         0.738131    0.261869
   10 O             8.785514   -0.785514         8.515325   -0.515325
   11 O             8.694170   -0.694170         8.410632   -0.410632
   12 O             8.659985   -0.659985         8.390297   -0.390297
   13 O             8.711729   -0.711729         8.418857   -0.418857
   14 O             8.720467   -0.720467         8.410043   -0.410043
   15 O             8.780870   -0.780870         8.452346   -0.452346
   16 C             5.396420    0.603580         6.002005   -0.002005
   17 H             0.670740    0.329260         0.779338    0.220662
   18 O             8.621071   -0.621071         8.326160   -0.326160
   19 H             0.807199    0.192801         0.934837    0.065163
   20 H             0.778447    0.221553         0.920297    0.079703
   21 H             0.735577    0.264423         0.900731    0.099269
   22 H             0.861387    0.138613         0.977044    0.022956
   23 H             0.835554    0.164446         0.964460    0.035540

          -------------------------------
          BOND ORDER AND VALENCE ANALYSIS     BOND ORDER THRESHOLD=0.050
          -------------------------------

                   BOND                       BOND                       BOND
  ATOM PAIR DIST  ORDER      ATOM PAIR DIST  ORDER      ATOM PAIR DIST  ORDER
    1   2  1.531  0.854        1   3  1.516  0.879        1  11  1.464  0.830
    1  19  1.097  0.895        2   4  1.542  0.793        2  12  1.450  0.863
    2  20  1.096  0.889        3   5  1.514  0.835        3  13  1.452  0.822
    3  21  1.095  0.856        4  16  1.518  0.898        4  18  1.456  0.759
    4  22  1.100  0.860        5  14  1.424  0.846        5  18  1.453  0.902
    5  23  1.104  0.870        6  11  0.999  0.794        7  11  1.987  0.053
    7  12  1.004  0.787        8  13  0.996  0.801        9  14  0.995  0.804
   10  16  1.215  1.572       15  16  1.385  0.675       15  17  0.997  0.841

                       TOTAL       BONDED        FREE
      ATOM            VALENCE     VALENCE     VALENCE
    1 C                 3.444       3.444       0.000
    2 C                 3.390       3.387       0.003
    3 C                 3.394       3.394       0.000
    4 C                 3.345       3.332       0.012
    5 C                 3.460       3.460       0.000
    6 H                 0.838       0.838       0.000
    7 H                 0.855       0.855       0.000
    8 H                 0.834       0.834       0.000
    9 H                 0.831       0.831       0.000
   10 O                 1.776       1.668       0.107
   11 O                 1.745       1.745       0.000
   12 O                 1.755       1.755       0.000
   13 O                 1.718       1.718       0.000
   14 O                 1.720       1.720       0.000
   15 O                 1.599       1.595       0.004
   16 C                 3.516       3.154       0.362
   17 H                 0.880       0.880       0.000
   18 O                 1.784       1.784       0.000
   19 H                 0.915       0.915       0.000
   20 H                 0.911       0.911       0.000
   21 H                 0.900       0.900       0.000
   22 H                 0.910       0.905       0.005
   23 H                 0.913       0.913       0.000

          -----------------------------------------
          ATOMIC SPIN DENSITY AT THE NUCLEUS (A.U.)
          -----------------------------------------
                            SPIN DENS    ALPHA DENS     BETA DENS
    1  C            6.0    -0.0005378      47.08595      47.08648
    2  C            6.0     0.0537856      47.10879      47.05500
    3  C            6.0     0.0011568      47.08737      47.08621
    4  C            6.0    -0.0699425      47.03413      47.10407
    5  C            6.0    -0.0020594      47.00677      47.00883
    6  H            1.0     0.0006173       0.16389       0.16327
    7  H            1.0     0.0007273       0.16505       0.16432
    8  H            1.0    -0.0000079       0.16413       0.16414
    9  H            1.0    -0.0000123       0.16315       0.16316
   10  O            8.0     0.1457637     116.87943     116.73367
   11  O            8.0     0.0115435     116.75753     116.74599
   12  O            8.0     0.0125053     116.80507     116.79256
   13  O            8.0    -0.0001470     116.73025     116.73039
   14  O            8.0     0.0001485     116.72571     116.72556
   15  O            8.0     0.0219326     116.73498     116.71304
   16  C            6.0     0.1494192      46.94275      46.79333
   17  H            1.0    -0.0007006       0.16636       0.16707
   18  O            8.0    -0.0027050     116.84274     116.84545
   19  H            1.0     0.0000023       0.18752       0.18752
   20  H            1.0    -0.0015333       0.18592       0.18745
   21  H            1.0    -0.0000026       0.18418       0.18418
   22  H            1.0     0.0170419       0.19784       0.18079
   23  H            1.0     0.0001393       0.19055       0.19042

          ---------------------
          ELECTROSTATIC MOMENTS
          ---------------------

 POINT   1           X           Y           Z (BOHR)    CHARGE
                 0.081719    0.058456    0.010187       -1.00 (A.U.)
         DX          DY          DZ         /D/  (DEBYE)
   -10.039364   -1.300560    2.816998   10.507891
 ...... END OF PROPERTY EVALUATION ......
 CPU     0: STEP CPU TIME=     0.08 TOTAL CPU TIME=          3.8 (      0.1 MIN)
 TOTAL WALL CLOCK TIME=         10.2 SECONDS, CPU UTILIZATION IS    37.00%
               580000  WORDS OF DYNAMIC MEMORY USED
 EXECUTION OF GAMESS TERMINATED NORMALLY Fri May 22 16:51:38 2020
 DDI: 263640 bytes (0.3 MB / 0 MWords) used by master data server.
Note: The following floating-point exceptions are signalling: IEEE_DENORMALNote: The following floating-point exceptions are signalling: IEEE_DENORMALNote: The following floating-point exceptions are signalling:
 ----------------------------------------
 CPU timing information for all processes
 ========================================
 0: 3.594 + 0.186 = 3.781
 1: 3.506 + 0.35 = 3.541
 2: 3.552 + 0.43 = 3.595
 3: 3.456 + 0.12 = 3.468
 4: 3.400 + 0.20 = 3.421
 5: 3.525 + 0.16 = 3.542
 6: 3.358 + 0.15 = 3.374
 7: 3.473 + 0.24 = 3.497
 ----------------------------------------


 IEEE_DENORMALNote: The following floating-point exceptions are signalling:Note: The following floating-point exceptions are signalling: IEEE_DENORMALNote: The following floating-point exceptions are signalling:Note: The following floating-point exceptions are signalling: IEEE_DENORMALNote: The following floating-point exceptions are signalling:
 IEEE_DENORMAL

 IEEE_DENORMAL

 IEEE_DENORMAL
 ddikick.x: exited gracefully.
unset echo
----- accounting info -----
Files used on the master node pietdev were:
-rwxr-xr-x 1 piet piet     1405 mei 22 16:51 /home/piet/scr/galacturonic_acid_fukui_acid.F05*
-rw-r--r-- 1 piet piet 68812800 mei 22 16:51 /home/piet/scr/galacturonic_acid_fukui_acid.F10
ls: No match.
ls: No match.
ls: No match.
vr 22 mei 2020 16:51:41 CEST
0.120u 0.021s 0:13.36 1.0%	0+0k 0+8io 0pf+0w
