----- GAMESS execution script 'rungms' -----
This job is running on host pietdev
under operating system Linux at vr 22 mei 2020 16:38:48 CEST
Available scratch disk space (Kbyte units) at beginning of the job is
Filesystem     1K-blocks     Used Available Use% Mounted on
/dev/sda2      244568380 31372904 200702420  14% /
GAMESS temporary binary files will be written to /home/piet/scr
GAMESS supplementary output files will be written to /home/piet/gamess/scr
Copying input file galacturonic_acid_geoopt.inp to your run's scratch directory...
cp galacturonic_acid_geoopt.inp /home/piet/scr/galacturonic_acid_geoopt.F05
unset echo
 
Assuming a single but multicore node.
 
/home/piet/gamess/ddikick.x /home/piet/gamess/gamess.03.x galacturonic_acid_geoopt -ddi 1 8 pietdev:cpus=8 -scr /home/piet/scr

 Distributed Data Interface kickoff program.
 Initiating 8 compute processes on 1 nodes to run the following command:
 /home/piet/gamess/gamess.03.x galacturonic_acid_geoopt 

          ******************************************************
          *         GAMESS VERSION = 30 SEP 2019 (R2)          *
          *             FROM IOWA STATE UNIVERSITY             *
          * M.W.SCHMIDT, K.K.BALDRIDGE, J.A.BOATZ, S.T.ELBERT, *
          *   M.S.GORDON, J.H.JENSEN, S.KOSEKI, N.MATSUNAGA,   *
          *          K.A.NGUYEN, S.J.SU, T.L.WINDUS,           *
          *       TOGETHER WITH M.DUPUIS, J.A.MONTGOMERY       *
          *         J.COMPUT.CHEM.  14, 1347-1363(1993)        *
          **************** 64 BIT LINUX VERSION ****************

  SINCE 1993, STUDENTS AND POSTDOCS WORKING AT IOWA STATE UNIVERSITY
  AND ALSO IN THEIR VARIOUS JOBS AFTER LEAVING ISU HAVE MADE IMPORTANT
  CONTRIBUTIONS TO THE CODE:
     IVANA ADAMOVIC, CHRISTINE AIKENS, YURI ALEXEEV, POOJA ARORA,
     ANDREY ASADCHEV, ROB BELL, PRADIPTA BANDYOPADHYAY, JONATHAN BENTZ,
     COLLEEN BERTONI, BRETT BODE, KURT BRORSEN, CALEB CARLIN, GALINA CHABAN,
     WEI CHEN, CHEOL HO CHOI, PAUL DAY, ALBERT DEFUSCO, NUWAN DESILVA,
     TIM DUDLEY, DMITRI FEDOROV, ALEX FINDLATER, GRAHAM FLETCHER, 
     MARK FREITAG, KURT GLAESEMANN, EMILIE B GUIDEZ, ANASTASIA GUNINA, 
     DAN KEMP, SAROM SOK LEANG, GRANT MERRILL,
     NORIYUKI MINEZAWA, JONATHAN MULLIN,
     TAKESHI NAGATA, SEAN NEDD, HEATHER NETZLOFF, BOSILJKA NJEGIC, RYAN OLSON,
     MIKE PAK, BUU PHAM, DAVID POOLE,
     SPENCER PRUITT, LUKE ROSKOP, TOSAPORN SATTASATHUCHANA,
     JIM SHOEMAKER, LYUDMILA SLIPCHENKO,
     TONY SMITH, JIE SONG, TETSUYA TAKETSUGU, SIMON WEBB,
     JORGE LUIS GALVEZ VALLEJO, PENG XU, SOOHAENG YOO,
     FEDERICO ZAHARIEV

  ADDITIONAL CODE HAS BEEN PROVIDED BY COLLABORATORS IN OTHER GROUPS:
     IOWA STATE UNIVERSITY:
          JOE IVANIC, AARON WEST, LAIMUTIS BYTAUTAS, KLAUS RUEDENBERG
     UNIVERSITY OF TOKYO: KIMIHIKO HIRAO, TAKAHITO NAKAJIMA,
          TAKAO TSUNEDA, MUNEAKI KAMIYA, SUSUMU YANAGISAWA,
          KIYOSHI YAGI, MAHITO CHIBA, SEIKEN TOKURA, NAOAKI KAWAKAMI
     UNIVERSITY OF AARHUS: FRANK JENSEN
     UNIVERSITY OF IOWA: VISVALDAS KAIRYS, HUI LI
     NATIONAL INST. OF STANDARDS AND TECHNOLOGY: WALT STEVENS, DAVID GARMER
     UNIVERSITY OF PISA: BENEDETTA MENNUCCI, JACOPO TOMASI
     UNIVERSITY OF MEMPHIS: HENRY KURTZ, PRAKASHAN KORAMBATH
     UNIVERSITY OF ALBERTA: TOBY ZENG, MARIUSZ KLOBUKOWSKI
     UNIVERSITY OF NEW ENGLAND: MARK SPACKMAN
     MIE UNIVERSITY: HIROAKI UMEDA
     NAT. INST. OF ADVANCED INDUSTRIAL SCIENCE AND TECHNOLOGY: KAZUO KITAURA
     MICHIGAN STATE UNIVERSITY:
          KAROL KOWALSKI, MARTA WLOCH, JEFFREY GOUR, JESSE LUTZ,
          WEI LI, JUN SHEN, J. EMILIANO DEUSTUA, PIOTR PIECUCH
     UNIVERSITY OF MINNESOTA:
          ANDREW SAND, PRACHI SHARMA, YINAN SHU
     UNIVERSITY OF SILESIA: MONIKA MUSIAL, STANISLAW KUCHARSKI
     FACULTES UNIVERSITAIRES NOTRE-DAME DE LA PAIX:
          OLIVIER QUINET, BENOIT CHAMPAGNE
     UNIVERSITY OF CALIFORNIA - SANTA BARBARA: BERNARD KIRTMAN
     INSTITUTE FOR MOLECULAR SCIENCE:
          KAZUYA ISHIMURA, MICHIO KATOUDA, AND SHIGERU NAGASE
     UNIVERSITY OF NOTRE DAME: ANNA POMOGAEVA, DAN CHIPMAN
     KYUSHU UNIVERSITY:
          HARUYUKI NAKANO,
          FENG LONG GU, JACEK KORCHOWIEC, MARCIN MAKOWSKI, AND YURIKO AOKI,
          HIROTOSHI MORI AND EISAKU MIYOSHI
     PENNSYLVANIA STATE UNIVERSITY:
          TZVETELIN IORDANOV, CHET SWALINA, JONATHAN SKONE,
          SHARON HAMMES-SCHIFFER
     WASEDA UNIVERSITY:
          MASATO KOBAYASHI, TOMOKO AKAMA, TSUGUKI TOUMA,
          TAKESHI YOSHIKAWA, YASUHIRO IKABATA, JUNJI SEINO,
          YUYA NAKAJIMA, HIROMI NAKAI
     NANJING UNIVERSITY: SHUHUA LI
     UNIVERSITY OF NEBRASKA:
          PEIFENG SU, DEJUN SI, NANDUN THELLAMUREGE, YALI WANG, HUI LI
     UNIVERSITY OF ZURICH: ROBERTO PEVERATI, KIM BALDRIDGE
     N. COPERNICUS UNIVERSITY AND JACKSON STATE UNIVERSITY:
          MARIA BARYSZ
     UNIVERSITY OF COPENHAGEN: Jimmy Kromann, CASPER STEINMANN
     TOKYO INSTITUTE OF TECHNOLOGY: HIROYA NAKATA
     NAGOYA UNIVERSITY: YOSHIO NISHIMOTO, STEPHAN IRLE
     MOSCOW STATE UNIVERSITY: VLADIMIR MIRONOV
     A.N.NESMEYANOV INSTITUTE OF ORGANOELEMENT COMPOUNDS OF RUSSIAN ACADEMY OF SCIENCES:
          IGOR S. GERASIMOV
     JOHANNES KEPLER UNIVERSITY LINZ:
          CHRISTIAN FRIEDL


 PARALLEL VERSION RUNNING ON        8 PROCESSORS IN        1 NODES.

 EXECUTION OF GAMESS BEGUN Fri May 22 16:38:48 2020

            ECHO OF THE FIRST FEW INPUT CARDS -
 INPUT CARD> $BASIS GBASIS=N21 NGAUSS=3 $END                                                
 INPUT CARD> $CONTRL SCFTYP=RHF RUNTYP=OPTIMIZE DFTTYP=B3LYP MAXIT=60 MULT=1 ICHARG=0 $END  
 INPUT CARD> $SYSTEM MEMDDI=1000 MWORDS=30 $END                                             
 INPUT CARD> $STATPT NSTEP=999 $END                                                         
 INPUT CARD> $SCF DIRSCF=.TRUE. $END                                                        
 INPUT CARD> $DATA                                                                          
 INPUT CARD>                                                                                
 INPUT CARD>C1                                                                              
 INPUT CARD>C 6.0000000 -1.03013050 -1.18460820 0.40293540                                  
 INPUT CARD>C 6.0000000 0.47839750 -1.12194280 0.12006590                                   
 INPUT CARD>C 6.0000000 -1.74570970 0.04087060 -0.15874030                                  
 INPUT CARD>C 6.0000000 1.02265390 0.25263130 0.56318920                                    
 INPUT CARD>C 6.0000000 -1.08785780 1.30771510 0.38894580                                   
 INPUT CARD>H 1.0000000 -2.48331200 -2.35030310 -0.17701610                                 
 INPUT CARD>H 1.0000000 0.22114540 -2.05022720 -1.55951520                                  
 INPUT CARD>H 1.0000000 -3.59745240 0.67944430 -0.14815410                                  
 INPUT CARD>H 1.0000000 -1.26361320 3.21261750 0.06361700                                   
 INPUT CARD>O 8.0000000 2.92443900 1.32409240 -0.53433950                                   
 INPUT CARD>O 8.0000000 -1.51531180 -2.38881740 -0.18251770                                 
 INPUT CARD>O 8.0000000 0.75211360 -1.29701380 -1.25857560                                  
 INPUT CARD>O 8.0000000 -3.11363100 -0.06963950 0.22737430                                  
 INPUT CARD>O 8.0000000 -1.72327060 2.40227620 -0.19890840                                  
 INPUT CARD>O 8.0000000 3.24949300 -0.52334490 0.72661150                                   
 INPUT CARD>C 6.0000000 2.48307310 0.44211920 0.15742720                                    
 INPUT CARD>H 1.0000000 4.16249500 -0.37774620 0.42585520                                   
 INPUT CARD>O 8.0000000 0.28556030 1.33493100 0.02433680                                    
 INPUT CARD>H 1.0000000 -1.18784570 -1.20965220 1.49329650                                  
 INPUT CARD>H 1.0000000 0.98375480 -1.89646770 0.71460100                                   
 INPUT CARD>H 1.0000000 -1.64472730 0.06394470 -1.25148840                                  
 INPUT CARD>H 1.0000000 0.99057880 0.27758000 1.66687870                                    
 INPUT CARD>H 1.0000000 -1.17474230 1.34314070 1.49162040                                   
 INPUT CARD> $END                                                                           
   30000000 WORDS OF MEMORY AVAILABLE

     BASIS OPTIONS
     -------------
     GBASIS=N21          IGAUSS=       3      POLAR=NONE    
     NDFUNC=       0     NFFUNC=       0     DIFFSP=       F
     NPFUNC=       0      DIFFS=       F     BASNAM=        


     RUN TITLE
     ---------
                                                                                 

 THE POINT GROUP OF THE MOLECULE IS C1      
 THE ORDER OF THE PRINCIPAL AXIS IS     0

 ATOM      ATOMIC                      COORDINATES (BOHR)
           CHARGE         X                   Y                   Z
 C           6.0    -1.9466643766       -2.2385849008        0.7614374968
 C           6.0     0.9040401882       -2.1201644659        0.2268916515
 C           6.0    -3.2989129871        0.0772342350       -0.2999756702
 C           6.0     1.9325356513        0.4774039329        1.0642732672
 C           6.0    -2.0557531556        2.4712232090        0.7350009861
 H           1.0    -4.6927792220       -4.4414288471       -0.3345119244
 H           1.0     0.4179042094       -3.8743676206       -2.9470564017
 H           1.0    -6.7981992899        1.2839635509       -0.2799706530
 H           1.0    -2.3878827025        6.0709667784        0.1202186982
 O           8.0     5.5263883778        2.5021718184       -1.0097552394
 O           8.0    -2.8635240880       -4.5142103207       -0.3449084409
 O           8.0     1.4212886156       -2.4510006843       -2.3783630188
 O           8.0    -5.8839094169       -0.1315995729        0.4296751237
 O           8.0    -3.2565092367        4.5396437648       -0.3758823727
 O           8.0     6.1406513690       -0.9889784581        1.3730966345
 C           6.0     4.6923277665        0.8354841419        0.2974942710
 H           1.0     7.8659749753       -0.7138368109        0.8047496384
 O           8.0     0.5396307200        2.5226538025        0.0459898834
 H           1.0    -2.2447028887       -2.2859111984        2.8219212034
 H           1.0     1.8590270111       -3.5838042976        1.3504000806
 H           1.0    -3.1080839215        0.1208379614       -2.3649701528
 H           1.0     1.8719225012        0.5245501397        3.1499439978
 H           1.0    -2.2199410532        2.5381678860        2.8187538337

          INTERNUCLEAR DISTANCES (ANGS.)
          ------------------------------

                1 C          2 C          3 C          4 C          5 C     

   1 C       0.0000000    1.5360986 *  1.5262148 *  2.5110282 *  2.4930310 *
   2 C       1.5360986 *  0.0000000    2.5251774 *  1.5433818 *  2.9032206 *
   3 C       1.5262148 *  2.5251774 *  0.0000000    2.8687736 *  1.5289291 *
   4 C       2.5110282 *  1.5433818 *  2.8687736 *  0.0000000    2.3659717 *
   5 C       2.4930310 *  2.9032206 *  1.5289291 *  2.3659717 *  0.0000000  
   6 H       1.9511342 *  3.2200699    2.5024194 *  4.4288789    3.9558441  
   7 H       2.4831834 *  1.9362033 *  3.1942729    3.2328698    4.0970436  
   8 H       3.2201759    4.4642457    1.9587852 *  4.6939920    2.6422085 *
   9 H       4.4164743    4.6718520    3.2158729    3.7733417    1.9404592 *
  10 O       4.7760531    3.5205758    4.8577795    2.4432324 *  4.1171895  
  11 O       1.4241756 *  2.3814712 *  2.4407032 *  3.7382616    3.7647895  
  12 O       2.4391900 *  1.4164119 *  3.0395219    2.4069522 *  3.5894894  
  13 O       2.3695888 *  3.7445328    1.4256597 *  4.1623891    2.4549884 *
  14 O       3.7024855    4.1676380    2.3618538 *  3.5695752    1.3954877 *
  15 O       4.3424892    2.8991701 *  5.1043351    2.3638228 *  4.7201071  
  16 C       3.8793190    2.5429137 *  4.2595265    1.5275381 *  3.6816307  
  17 H       5.2549892    3.7709296    5.9517959    3.2054389    5.5143764  
  18 O       2.8674827 *  2.4662885 *  2.4154021 *  1.4159949 *  1.4212522 *
  19 H       1.1019930 *  2.1609770 *  2.1457505 *  2.8088576 *  2.7507683 *
  20 H       2.1586138 *  1.0994302 *  3.4591879    2.1547773 *  3.8294148  
  21 H       2.1618815 *  2.7919795 *  1.0976467 *  3.2316528    2.1326258 *
  22 H       2.7962141 *  2.1479347 *  3.2979070    1.1044373 *  2.6484315 *
  23 H       2.7560229 *  3.2696589    2.1784402 *  2.6229269 *  1.1066595 *

                6 H          7 H          8 H          9 H         10 O     

   1 C       1.9511342 *  2.4831834 *  3.2201759    4.4164743    4.7760531  
   2 C       3.2200699    1.9362033 *  4.4642457    4.6718520    3.5205758  
   3 C       2.5024194 *  3.1942729    1.9587852 *  3.2158729    4.8577795  
   4 C       4.4288789    3.2328698    4.6939920    3.7733417    2.4432324 *
   5 C       3.9558441    4.0970436    2.6422085 *  1.9404592 *  4.1171895  
   6 H       0.0000000    3.0521204    3.2282365    5.7001452    6.5477197  
   7 H       3.0521204    0.0000000    4.9015034    5.7040863    4.4435137  
   8 H       3.2282365    4.9015034    0.0000000    3.4508867    6.5650421  
   9 H       5.7001452    5.7040863    3.4508867    0.0000000    4.6329106  
  10 O       6.5477197    4.4435137    6.5650421    4.6329106    0.0000000  
  11 O       0.9687817 *  2.2418852 *  3.7081964    5.6124867    5.7983502  
  12 O       3.5703176    0.9694443 *  4.9049105    5.1135235    3.4804760  
  13 O       2.4004708 *  4.2704140    0.9675904 *  3.7712854    6.2434755  
  14 O       4.8130190    5.0454723    2.5462292 *  0.9679140 *  4.7829069  
  15 O       6.0843547    4.0900653    7.0066096    5.8961941    2.2602394 *
  16 C       5.7074036    3.7783593    6.0928231    4.6606995    1.2046667 *
  17 H       6.9585333    4.7194412    7.8526379    6.5164851    2.3132253 *
  18 O       4.6139080    3.7379182    3.9417260    2.4345817 *  2.6973909 *
  19 H       2.4019287 *  3.4657584    3.4740826    4.6482463    5.2385165  
  20 H       3.6085315    2.4035015 *  5.3260800    5.6193589    3.9620847  
  21 H       2.7724191 *  2.8365621 *  2.3257948 *  3.4334954    4.7936996  
  22 H       4.7300777    4.0522008    4.9503403    4.0331470    3.1113285  
  23 H       4.2589000    4.7720935    2.9998129 *  2.3541528 *  4.5725446  

               11 O         12 O         13 O         14 O         15 O     

   1 C       1.4241756 *  2.4391900 *  2.3695888 *  3.7024855    4.3424892  
   2 C       2.3814712 *  1.4164119 *  3.7445328    4.1676380    2.8991701 *
   3 C       2.4407032 *  3.0395219    1.4256597 *  2.3618538 *  5.1043351  
   4 C       3.7382616    2.4069522 *  4.1623891    3.5695752    2.3638228 *
   5 C       3.7647895    3.5894894    2.4549884 *  1.3954877 *  4.7201071  
   6 H       0.9687817 *  3.5703176    2.4004708 *  4.8130190    6.0843547  
   7 H       2.2418852 *  0.9694443 *  4.2704140    5.0454723    4.0900653  
   8 H       3.7081964    4.9049105    0.9675904 *  2.5462292 *  7.0066096  
   9 H       5.6124867    5.1135235    3.7712854    0.9679140 *  5.8961941  
  10 O       5.7983502    3.4804760    6.2434755    4.7829069    2.2602394 *
  11 O       0.0000000    2.7369972 *  2.8462645 *  4.7956327    5.1971019  
  12 O       2.7369972 *  0.0000000    4.3195458    4.5754965    3.2827481  
  13 O       2.8462645 *  4.3195458    0.0000000    2.8679585 *  6.3987837  
  14 O       4.7956327    4.5754965    2.8679585 *  0.0000000    5.8433059  
  15 O       5.1971019    3.2827481    6.3987837    5.8433059    0.0000000  
  16 C       4.9108906    2.8329963 *  5.6204881    4.6543010    1.3577522 *
  17 H       6.0540908    3.9131907    7.2853506    6.5391965    0.9722273 *
  18 O       4.1415252    2.9649063 *  3.6835505    2.2857090 *  3.5680914  
  19 H       2.0750947 *  3.3680668    2.5711548 *  4.0244582    4.5550849  
  20 H       2.7004748 *  2.0751936 *  4.5125671    5.1615584    2.6493735 *
  21 H       2.6787103 *  2.7562846 *  2.0886737 *  2.5655190 *  5.3114198  
  22 H       4.0999305    3.3308399    4.3631723    3.9192441    2.5745439 *
  23 H       4.1044168    4.2716235    2.7117440 *  2.0689463 *  4.8623929  

               16 C         17 H         18 O         19 H         20 H     

   1 C       3.8793190    5.2549892    2.8674827 *  1.1019930 *  2.1586138 *
   2 C       2.5429137 *  3.7709296    2.4662885 *  2.1609770 *  1.0994302 *
   3 C       4.2595265    5.9517959    2.4154021 *  2.1457505 *  3.4591879  
   4 C       1.5275381 *  3.2054389    1.4159949 *  2.8088576 *  2.1547773 *
   5 C       3.6816307    5.5143764    1.4212522 *  2.7507683 *  3.8294148  
   6 H       5.7074036    6.9585333    4.6139080    2.4019287 *  3.6085315  
   7 H       3.7783593    4.7194412    3.7379182    3.4657584    2.4035015 *
   8 H       6.0928231    7.8526379    3.9417260    3.4740826    5.3260800  
   9 H       4.6606995    6.5164851    2.4345817 *  4.6482463    5.6193589  
  10 O       1.2046667 *  2.3132253 *  2.6973909 *  5.2385165    3.9620847  
  11 O       4.9108906    6.0540908    4.1415252    2.0750947 *  2.7004748 *
  12 O       2.8329963 *  3.9131907    2.9649063 *  3.3680668    2.0751936 *
  13 O       5.6204881    7.2853506    3.6835505    2.5711548 *  4.5125671  
  14 O       4.6543010    6.5391965    2.2857090 *  4.0244582    5.1615584  
  15 O       1.3577522 *  0.9722273 *  3.5680914    4.5550849    2.6493735 *
  16 C       0.0000000    1.8880389 *  2.3756869 *  4.2412899    2.8332643 *
  17 H       1.8880389 *  0.0000000    4.2573587    5.5188445    3.5347247  
  18 O       2.3756869 *  4.2573587    0.0000000    3.2868939    3.3772589  
  19 H       4.2412899    5.5188445    3.2868939    0.0000000    2.4070586 *
  20 H       2.8332643 *  3.5347247    3.3772589    2.4070586 *  0.0000000  
  21 H       4.3779899    6.0607263    2.6399141 *  3.0601690    3.8233026  
  22 H       2.1290975 *  3.4685219    2.0767730 *  2.6433925 *  2.3734706 *
  23 H       3.9964390    5.7081879    2.0701382 *  2.5528271 *  3.9696261  

               21 H         22 H         23 H     

   1 C       2.1618815 *  2.7962141 *  2.7560229 *
   2 C       2.7919795 *  2.1479347 *  3.2696589  
   3 C       1.0976467 *  3.2979070    2.1784402 *
   4 C       3.2316528    1.1044373 *  2.6229269 *
   5 C       2.1326258 *  2.6484315 *  1.1066595 *
   6 H       2.7724191 *  4.7300777    4.2589000  
   7 H       2.8365621 *  4.0522008    4.7720935  
   8 H       2.3257948 *  4.9503403    2.9998129 *
   9 H       3.4334954    4.0331470    2.3541528 *
  10 O       4.7936996    3.1113285    4.5725446  
  11 O       2.6787103 *  4.0999305    4.1044168  
  12 O       2.7562846 *  3.3308399    4.2716235  
  13 O       2.0886737 *  4.3631723    2.7117440 *
  14 O       2.5655190 *  3.9192441    2.0689463 *
  15 O       5.3114198    2.5745439 *  4.8623929  
  16 C       4.3779899    2.1290975 *  3.9964390  
  17 H       6.0607263    3.4685219    5.7081879  
  18 O       2.6399141 *  2.0767730 *  2.0701382 *
  19 H       3.0601690    2.6433925 *  2.5528271 *
  20 H       3.8233026    2.3734706 *  3.9696261  
  21 H       0.0000000    3.9379366    3.0629845  
  22 H       3.9379366    0.0000000    2.4196592 *
  23 H       3.0629845    2.4196592 *  0.0000000  

  * ... LESS THAN  3.000


     ATOMIC BASIS SET
     ----------------
 THE CONTRACTED PRIMITIVE FUNCTIONS HAVE BEEN UNNORMALIZED
 THE CONTRACTED BASIS FUNCTIONS ARE NOW NORMALIZED TO UNITY

  SHELL TYPE  PRIMITIVE        EXPONENT          CONTRACTION COEFFICIENT(S)

 C         

      1   S       1           172.2560000    0.061766907377
      1   S       2            25.9109000    0.358794042852
      1   S       3             5.5333500    0.700713083689

      2   L       4             3.6649800   -0.395895162119    0.236459946619
      2   L       5             0.7705450    1.215834355681    0.860618805716

      3   L       6             0.1958570    1.000000000000    1.000000000000

 C         

      4   S       7           172.2560000    0.061766907377
      4   S       8            25.9109000    0.358794042852
      4   S       9             5.5333500    0.700713083689

      5   L      10             3.6649800   -0.395895162119    0.236459946619
      5   L      11             0.7705450    1.215834355681    0.860618805716

      6   L      12             0.1958570    1.000000000000    1.000000000000

 C         

      7   S      13           172.2560000    0.061766907377
      7   S      14            25.9109000    0.358794042852
      7   S      15             5.5333500    0.700713083689

      8   L      16             3.6649800   -0.395895162119    0.236459946619
      8   L      17             0.7705450    1.215834355681    0.860618805716

      9   L      18             0.1958570    1.000000000000    1.000000000000

 C         

     10   S      19           172.2560000    0.061766907377
     10   S      20            25.9109000    0.358794042852
     10   S      21             5.5333500    0.700713083689

     11   L      22             3.6649800   -0.395895162119    0.236459946619
     11   L      23             0.7705450    1.215834355681    0.860618805716

     12   L      24             0.1958570    1.000000000000    1.000000000000

 C         

     13   S      25           172.2560000    0.061766907377
     13   S      26            25.9109000    0.358794042852
     13   S      27             5.5333500    0.700713083689

     14   L      28             3.6649800   -0.395895162119    0.236459946619
     14   L      29             0.7705450    1.215834355681    0.860618805716

     15   L      30             0.1958570    1.000000000000    1.000000000000

 H         

     16   S      31             5.4471780    0.156284978695
     16   S      32             0.8245472    0.904690876670

     17   S      33             0.1831916    1.000000000000

 H         

     18   S      34             5.4471780    0.156284978695
     18   S      35             0.8245472    0.904690876670

     19   S      36             0.1831916    1.000000000000

 H         

     20   S      37             5.4471780    0.156284978695
     20   S      38             0.8245472    0.904690876670

     21   S      39             0.1831916    1.000000000000

 H         

     22   S      40             5.4471780    0.156284978695
     22   S      41             0.8245472    0.904690876670

     23   S      42             0.1831916    1.000000000000

 O         

     24   S      43           322.0370000    0.059239393389
     24   S      44            48.4308000    0.351499960776
     24   S      45            10.4206000    0.707657921031

     25   L      46             7.4029400   -0.404453583190    0.244586106967
     25   L      47             1.5762000    1.221561761397    0.853955373466

     26   L      48             0.3736840    1.000000000000    1.000000000000

 O         

     27   S      49           322.0370000    0.059239393389
     27   S      50            48.4308000    0.351499960776
     27   S      51            10.4206000    0.707657921031

     28   L      52             7.4029400   -0.404453583190    0.244586106967
     28   L      53             1.5762000    1.221561761397    0.853955373466

     29   L      54             0.3736840    1.000000000000    1.000000000000

 O         

     30   S      55           322.0370000    0.059239393389
     30   S      56            48.4308000    0.351499960776
     30   S      57            10.4206000    0.707657921031

     31   L      58             7.4029400   -0.404453583190    0.244586106967
     31   L      59             1.5762000    1.221561761397    0.853955373466

     32   L      60             0.3736840    1.000000000000    1.000000000000

 O         

     33   S      61           322.0370000    0.059239393389
     33   S      62            48.4308000    0.351499960776
     33   S      63            10.4206000    0.707657921031

     34   L      64             7.4029400   -0.404453583190    0.244586106967
     34   L      65             1.5762000    1.221561761397    0.853955373466

     35   L      66             0.3736840    1.000000000000    1.000000000000

 O         

     36   S      67           322.0370000    0.059239393389
     36   S      68            48.4308000    0.351499960776
     36   S      69            10.4206000    0.707657921031

     37   L      70             7.4029400   -0.404453583190    0.244586106967
     37   L      71             1.5762000    1.221561761397    0.853955373466

     38   L      72             0.3736840    1.000000000000    1.000000000000

 O         

     39   S      73           322.0370000    0.059239393389
     39   S      74            48.4308000    0.351499960776
     39   S      75            10.4206000    0.707657921031

     40   L      76             7.4029400   -0.404453583190    0.244586106967
     40   L      77             1.5762000    1.221561761397    0.853955373466

     41   L      78             0.3736840    1.000000000000    1.000000000000

 C         

     42   S      79           172.2560000    0.061766907377
     42   S      80            25.9109000    0.358794042852
     42   S      81             5.5333500    0.700713083689

     43   L      82             3.6649800   -0.395895162119    0.236459946619
     43   L      83             0.7705450    1.215834355681    0.860618805716

     44   L      84             0.1958570    1.000000000000    1.000000000000

 H         

     45   S      85             5.4471780    0.156284978695
     45   S      86             0.8245472    0.904690876670

     46   S      87             0.1831916    1.000000000000

 O         

     47   S      88           322.0370000    0.059239393389
     47   S      89            48.4308000    0.351499960776
     47   S      90            10.4206000    0.707657921031

     48   L      91             7.4029400   -0.404453583190    0.244586106967
     48   L      92             1.5762000    1.221561761397    0.853955373466

     49   L      93             0.3736840    1.000000000000    1.000000000000

 H         

     50   S      94             5.4471780    0.156284978695
     50   S      95             0.8245472    0.904690876670

     51   S      96             0.1831916    1.000000000000

 H         

     52   S      97             5.4471780    0.156284978695
     52   S      98             0.8245472    0.904690876670

     53   S      99             0.1831916    1.000000000000

 H         

     54   S     100             5.4471780    0.156284978695
     54   S     101             0.8245472    0.904690876670

     55   S     102             0.1831916    1.000000000000

 H         

     56   S     103             5.4471780    0.156284978695
     56   S     104             0.8245472    0.904690876670

     57   S     105             0.1831916    1.000000000000

 H         

     58   S     106             5.4471780    0.156284978695
     58   S     107             0.8245472    0.904690876670

     59   S     108             0.1831916    1.000000000000

 TOTAL NUMBER OF BASIS SET SHELLS             =   59
 NUMBER OF CARTESIAN GAUSSIAN BASIS FUNCTIONS =  137
 NUMBER OF ELECTRONS                          =  102
 CHARGE OF MOLECULE                           =    0
 SPIN MULTIPLICITY                            =    1
 NUMBER OF OCCUPIED ORBITALS (ALPHA)          =   51
 NUMBER OF OCCUPIED ORBITALS (BETA )          =   51
 TOTAL NUMBER OF ATOMS                        =   23
 THE NUCLEAR REPULSION ENERGY IS      920.2917916947

 SELECTED MURRAY-HANDY-LAMING RADIAL GRID

 LEGACY BECKE'S FUZZY CELL METHOD

 SELECTED ORIGINAL BECKE'S PARTITION FUNCTION

     LEBEDEV GRID-BASED DFT OPTIONS
     ------------------------------
     DFTTYP=B3LYP   
     NRAD  =      96     NLEB  =     302
     NRAD0 =      24     NLEB0 =     110
     SWOFF =    5.00E-03 (PURE SCF -> DFT)
     SWITCH=    3.00E-04 (COARSE -> TIGHT GRID)
     THRESH=    0.00E+00 GTHRE=    1.00E+00

 GRIMME'S EMPIRICAL DISPERSION CORRECTION= F

     $CONTRL OPTIONS
     ---------------
 SCFTYP=RHF          RUNTYP=OPTIMIZE     EXETYP=RUN     
 MPLEVL=       0     CITYP =NONE         CCTYP =NONE         VBTYP =NONE    
 DFTTYP=B3LYP        TDDFT =NONE    
 MULT  =       1     ICHARG=       0     NZVAR =       0     COORD =UNIQUE  
 PP    =NONE         RELWFN=NONE         LOCAL =NONE         NUMGRD=       F
 ISPHER=      -1     NOSYM =       0     MAXIT =      60     UNITS =ANGS    
 PLTORB=       F     MOLPLT=       F     AIMPAC=       F     FRIEND=        
 NPRINT=       7     IREST =       0     GEOM  =INPUT   
 NORMF =       0     NORMP =       0     ITOL  =      20     ICUT  =       9
 INTTYP=BEST         GRDTYP=BEST         QMTTOL= 1.0E-06

     $SYSTEM OPTIONS
     ---------------
  REPLICATED MEMORY=    30000000 WORDS (ON EVERY NODE).
 DISTRIBUTED MEMDDI=        1000 MILLION WORDS IN AGGREGATE,
 MEMDDI DISTRIBUTED OVER   8 PROCESSORS IS   125000000 WORDS/PROCESSOR.
 TOTAL MEMORY REQUESTED ON EACH PROCESSOR=   155000000 WORDS.
 TIMLIM=      525600.00 MINUTES, OR     365.0 DAYS.
 PARALL= T  BALTYP=  DLB     KDIAG=    0  COREFL= F
 MXSEQ2=     300 MXSEQ3=     150  mem10=         0

          ----------------
          PROPERTIES INPUT
          ----------------

     MOMENTS            FIELD           POTENTIAL          DENSITY
 IEMOM =       1   IEFLD =       0   IEPOT =       0   IEDEN =       0
 WHERE =COMASS     WHERE =NUCLEI     WHERE =NUCLEI     WHERE =NUCLEI  
 OUTPUT=BOTH       OUTPUT=BOTH       OUTPUT=BOTH       OUTPUT=BOTH    
 IEMINT=       0   IEFINT=       0                     IEDINT=       0
                                                       MORB  =       0
          EXTRAPOLATION IN EFFECT
          DIIS IN EFFECT
 ORBITAL PRINTING OPTION: NPREO=     1   137     2     1

     -------------------------------
     INTEGRAL TRANSFORMATION OPTIONS
     -------------------------------
     NWORD  =            0
     CUTOFF = 1.0E-09     MPTRAN =       0
     DIRTRF =       T     AOINTS =DUP     

          ----------------------
          INTEGRAL INPUT OPTIONS
          ----------------------
 NOPK  =       1 NORDER=       0 SCHWRZ=       T

     ------------------------------------------
     THE POINT GROUP IS C1 , NAXIS= 0, ORDER= 1
     ------------------------------------------

     DIMENSIONS OF THE SYMMETRY SUBSPACES ARE
 A   =  137

 ..... DONE SETTING UP THE RUN .....
 CPU     0: STEP CPU TIME=     0.01 TOTAL CPU TIME=          0.0 (      0.0 MIN)
 TOTAL WALL CLOCK TIME=          0.0 SECONDS, CPU UTILIZATION IS    33.33%


          -----------------------------
          STATIONARY POINT LOCATION RUN
          -----------------------------

 OBTAINING INITIAL HESSIAN, HESS=GUESS   
 CARTESIAN COORDINATE OPTIMIZATION USING BADGER'S RULE FORCE CONSTANT GUESS

          PARAMETERS CONTROLLING GEOMETRY SEARCH ARE
          METHOD =QA                  UPHESS =BFGS    
          NNEG   =         0          NFRZ   =         0
          NSTEP  =       999          IFOLOW =         1
          HESS   =GUESS               RESTAR =         F
          IHREP  =         0          HSSEND =         F
          NPRT   =         0          NPUN   =         0
          OPTTOL = 1.000E-04          RMIN   = 1.500E-03
          RMAX   = 1.000E-01          RLIM   = 7.000E-02
          DXMAX  = 3.000E-01          PURIFY =         F
          MOVIE  =         F          TRUPD  =         T
          TRMAX  = 5.000E-01          TRMIN  = 5.000E-02
          ITBMAT =         5          STPT   =         F
          STSTEP = 1.000E-02          PROJCT=          T

 BEGINNING GEOMETRY SEARCH POINT NSERCH=   0 ...

 COORDINATES OF ALL ATOMS ARE (ANGS)
   ATOM   CHARGE       X              Y              Z
 ------------------------------------------------------------
 C           6.0  -1.0301305000  -1.1846082000   0.4029354000
 C           6.0   0.4783975000  -1.1219428000   0.1200659000
 C           6.0  -1.7457097000   0.0408706000  -0.1587403000
 C           6.0   1.0226539000   0.2526313000   0.5631892000
 C           6.0  -1.0878578000   1.3077151000   0.3889458000
 H           1.0  -2.4833120000  -2.3503031000  -0.1770161000
 H           1.0   0.2211454000  -2.0502272000  -1.5595152000
 H           1.0  -3.5974524000   0.6794443000  -0.1481541000
 H           1.0  -1.2636132000   3.2126175000   0.0636170000
 O           8.0   2.9244390000   1.3240924000  -0.5343395000
 O           8.0  -1.5153118000  -2.3888174000  -0.1825177000
 O           8.0   0.7521136000  -1.2970138000  -1.2585756000
 O           8.0  -3.1136310000  -0.0696395000   0.2273743000
 O           8.0  -1.7232706000   2.4022762000  -0.1989084000
 O           8.0   3.2494930000  -0.5233449000   0.7266115000
 C           6.0   2.4830731000   0.4421192000   0.1574272000
 H           1.0   4.1624950000  -0.3777462000   0.4258552000
 O           8.0   0.2855603000   1.3349310000   0.0243368000
 H           1.0  -1.1878457000  -1.2096522000   1.4932965000
 H           1.0   0.9837548000  -1.8964677000   0.7146010000
 H           1.0  -1.6447273000   0.0639447000  -1.2514884000
 H           1.0   0.9905788000   0.2775800000   1.6668787000
 H           1.0  -1.1747423000   1.3431407000   1.4916204000

          ********************
          1 ELECTRON INTEGRALS
          ********************
 ...... END OF ONE-ELECTRON INTEGRALS ......
 CPU     0: STEP CPU TIME=     0.02 TOTAL CPU TIME=          0.0 (      0.0 MIN)
 TOTAL WALL CLOCK TIME=          0.0 SECONDS, CPU UTILIZATION IS    75.00%

          -------------
          GUESS OPTIONS
          -------------
          GUESS =HUCKEL            NORB  =       0          NORDER=       0
          MIX   =       F          PRTMO =       F          PUNMO =       F
          TOLZ  = 1.0E-08          TOLE  = 1.0E-05
          SYMDEN=       F          PURIFY=       F

 INITIAL GUESS ORBITALS GENERATED BY HUCKEL   ROUTINE.
 HUCKEL GUESS REQUIRES    175910 WORDS.

 SYMMETRIES FOR INITIAL GUESS ORBITALS FOLLOW.   BOTH SET(S).
    51 ORBITALS ARE OCCUPIED (   13 CORE ORBITALS).
    14=A       15=A       16=A       17=A       18=A       19=A       20=A   
    21=A       22=A       23=A       24=A       25=A       26=A       27=A   
    28=A       29=A       30=A       31=A       32=A       33=A       34=A   
    35=A       36=A       37=A       38=A       39=A       40=A       41=A   
    42=A       43=A       44=A       45=A       46=A       47=A       48=A   
    49=A       50=A       51=A       52=A       53=A       54=A       55=A   
    56=A       57=A       58=A       59=A       60=A       61=A   
 ...... END OF INITIAL ORBITAL SELECTION ......
 CPU     0: STEP CPU TIME=     0.03 TOTAL CPU TIME=          0.1 (      0.0 MIN)
 TOTAL WALL CLOCK TIME=          0.1 SECONDS, CPU UTILIZATION IS    75.00%

                    ----------------------
                    AO INTEGRAL TECHNOLOGY
                    ----------------------
     S,P,L SHELL ROTATED AXIS INTEGRALS, REPROGRAMMED BY
        KAZUYA ISHIMURA (IMS) AND JOSE SIERRA (SYNSTAR).
     S,P,D,L SHELL ROTATED AXIS INTEGRALS PROGRAMMED BY
        KAZUYA ISHIMURA (INSTITUTE FOR MOLECULAR SCIENCE).
     S,P,D,F,G SHELL TO TOTAL QUARTET ANGULAR MOMENTUM SUM 5,
        ERIC PROGRAM BY GRAHAM FLETCHER (ELORET AND NASA ADVANCED
        SUPERCOMPUTING DIVISION, AMES RESEARCH CENTER).
     S,P,D,F,G,L SHELL GENERAL RYS QUADRATURE PROGRAMMED BY
        MICHEL DUPUIS (PACIFIC NORTHWEST NATIONAL LABORATORY).

          --------------------
          2 ELECTRON INTEGRALS
          --------------------

 DIRECT SCF METHOD SKIPS INTEGRAL STORAGE ON DISK.
 DIRECT TRANSFORMATION SKIPS AO INTEGRAL STORAGE ON DISK.
  ...... END OF TWO-ELECTRON INTEGRALS .....
 CPU     0: STEP CPU TIME=     0.02 TOTAL CPU TIME=          0.1 (      0.0 MIN)
 TOTAL WALL CLOCK TIME=          0.1 SECONDS, CPU UTILIZATION IS    88.89%

          --------------------------
             R-B3LYP SCF CALCULATION
          --------------------------

     NUCLEAR ENERGY =       920.2917916947
     MAXIT =   60     NPUNCH=    2
     EXTRAP=T  DAMP=F  SHIFT=F  RSTRCT=F  DIIS=T  DEM=F  SOSCF=F
         DENSITY MATRIX CONVERGENCE THRESHOLD=  2.00E-05
     COARSE -> FINE DFT GRID SWITCH THRESHOLD=  3.00E-04 (SWITCH IN $DFT)
                   HF -> DFT SWITCH THRESHOLD=  5.00E-03 (SWOFF IN $DFT)
     MEMORY REQUIRED FOR RHF ITERS=    935337 WORDS.

 DIRECT SCF CALCULATION, SCHWRZ=T   FDIFF=T,  DIRTHR=  0.00E+00 NITDIR=10
 SCHWARZ INEQUALITY OVERHEAD:      8554 INTEGRALS, T=        0.00

 DFT CODE IS SWITCHING FROM THE FINE GRID NRAD= 96,  NLEB=  302
                      TO THE COARSE GRID NRAD0= 24, NLEB0=  110

     EXCHANGE FUNCTIONAL   =B88&HFX   
     CORRELATION FUNCTIONAL=LYP88&VWN5
     DFT THRESHOLD         =.600E-08
     GRID CHANGE THRESHOLD =.300E-03
 FOR AN EULER-MACLAURIN QUADRATURE USING  96 RADIAL POINTS:
 SMALLEST GAUSSIAN PRIMITIVE EXPONENT=        0.1831915800 OF TYPE -S-
 ON ATOM NUMBER   6 HAS RADIAL NORMALIZATION=  1.000000
  LARGEST GAUSSIAN PRIMITIVE EXPONENT=      322.0370000000 OF TYPE -S-
 ON ATOM NUMBER  10 HAS RADIAL NORMALIZATION=  1.000000
 DFT IS SWITCHED OFF, PERFORMING PURE SCF UNTIL SWOFF THRESHOLD IS REACHED.

                                                                                   NONZERO     BLOCKS
 ITER EX DEM     TOTAL ENERGY        E CHANGE  DENSITY CHANGE    DIIS ERROR      INTEGRALS    SKIPPED
   1  0  0     -750.7018555324  -750.7018555324   0.808242816   0.652233864       22902474     860228
          * * *   INITIATING DIIS PROCEDURE   * * *
   2  1  0     -752.6732805390    -1.9714250066   0.136110638   0.135944926       22877286     871377
   3  2  0     -752.7856560828    -0.1123755438   0.105708615   0.121275048       22649535     910732
   4  3  0     -752.8417550414    -0.0560989587   0.032363832   0.013872987       22333444     944038
   5  4  0     -752.8451350103    -0.0033799689   0.003720491   0.003130579       21928497     966894
 CONVERGED TO SWOFF, SO DFT CALCULATION IS NOW SWITCHED ON.
          * * *   INITIATING DIIS PROCEDURE   * * *
   6  5  0     -756.5141570416    -3.6690220313   0.129329853   0.073614455       22924766     850651
   7  6  0     -756.5690016632    -0.0548446216   0.125580548   0.034903452       22731872     902066
   8  7  0     -756.5669405081     0.0020611551   0.068755588   0.049093328       22498098     927644
   9  8  0     -756.5831054666    -0.0161649585   0.012893534   0.024783731       22207638     952744
  10  9  0     -756.5842869721    -0.0011815055   0.002971308   0.007676983       21337368     997236
  11 10  0     -756.5844058870    -0.0001189149   0.000679707   0.000508988       20241150    1045561
  12 11  0     -756.5844080309    -0.0000021439   0.000152053   0.000080117       19138791    1078729
 DFT CODE IS SWITCHING BACK TO THE FINE GRID
          * * *   INITIATING DIIS PROCEDURE   * * *
  13 12  0     -756.5950199482    -0.0106119173   0.002156591   0.001258780       22931757     846821
  14 13  0     -756.5950664786    -0.0000465304   0.002968156   0.001085206       20829728    1022147
  15 14  0     -756.5950704233    -0.0000039447   0.000936305   0.001009369       20099005    1050468
  16 15  0     -756.5950769908    -0.0000065675   0.000200533   0.000371702       19126843    1086287
  17 16  0     -756.5950772440    -0.0000002532   0.000066233   0.000142058       17443797    1145619
  18 17  0     -756.5950772884    -0.0000000443   0.000017652   0.000010657       15993361    1186603
  19 18  0     -756.5950772902    -0.0000000018   0.000005408   0.000003290       14666353    1222226

          -----------------
          DENSITY CONVERGED
          -----------------
     TIME TO FORM FOCK OPERATORS=      21.7 SECONDS (       1.1 SEC/ITER)
     FOCK TIME ON FIRST ITERATION=       0.2, LAST ITERATION=       2.6
     TIME TO SOLVE SCF EQUATIONS=       0.4 SECONDS (       0.0 SEC/ITER)

 FINAL R-B3LYP ENERGY IS     -756.5950772902 AFTER  19 ITERATIONS
 DFT EXCHANGE + CORRELATION ENERGY =       -77.5383859210
 TOTAL ELECTRON NUMBER             =       102.0000369663

          ------------
          EIGENVECTORS
          ------------

                      1          2          3          4          5
                  -19.0796   -19.0513   -19.0458   -19.0370   -19.0353
                     A          A          A          A          A   
    1  C  1  S   -0.000014   0.000022  -0.000156   0.000276  -0.001070
    2  C  1  S   -0.000036   0.000483  -0.001095   0.001156  -0.004556
    3  C  1  X    0.000159   0.000231  -0.000167   0.000269  -0.000631
    4  C  1  Y   -0.000139   0.000329  -0.000497  -0.000330  -0.001201
    5  C  1  Z    0.000246   0.000741  -0.000184   0.000295  -0.000010
    6  C  1  S   -0.000046   0.000680   0.002899  -0.008743   0.028102
    7  C  1  X   -0.001769   0.000310   0.003870   0.004354  -0.004191
    8  C  1  Y    0.001380  -0.002049   0.003361  -0.005226  -0.010660
    9  C  1  Z   -0.002724  -0.006480   0.001427  -0.000680  -0.011321
   10  C  2  S    0.000158   0.000177   0.000117  -0.000224   0.000351
   11  C  2  S    0.001022   0.000532   0.000660  -0.001518   0.001500
   12  C  2  X    0.000246  -0.000220   0.000274   0.000505   0.000440
   13  C  2  Y    0.000312  -0.000790  -0.000124  -0.000728   0.000329
   14  C  2  Z   -0.000539  -0.000453   0.000300   0.000368  -0.000269
   15  C  2  S   -0.001766  -0.004126  -0.005232   0.003524  -0.009811
   16  C  2  X   -0.001149   0.002477   0.001419  -0.001189   0.004650
   17  C  2  Y   -0.001840  -0.001261  -0.001214   0.005540   0.000314
   18  C  2  Z    0.005874   0.005449  -0.003660  -0.003061   0.003592
   19  C  3  S    0.000070   0.000201   0.000312  -0.001022   0.000306
   20  C  3  S    0.000335   0.000442   0.001386  -0.004373   0.001151
   21  C  3  X   -0.000118  -0.000489   0.000106  -0.001368  -0.000261
   22  C  3  Y   -0.000001  -0.000574  -0.000363  -0.000059   0.000478
   23  C  3  Z   -0.000021  -0.000609  -0.000315  -0.000371  -0.000284
   24  C  3  S   -0.002771  -0.006453  -0.009211   0.026797  -0.008999
   25  C  3  X   -0.000053  -0.003204  -0.003035  -0.013021  -0.000252
   26  C  3  Y    0.000997  -0.001772  -0.006993  -0.002590   0.005282
   27  C  3  Z   -0.000168   0.003711   0.001741   0.009819   0.001518
   28  C  4  S   -0.000101  -0.000847  -0.000041   0.000136  -0.000117
   29  C  4  S   -0.001042  -0.003455  -0.000529   0.000495  -0.000676
   30  C  4  X   -0.000437  -0.001173   0.000831   0.000643   0.000498
   31  C  4  Y   -0.000344   0.001230  -0.000410   0.000143   0.000297
   32  C  4  Z    0.000658   0.000221  -0.000109  -0.000099   0.000033
   33  C  4  S    0.002611   0.020395  -0.000488  -0.005768   0.001404
   34  C  4  X   -0.002229  -0.004751  -0.004755  -0.001416  -0.004373
   35  C  4  Y    0.005664   0.011085  -0.002431   0.000084  -0.000739
   36  C  4  Z   -0.007048  -0.009523   0.002271   0.003468  -0.001384
   37  C  5  S   -0.000026  -0.000960  -0.000999   0.000153  -0.000072
   38  C  5  S    0.000125  -0.003623  -0.003823   0.000415  -0.000500
   39  C  5  X    0.000444   0.001984  -0.000189   0.000430   0.000010
   40  C  5  Y    0.000039   0.000339   0.001485   0.000550   0.000520
   41  C  5  Z   -0.000105  -0.000050  -0.000119   0.000466  -0.000077
   42  C  5  S    0.000881   0.022931   0.028058  -0.004277   0.000106
   43  C  5  X   -0.000197   0.009419  -0.007556   0.004489   0.001254
   44  C  5  Y    0.000011   0.000682   0.010473   0.002304  -0.002701
   45  C  5  Z   -0.000258  -0.007426  -0.012467  -0.003578   0.000571
   46  H  6  S    0.000095   0.000175   0.000003  -0.000278   0.003282
   47  H  6  S   -0.000073  -0.000499  -0.000032   0.000990   0.005605
   48  H  7  S   -0.000320  -0.000435   0.000107  -0.000174  -0.000460
   49  H  7  S    0.000371   0.000057  -0.000167   0.000133   0.001657
   50  H  8  S   -0.000054  -0.000472  -0.000204   0.003159  -0.000637
   51  H  8  S   -0.000003   0.000454   0.000478   0.005472  -0.000660
   52  H  9  S    0.000006   0.000717   0.003464  -0.000416  -0.000242
   53  H  9  S   -0.000136  -0.000755   0.004587  -0.000700   0.000426
   54  O 10  S   -0.002909  -0.006371  -0.001087  -0.000052  -0.000745
   55  O 10  S   -0.000858  -0.001454  -0.000201   0.000007  -0.000115
   56  O 10  X    0.000848   0.000173  -0.000026  -0.000044  -0.000019
   57  O 10  Y   -0.000266  -0.000008   0.000034   0.000021   0.000051
   58  O 10  Z    0.000046   0.000021  -0.000005  -0.000016   0.000056
   59  O 10  S    0.003614   0.004440   0.000292  -0.000200   0.000227
   60  O 10  X   -0.005045  -0.001694   0.000204   0.000401   0.000087
   61  O 10  Y    0.001976  -0.000619  -0.000127  -0.000034  -0.000249
   62  O 10  Z   -0.000608   0.000496  -0.000012   0.000024  -0.000251
   63  O 11  S    0.000211   0.007214  -0.005697   0.048059   0.981361
   64  O 11  S    0.000078   0.001310  -0.000902   0.005388   0.105799
   65  O 11  X   -0.000054   0.000033  -0.000009  -0.000069  -0.001322
   66  O 11  Y    0.000049   0.000186   0.000029   0.000267   0.003291
   67  O 11  Z   -0.000074  -0.000063  -0.000122  -0.000024   0.001440
   68  O 11  S   -0.000313  -0.002755   0.001948  -0.002816  -0.053963
   69  O 11  X    0.000249  -0.000500   0.000072  -0.000155   0.000952
   70  O 11  Y   -0.000382  -0.001381   0.000316  -0.000319  -0.011152
   71  O 11  Z    0.000354   0.000200   0.000624   0.000163  -0.004707
   72  O 12  S   -0.002080  -0.001960   0.002096   0.004190   0.000825
   73  O 12  S   -0.000876  -0.000633   0.000476   0.000841  -0.000051
   74  O 12  X    0.000188   0.000100   0.000033  -0.000015  -0.000241
   75  O 12  Y    0.000049   0.000246  -0.000074   0.000089  -0.000070
   76  O 12  Z   -0.000039   0.000075   0.000059   0.000048  -0.000115
   77  O 12  S    0.003491   0.002935  -0.001306  -0.002200   0.001793
   78  O 12  X   -0.000730  -0.000788  -0.000045   0.000401   0.000278
   79  O 12  Y    0.000180  -0.000589   0.000232  -0.000830   0.000490
   80  O 12  Z    0.001323   0.000814  -0.000468  -0.000834   0.001551
   81  O 13  S   -0.000454  -0.002213   0.012022   0.981305  -0.047968
   82  O 13  S   -0.000149  -0.000316   0.001636   0.105623  -0.004971
   83  O 13  X   -0.000003  -0.000103   0.000143   0.002277   0.000109
   84  O 13  Y   -0.000009  -0.000208   0.000103   0.002249  -0.000474
   85  O 13  Z    0.000024   0.000015   0.000074  -0.002047   0.000274
   86  O 13  S    0.000518  -0.000395  -0.001491  -0.053468   0.002934
   87  O 13  X    0.000205   0.000069  -0.000331  -0.009562   0.000116
   88  O 13  Y    0.000011   0.000815   0.000179  -0.004859   0.001195
   89  O 13  Z   -0.000139  -0.000200  -0.000316   0.005011  -0.001068
   90  O 14  S    0.000664   0.048811   0.981330  -0.011584   0.005833
   91  O 14  S    0.000174   0.006633   0.106223  -0.000917   0.000340
   92  O 14  X   -0.000002   0.000620   0.003030  -0.000132  -0.000042
   93  O 14  Y   -0.000051  -0.000227  -0.000933  -0.000389  -0.000032
   94  O 14  Z   -0.000008  -0.000079   0.002384  -0.000241  -0.000086
   95  O 14  S   -0.000402  -0.007766  -0.055636   0.000174   0.001089
   96  O 14  X   -0.000048  -0.003976  -0.009002   0.000101   0.000383
   97  O 14  Y    0.000309   0.002440   0.006663   0.001166  -0.000120
   98  O 14  Z   -0.000011   0.000000  -0.006613   0.000998   0.000533
   99  O 15  S    0.982649  -0.002531  -0.000508   0.000430  -0.000202
  100  O 15  S    0.106732   0.000143   0.000023  -0.000030   0.000023
  101  O 15  X    0.000142   0.000234  -0.000039   0.000009  -0.000005
  102  O 15  Y    0.003239   0.000089  -0.000022  -0.000048   0.000004
  103  O 15  Z   -0.002449  -0.000116   0.000020   0.000015   0.000034
  104  O 15  S   -0.057419  -0.002476  -0.000319   0.000242  -0.000227
  105  O 15  X    0.003143  -0.000501   0.000300   0.000039   0.000081
  106  O 15  Y   -0.010846  -0.000896   0.000015   0.000232  -0.000108
  107  O 15  Z    0.007501   0.000720  -0.000073  -0.000096  -0.000148
  108  C 16  S   -0.000459   0.000160  -0.000059  -0.000059  -0.000022
  109  C 16  S   -0.001084   0.000413  -0.000239  -0.000282  -0.000116
  110  C 16  X    0.001517   0.000284  -0.000190  -0.000089  -0.000057
  111  C 16  Y   -0.000899  -0.000086   0.000040  -0.000018  -0.000095
  112  C 16  Z    0.000536  -0.000063  -0.000019  -0.000018  -0.000090
  113  C 16  S    0.016012  -0.006396   0.003476   0.002758   0.001837
  114  C 16  X    0.012055   0.005327  -0.002054  -0.002221  -0.000881
  115  C 16  Y   -0.016740  -0.005048  -0.000304   0.000167   0.000160
  116  C 16  Z    0.010129   0.003334   0.000766  -0.000087   0.001277
  117  H 17  S    0.003622   0.000485  -0.000050  -0.000060  -0.000007
  118  H 17  S    0.004085  -0.000566   0.000124   0.000263   0.000065
  119  O 18  S    0.002625   0.981550  -0.048367   0.002433  -0.007474
  120  O 18  S    0.000799   0.107836  -0.003846   0.000150  -0.000233
  121  O 18  X   -0.000586  -0.001675  -0.000423  -0.000084  -0.000001
  122  O 18  Y   -0.000116  -0.002701   0.000494   0.000336  -0.000096
  123  O 18  Z    0.000119   0.002226  -0.000371   0.000076   0.000119
  124  O 18  S   -0.003948  -0.061549  -0.002927  -0.000256  -0.002162
  125  O 18  X    0.001167   0.005218   0.004642   0.001204   0.000174
  126  O 18  Y    0.001605   0.008386  -0.002508  -0.001702   0.001225
  127  O 18  Z   -0.000717  -0.006177   0.001445  -0.000221  -0.000692
  128  H 19  S    0.000302   0.000888  -0.000674   0.000840  -0.001099
  129  H 19  S    0.000990   0.002604   0.000085   0.000743   0.000201
  130  H 20  S   -0.000628  -0.000595   0.000422   0.000430   0.000394
  131  H 20  S   -0.000401  -0.000363   0.000723   0.002111  -0.000930
  132  H 21  S    0.000151   0.001117   0.001141  -0.000854   0.000936
  133  H 21  S    0.000182   0.001448   0.000851   0.000396   0.001116
  134  H 22  S    0.000902  -0.000721  -0.000511  -0.000109  -0.000146
  135  H 22  S    0.001320   0.000366  -0.000177  -0.000881   0.000389
  136  H 23  S   -0.000023  -0.001121  -0.000767   0.000896  -0.000338
  137  H 23  S   -0.000160  -0.000420   0.000098   0.001586   0.000202

                      6          7          8          9         10
                  -19.0269   -19.0196   -10.2564   -10.2295   -10.1964
                     A          A          A          A          A   
    1  C  1  S   -0.000058   0.000241  -0.002186  -0.004643  -0.006703
    2  C  1  S   -0.000363   0.000906  -0.001974  -0.002312  -0.001277
    3  C  1  X   -0.000165  -0.001290  -0.000469   0.000490  -0.000869
    4  C  1  Y    0.000083   0.000039   0.000042  -0.001031   0.000040
    5  C  1  Z   -0.000237  -0.000070  -0.000239   0.000145  -0.000217
    6  C  1  S    0.002243  -0.006576   0.008907   0.004280   0.000010
    7  C  1  X    0.002550   0.001804   0.005170   0.002874  -0.001986
    8  C  1  Y   -0.000602  -0.000383   0.000961   0.000442  -0.000819
    9  C  1  Z    0.002667   0.006672   0.001265  -0.000611   0.002111
   10  C  2  S   -0.000076  -0.001018  -0.003590   0.002200  -0.030314
   11  C  2  S   -0.000505  -0.004553  -0.002440   0.002025  -0.008261
   12  C  2  X   -0.000422   0.000755  -0.001577  -0.000105   0.000386
   13  C  2  Y   -0.000370  -0.001087  -0.000801  -0.000465  -0.000226
   14  C  2  Z    0.000372  -0.001186   0.000496  -0.000264   0.000448
   15  C  2  S   -0.001822   0.023351   0.002169  -0.010809   0.036085
   16  C  2  X    0.001369   0.000039   0.007642   0.003977   0.005452
   17  C  2  Y    0.001107   0.002923   0.003239  -0.003862   0.018386
   18  C  2  Z   -0.007029  -0.018442  -0.004314  -0.000544   0.001405
   19  C  3  S   -0.000031   0.000075   0.000291  -0.010358   0.000001
   20  C  3  S   -0.000190   0.000843   0.000535  -0.005734   0.000501
   21  C  3  X    0.000042   0.000635   0.000013  -0.000090  -0.000188
   22  C  3  Y   -0.000007  -0.000052   0.000002  -0.000006  -0.000534
   23  C  3  Z    0.000022   0.000142  -0.000078  -0.000510  -0.000014
   24  C  3  S    0.001330   0.000374  -0.003595   0.032224  -0.003474
   25  C  3  X   -0.000398  -0.002728  -0.002247   0.008768  -0.001963
   26  C  3  Y   -0.000992  -0.004297  -0.001424   0.015132   0.000273
   27  C  3  Z   -0.000342  -0.000285  -0.001196   0.009483  -0.002469
   28  C  4  S    0.000023   0.000338  -0.006299  -0.009766   0.986690
   29  C  4  S    0.000026   0.001521  -0.002705  -0.004751   0.117444
   30  C  4  X   -0.000202   0.000316  -0.000898   0.001866  -0.000271
   31  C  4  Y    0.000687   0.001020  -0.000104  -0.000258  -0.000169
   32  C  4  Z   -0.000636  -0.000158   0.000213  -0.000461  -0.000187
   33  C  4  S    0.006258  -0.008966   0.021912   0.011355  -0.111208
   34  C  4  X    0.007442   0.000881   0.018852  -0.015929  -0.003231
   35  C  4  Y   -0.009425  -0.002783   0.002131   0.001660   0.008776
   36  C  4  Z    0.007440   0.008595  -0.001392   0.001517   0.006701
   37  C  5  S   -0.000067  -0.000139  -0.003073   0.986587   0.008761
   38  C  5  S   -0.000677  -0.000616  -0.001724   0.113461  -0.002359
   39  C  5  X   -0.000554   0.000166   0.000125   0.000959  -0.000672
   40  C  5  Y    0.000047  -0.000296   0.000190  -0.001233   0.000786
   41  C  5  Z    0.000079  -0.000042  -0.000109   0.000208  -0.000566
   42  C  5  S    0.001292   0.005178   0.007078  -0.091303   0.009826
   43  C  5  X    0.001361  -0.000331   0.001865   0.001629   0.006111
   44  C  5  Y   -0.000756  -0.000346  -0.002787   0.017257  -0.006213
   45  C  5  Z    0.000006  -0.001657  -0.000371   0.000696   0.003486
   46  H  6  S   -0.000135  -0.000619  -0.000023  -0.000558   0.000368
   47  H  6  S    0.000146  -0.000354   0.000315   0.001599   0.000175
   48  H  7  S    0.000166   0.003286   0.000397   0.000052   0.000667
   49  H  7  S   -0.000538   0.005858   0.000049  -0.000166   0.001029
   50  H  8  S    0.000032   0.000089   0.000083  -0.000539  -0.000097
   51  H  8  S    0.000091  -0.000293   0.000104   0.000744   0.000320
   52  H  9  S    0.000023   0.000100   0.000012   0.000008   0.000065
   53  H  9  S    0.000168  -0.000113   0.000173   0.002160   0.000642
   54  O 10  S    0.982635  -0.020404   0.000454  -0.000069   0.000045
   55  O 10  S    0.108339  -0.001558   0.002101  -0.000637   0.000115
   56  O 10  X   -0.001579  -0.000101   0.001057   0.000032  -0.000178
   57  O 10  Y   -0.003560   0.000072   0.000601   0.000052   0.000190
   58  O 10  Z    0.002785  -0.000095  -0.000550  -0.000006  -0.000149
   59  O 10  S   -0.067379  -0.002063  -0.008728   0.002891  -0.001823
   60  O 10  X    0.006438   0.001107  -0.001103  -0.000273   0.003084
   61  O 10  Y    0.013496   0.000172   0.006650  -0.000513  -0.000111
   62  O 10  Z   -0.010566  -0.000001  -0.004619   0.000237  -0.000069
   63  O 11  S    0.000753  -0.001097   0.000002  -0.000019  -0.000023
   64  O 11  S    0.000038  -0.000235  -0.000021  -0.000256  -0.000270
   65  O 11  X    0.000081   0.000543  -0.000006   0.000026  -0.000337
   66  O 11  Y   -0.000041  -0.000113  -0.000034  -0.000300  -0.000049
   67  O 11  Z    0.000057  -0.000077   0.000001   0.000006   0.000030
   68  O 11  S    0.000267   0.002078   0.000045   0.000202   0.000561
   69  O 11  X   -0.000381  -0.001721  -0.000214  -0.000272   0.001519
   70  O 11  Y    0.000325   0.001374   0.000080   0.001042   0.000290
   71  O 11  Z   -0.000285   0.000400  -0.000085  -0.000022  -0.000244
   72  O 12  S    0.020556   0.982366   0.000095  -0.000032   0.000119
   73  O 12  S    0.002910   0.106005   0.000640  -0.000181   0.000591
   74  O 12  X    0.000001  -0.002186  -0.000282   0.000040  -0.000026
   75  O 12  Y    0.000063  -0.001644  -0.000203  -0.000018  -0.000503
   76  O 12  Z    0.000159   0.002856   0.000059   0.000021  -0.000331
   77  O 12  S   -0.004300  -0.054740  -0.003635   0.001140  -0.004773
   78  O 12  X    0.000195   0.005770   0.000479  -0.000523   0.000420
   79  O 12  Y   -0.000488   0.002414   0.000092   0.000433   0.000350
   80  O 12  Z   -0.001594  -0.010704  -0.001543   0.000494  -0.001197
   81  O 13  S   -0.000063  -0.004076  -0.000004   0.000031  -0.000007
   82  O 13  S    0.000017  -0.000106  -0.000055  -0.000079  -0.000067
   83  O 13  X   -0.000038   0.000044  -0.000076  -0.000274  -0.000087
   84  O 13  Y    0.000000  -0.000056   0.000028  -0.000132  -0.000078
   85  O 13  Z   -0.000047  -0.000065  -0.000086   0.000083  -0.000111
   86  O 13  S   -0.000284  -0.001314  -0.000058  -0.001401   0.000089
   87  O 13  X    0.000017  -0.000588   0.000349  -0.000759   0.000441
   88  O 13  Y    0.000015   0.000384  -0.000066  -0.000709   0.000234
   89  O 13  Z    0.000236   0.000430   0.000419  -0.000651   0.000524
   90  O 14  S    0.001341  -0.001914   0.000005   0.000006  -0.000058
   91  O 14  S    0.000040   0.000064   0.000009   0.000045  -0.000547
   92  O 14  X    0.000034   0.000029   0.000042   0.000217   0.000107
   93  O 14  Y    0.000060   0.000002   0.000020  -0.000001   0.000176
   94  O 14  Z   -0.000011   0.000019  -0.000054   0.000368  -0.000090
   95  O 14  S    0.000345  -0.001218   0.000017   0.006121   0.002764
   96  O 14  X   -0.000149  -0.000402  -0.000308  -0.000128  -0.000270
   97  O 14  Y   -0.000305   0.000422   0.000066  -0.002444  -0.001186
   98  O 14  Z    0.000103  -0.000199   0.000220  -0.000797   0.000545
   99  O 15  S    0.002813   0.001840   0.000182   0.000058  -0.000049
  100  O 15  S   -0.000315  -0.000398   0.001071   0.000445  -0.000787
  101  O 15  X    0.000859  -0.000053   0.000654   0.000024   0.000831
  102  O 15  Y    0.000327  -0.000183   0.000534   0.000004  -0.000404
  103  O 15  Z   -0.000375  -0.000046  -0.000580  -0.000038  -0.000036
  104  O 15  S    0.004740   0.002960   0.003279  -0.002553   0.001564
  105  O 15  X   -0.005634  -0.000450  -0.004029   0.000626  -0.002138
  106  O 15  Y   -0.001651   0.001230  -0.003289  -0.000541   0.001516
  107  O 15  Z    0.002059  -0.000250   0.003263   0.000344  -0.000059
  108  C 16  S    0.000404   0.000021   0.985313   0.002621   0.005700
  109  C 16  S    0.002268   0.000394   0.105737  -0.000635  -0.002026
  110  C 16  X    0.000699  -0.000161  -0.000091  -0.000195   0.000025
  111  C 16  Y    0.001217  -0.000173   0.000176   0.000114  -0.000115
  112  C 16  Z   -0.001092   0.000306  -0.000309  -0.000155  -0.000044
  113  C 16  S    0.018983   0.001682  -0.054065   0.007091   0.025451
  114  C 16  X    0.012423  -0.003294   0.022420  -0.003202  -0.018728
  115  C 16  Y    0.025106   0.003916   0.010157  -0.004053   0.000586
  116  C 16  Z   -0.019666  -0.003338  -0.010872   0.003895   0.000992
  117  H 17  S    0.001460  -0.000233   0.001540   0.000135   0.000452
  118  H 17  S   -0.000536   0.000569   0.001340   0.000100   0.002624
  119  O 18  S    0.006136   0.001786   0.000015  -0.000004  -0.000085
  120  O 18  S   -0.000145  -0.000253  -0.000164   0.000106  -0.000467
  121  O 18  X    0.000348  -0.000263  -0.000665  -0.000325  -0.000135
  122  O 18  Y    0.000188  -0.000021   0.000212  -0.000317  -0.000283
  123  O 18  Z   -0.000137  -0.000022   0.000144   0.000669   0.000626
  124  O 18  S    0.004624   0.003185  -0.000791   0.005649   0.009199
  125  O 18  X    0.000061   0.002346   0.002099  -0.004163   0.004774
  126  O 18  Y   -0.002218  -0.001509  -0.000860   0.002152  -0.003176
  127  O 18  Z    0.001007   0.000318  -0.000578  -0.002373  -0.001296
  128  H 19  S   -0.000434  -0.000682  -0.000795  -0.000107   0.000028
  129  H 19  S   -0.001097  -0.000562  -0.000743  -0.000905  -0.002133
  130  H 20  S    0.000519  -0.000804  -0.000220   0.000142  -0.001620
  131  H 20  S    0.001289   0.001473  -0.000382  -0.000131   0.001912
  132  H 21  S   -0.000104  -0.000026   0.000258  -0.001934   0.000082
  133  H 21  S   -0.000304   0.000081  -0.000359   0.003050  -0.000819
  134  H 22  S   -0.001205  -0.000857  -0.001885  -0.001359   0.001242
  135  H 22  S   -0.002056  -0.000723   0.002238  -0.002995   0.016412
  136  H 23  S   -0.000219  -0.000061  -0.000421   0.000719  -0.001453
  137  H 23  S    0.000354  -0.000154  -0.000621   0.016778  -0.002481

                     11         12         13         14         15
                  -10.1806   -10.1798   -10.1747    -1.1162    -1.0877
                     A          A          A          A          A   
    1  C  1  S   -0.682251   0.709381   0.075702  -0.003204  -0.017424
    2  C  1  S   -0.083564   0.082023   0.005798   0.004507   0.018340
    3  C  1  X    0.000021   0.000881  -0.000309   0.001431  -0.000946
    4  C  1  Y   -0.000920   0.000632   0.000425   0.000760   0.003877
    5  C  1  Z    0.000613  -0.000138   0.000041  -0.001140  -0.006469
    6  C  1  S    0.095876  -0.061353   0.018041  -0.002633   0.022274
    7  C  1  X    0.016814   0.007351  -0.010800  -0.006030  -0.011494
    8  C  1  Y    0.010098  -0.009726   0.014089   0.002041   0.006388
    9  C  1  Z   -0.008178   0.002926  -0.003766   0.002005   0.008919
   10  C  2  S    0.713960   0.678038   0.064217  -0.008853  -0.018927
   11  C  2  S    0.087080   0.077973   0.004181   0.011002   0.017539
   12  C  2  X   -0.000480  -0.001051   0.001681   0.004241  -0.003191
   13  C  2  Y    0.000879   0.000732  -0.000830   0.005845   0.011857
   14  C  2  Z   -0.000061   0.000483   0.000462  -0.002156  -0.005937
   15  C  2  S   -0.098651  -0.053607   0.003877   0.007193   0.040163
   16  C  2  X    0.019020  -0.005274  -0.007022  -0.011605  -0.016310
   17  C  2  Y   -0.009930  -0.008330   0.002859  -0.004774  -0.000389
   18  C  2  Z   -0.002577  -0.003756  -0.003302  -0.000003   0.000391
   19  C  3  S    0.006045  -0.100244   0.982005  -0.004883  -0.034645
   20  C  3  S    0.001315  -0.015995   0.116199   0.004729   0.034334
   21  C  3  X   -0.001328  -0.001005   0.000956   0.001800   0.001299
   22  C  3  Y    0.000625   0.000470   0.000012   0.002389   0.015597
   23  C  3  Z   -0.000135   0.000078   0.000824   0.001598   0.010399
   24  C  3  S   -0.018068   0.034447  -0.107857   0.008774   0.054591
   25  C  3  X   -0.001478   0.012171  -0.012555   0.004062   0.011971
   26  C  3  Y    0.011718  -0.010511  -0.002523   0.001944   0.010605
   27  C  3  Z   -0.003010   0.003387  -0.009851  -0.002834  -0.019360
   28  C  4  S    0.016320   0.024714   0.002589  -0.030433  -0.046785
   29  C  4  S   -0.000856  -0.000423   0.000522   0.029406   0.051909
   30  C  4  X   -0.000782   0.000841  -0.000023   0.012199  -0.040579
   31  C  4  Y   -0.001190   0.000325   0.000072   0.010772   0.037536
   32  C  4  Z    0.000690  -0.000229   0.000557  -0.010336  -0.019465
   33  C  4  S    0.022676   0.014866  -0.001544   0.035557   0.080518
   34  C  4  X   -0.005105  -0.014197   0.003431  -0.004855   0.031073
   35  C  4  Y   -0.008218  -0.010353   0.000119  -0.009731  -0.012542
   36  C  4  Z   -0.009124  -0.001703  -0.001094   0.003959   0.001597
   37  C  5  S   -0.003925   0.001258   0.009219  -0.015902  -0.098153
   38  C  5  S    0.001762   0.000176  -0.003995   0.019183   0.108718
   39  C  5  X   -0.000247   0.000465  -0.000111   0.009747   0.030069
   40  C  5  Y   -0.000800   0.000846  -0.000088   0.002952   0.035698
   41  C  5  Z    0.000476  -0.000012  -0.000181  -0.005460  -0.037648
   42  C  5  S   -0.006571  -0.004915   0.034172   0.015143   0.134247
   43  C  5  X   -0.001921  -0.001094  -0.006854  -0.004014  -0.002262
   44  C  5  Y    0.005086   0.002220  -0.016986  -0.000007  -0.017131
   45  C  5  Z   -0.001627   0.002206  -0.005197   0.003812   0.025603
   46  H  6  S    0.000393   0.000141  -0.000112   0.001108   0.008597
   47  H  6  S   -0.000398   0.002550   0.001016  -0.000160   0.001349
   48  H  7  S    0.000382  -0.000662   0.000452   0.003555   0.009050
   49  H  7  S    0.001067   0.003050  -0.000880  -0.000429   0.000642
   50  H  8  S   -0.000139   0.000405  -0.000248   0.001687   0.017972
   51  H  8  S   -0.000261   0.001531   0.002732  -0.000034   0.003516
   52  H  9  S   -0.000108   0.000191   0.000342   0.006100   0.056745
   53  H  9  S   -0.000883   0.000207   0.001760   0.001438   0.012057
   54  O 10  S   -0.000011  -0.000030  -0.000018  -0.119466   0.018314
   55  O 10  S   -0.000082  -0.000309  -0.000159   0.111474  -0.015299
   56  O 10  X    0.000053  -0.000103   0.000040  -0.028639   0.001163
   57  O 10  Y   -0.000032  -0.000031  -0.000014  -0.074643   0.012188
   58  O 10  Z    0.000024  -0.000095  -0.000019   0.057851  -0.008882
   59  O 10  S    0.000544   0.001475   0.000779   0.361943  -0.067582
   60  O 10  X   -0.000527   0.000663  -0.000327  -0.015486   0.000501
   61  O 10  Y   -0.000027   0.000040  -0.000032  -0.076928   0.015371
   62  O 10  Z   -0.000170   0.000279   0.000162   0.057483  -0.010549
   63  O 11  S    0.000144  -0.000058   0.000019  -0.002613  -0.017665
   64  O 11  S    0.000772  -0.000436  -0.000093   0.002282   0.016236
   65  O 11  X   -0.000235  -0.000315  -0.000209  -0.000185  -0.003068
   66  O 11  Y   -0.000321  -0.000037  -0.000184   0.001307   0.008359
   67  O 11  Z   -0.000336   0.000192  -0.000018   0.000436   0.003093
   68  O 11  S   -0.008975   0.005846  -0.000115   0.008476   0.053303
   69  O 11  X   -0.001483   0.001623   0.001420   0.000074  -0.001540
   70  O 11  Y   -0.002738   0.002652  -0.000636   0.001583   0.009223
   71  O 11  Z    0.000149   0.000060   0.000256   0.000469   0.002557
   72  O 12  S   -0.000167  -0.000077   0.000094  -0.008979  -0.019436
   73  O 12  S   -0.000976  -0.000775   0.000791   0.008115   0.018225
   74  O 12  X   -0.000234   0.000332  -0.000230  -0.001854  -0.006515
   75  O 12  Y   -0.000293  -0.000299   0.000141  -0.000460  -0.002421
   76  O 12  Z    0.000362  -0.000123   0.000149   0.004295   0.008315
   77  O 12  S    0.010713   0.006031  -0.002536   0.027379   0.055810
   78  O 12  X   -0.001374  -0.001003   0.001576  -0.000945  -0.004899
   79  O 12  Y    0.002344   0.001975  -0.000880  -0.000691  -0.002087
   80  O 12  Z    0.003509   0.002429  -0.001328   0.004892   0.007974
   81  O 13  S   -0.000108  -0.000008  -0.000146  -0.003408  -0.035852
   82  O 13  S   -0.000817  -0.000395  -0.000926   0.003081   0.033125
   83  O 13  X    0.000035  -0.000586   0.000078   0.001333   0.011517
   84  O 13  Y    0.000090   0.000298   0.000019   0.001240   0.012905
   85  O 13  Z    0.000051  -0.000049  -0.000456  -0.000796  -0.009306
   86  O 13  S    0.004010  -0.000183   0.010465   0.010884   0.108751
   87  O 13  X    0.001537   0.001151   0.004719   0.001391   0.014081
   88  O 13  Y   -0.000956  -0.000627   0.000332   0.000932   0.010367
   89  O 13  Z   -0.000422   0.000149   0.001111  -0.001184  -0.009106
   90  O 14  S    0.000058  -0.000032   0.000072  -0.014587  -0.125359
   91  O 14  S    0.000607  -0.000313   0.000299   0.013249   0.114946
   92  O 14  X   -0.000023   0.000039   0.000029   0.006611   0.053058
   93  O 14  Y   -0.000321   0.000212   0.000493  -0.002257  -0.013830
   94  O 14  Z   -0.000025   0.000096  -0.000036   0.004663   0.039250
   95  O 14  S   -0.002227   0.000925  -0.002497   0.043423   0.381410
   96  O 14  X   -0.000024  -0.000015  -0.000272   0.008725   0.062141
   97  O 14  Y    0.001569  -0.001184   0.000106  -0.002887  -0.021423
   98  O 14  Z   -0.000087  -0.000444  -0.000085   0.004428   0.041258
   99  O 15  S    0.000035   0.000065   0.000016  -0.159727   0.042665
  100  O 15  S    0.000355   0.000485   0.000135   0.147276  -0.041128
  101  O 15  X   -0.000141  -0.000058  -0.000008   0.006587  -0.004796
  102  O 15  Y    0.000013   0.000015   0.000022   0.070780  -0.017929
  103  O 15  Z    0.000095   0.000143   0.000024  -0.053881   0.014299
  104  O 15  S   -0.001093  -0.002451  -0.000654   0.486191  -0.122222
  105  O 15  X    0.000685   0.001292   0.000195   0.009694  -0.004986
  106  O 15  Y   -0.000243  -0.000415  -0.000177   0.086655  -0.019055
  107  O 15  Z   -0.000238  -0.000203   0.000007  -0.065782   0.014557
  108  C 16  S    0.001233   0.003555   0.000231  -0.127200   0.018272
  109  C 16  S   -0.000185  -0.002308  -0.000087   0.143280  -0.019812
  110  C 16  X    0.000586   0.000861   0.000053   0.079357  -0.030111
  111  C 16  Y    0.000218   0.000640   0.000109   0.014870   0.004979
  112  C 16  Z   -0.000026  -0.000098  -0.000070  -0.021534   0.001432
  113  C 16  S   -0.001981   0.010372  -0.001393   0.115539  -0.031569
  114  C 16  X    0.002179  -0.005986   0.000990  -0.046317   0.011541
  115  C 16  Y    0.000004  -0.003078  -0.001034  -0.012673   0.021377
  116  C 16  Z    0.001545   0.003035   0.000390   0.018271  -0.018113
  117  H 17  S   -0.000067  -0.000120   0.000016   0.069394  -0.021020
  118  H 17  S   -0.000445   0.000336  -0.000162   0.014199  -0.003889
  119  O 18  S   -0.000009   0.000062   0.000014  -0.037620  -0.148375
  120  O 18  S   -0.000423   0.000381  -0.000309   0.034170   0.134069
  121  O 18  X    0.000173  -0.000255   0.000302  -0.001980  -0.040851
  122  O 18  Y    0.000388  -0.000093   0.000151  -0.013799  -0.042857
  123  O 18  Z   -0.000078   0.000051  -0.000036   0.009715   0.038596
  124  O 18  S   -0.000410  -0.001754  -0.000750   0.114824   0.460024
  125  O 18  X   -0.002106   0.000420   0.000985  -0.008559  -0.047421
  126  O 18  Y    0.000243   0.002302   0.000218  -0.013536  -0.050463
  127  O 18  Z    0.000590  -0.000596   0.000296   0.012222   0.046848
  128  H 19  S   -0.001716  -0.000289  -0.001977   0.001239   0.004831
  129  H 19  S   -0.009623   0.012295   0.002382  -0.001186  -0.006366
  130  H 20  S    0.001072  -0.000544  -0.000279   0.003295   0.004807
  131  H 20  S    0.009642   0.010897   0.005098   0.002577  -0.005754
  132  H 21  S    0.000794  -0.002246   0.000607   0.000959   0.008194
  133  H 21  S   -0.000377  -0.001531   0.015625  -0.001298  -0.009799
  134  H 22  S   -0.000843  -0.001475   0.000621   0.008790   0.013671
  135  H 22  S    0.003607   0.000076   0.000083  -0.006935  -0.003390
  136  H 23  S    0.001036   0.000334  -0.002493   0.004560   0.025781
  137  H 23  S    0.001041  -0.001811   0.000683  -0.001172  -0.014210

                     16         17         18         19         20
                   -1.0451    -1.0335    -1.0260    -1.0153    -1.0081
                     A          A          A          A          A   
    1  C  1  S   -0.074129   0.010558   0.006069  -0.020425   0.031021
    2  C  1  S    0.074858  -0.012017  -0.004764   0.023824  -0.034971
    3  C  1  X   -0.023201  -0.014810  -0.009059  -0.006146   0.034118
    4  C  1  Y   -0.044104   0.013531   0.009049  -0.036321   0.043474
    5  C  1  Z   -0.033543   0.006765   0.004679  -0.012210   0.013873
    6  C  1  S    0.122607  -0.001338  -0.021371   0.036187  -0.048413
    7  C  1  X   -0.008126  -0.009401  -0.017518  -0.000750  -0.024243
    8  C  1  Y    0.019597  -0.007363   0.003184  -0.001536  -0.012924
    9  C  1  Z    0.003930   0.002867   0.000200  -0.016769  -0.036558
   10  C  2  S   -0.042999   0.042607   0.027240  -0.006115  -0.054752
   11  C  2  S    0.044872  -0.043969  -0.024373   0.004761   0.059302
   12  C  2  X   -0.012771  -0.005114  -0.001345  -0.003755   0.018387
   13  C  2  Y   -0.008714  -0.004213   0.004510  -0.015950  -0.011095
   14  C  2  Z   -0.031836   0.032240   0.020213  -0.013632  -0.073104
   15  C  2  S    0.072859  -0.068396  -0.040206   0.022951   0.108175
   16  C  2  X   -0.003766   0.016379  -0.009777  -0.003425   0.003115
   17  C  2  Y   -0.019777   0.000878  -0.013908  -0.000029   0.003850
   18  C  2  Z    0.011872  -0.005092   0.022069   0.017280   0.042929
   19  C  3  S   -0.048600  -0.041206  -0.026401   0.034723  -0.010205
   20  C  3  S    0.049882   0.042127   0.028588  -0.037654   0.011971
   21  C  3  X   -0.034716  -0.052847  -0.035414   0.040134  -0.024501
   22  C  3  Y   -0.022442   0.006745  -0.000082  -0.001826   0.008778
   23  C  3  Z    0.013282   0.012656   0.008709  -0.012093   0.002081
   24  C  3  S    0.075133   0.072291   0.041036  -0.062012   0.009406
   25  C  3  X    0.006698   0.001800   0.008065  -0.023135   0.011938
   26  C  3  Y   -0.004122   0.016806   0.003172   0.012059   0.031175
   27  C  3  Z   -0.008429  -0.010746  -0.003974  -0.002922   0.006070
   28  C  4  S    0.001083   0.046651   0.008258   0.039978   0.008418
   29  C  4  S   -0.003551  -0.045717  -0.010236  -0.040056  -0.011520
   30  C  4  X    0.001175   0.023336   0.007165   0.023543   0.011676
   31  C  4  Y   -0.018551  -0.024153   0.007586  -0.032013  -0.029803
   32  C  4  Z    0.000250   0.021071   0.000637   0.014178   0.000246
   33  C  4  S    0.013608  -0.080872  -0.023135  -0.082262  -0.020941
   34  C  4  X    0.008937   0.011465  -0.030339   0.007403  -0.005000
   35  C  4  Y    0.005316  -0.007464   0.032721   0.024256   0.023672
   36  C  4  Z   -0.014210   0.009070  -0.027516  -0.022673  -0.030812
   37  C  5  S    0.017697  -0.017874   0.005018  -0.009536   0.003561
   38  C  5  S   -0.018103   0.018319  -0.004839   0.012074  -0.002282
   39  C  5  X   -0.011511  -0.064579  -0.009425  -0.059309  -0.034199
   40  C  5  Y   -0.028206   0.035806  -0.009115   0.064507   0.013792
   41  C  5  Z    0.008649  -0.014850   0.001875  -0.015366  -0.003572
   42  C  5  S   -0.031068   0.021692  -0.009819   0.010222  -0.027410
   43  C  5  X   -0.012207  -0.000807  -0.011602   0.014495   0.001025
   44  C  5  Y    0.011363  -0.007485   0.004760  -0.007589  -0.002346
   45  C  5  Z   -0.001364   0.017545   0.002261   0.005598   0.014616
   46  H  6  S    0.078683  -0.009116  -0.005937   0.041881  -0.065416
   47  H  6  S    0.014870   0.001743   0.000988   0.002273  -0.012215
   48  H  7  S    0.042592  -0.041471  -0.029240   0.015918   0.084545
   49  H  7  S    0.009652  -0.005843  -0.001841   0.007105   0.010853
   50  H  8  S    0.049746   0.061585   0.042906  -0.058305   0.027362
   51  H  8  S    0.006528   0.014181   0.007634  -0.007561   0.007241
   52  H  9  S   -0.022409   0.052132  -0.006138   0.073335   0.018538
   53  H  9  S   -0.006440   0.009342  -0.002251   0.013520   0.004346
   54  O 10  S    0.008193   0.052962  -0.155147  -0.054927  -0.015763
   55  O 10  S   -0.008251  -0.050468   0.146653   0.051326   0.013791
   56  O 10  X    0.002760   0.018847  -0.044314  -0.012755  -0.003852
   57  O 10  Y    0.003995   0.025902  -0.078864  -0.028711  -0.008377
   58  O 10  Z   -0.003669  -0.021263   0.063569   0.022260   0.005818
   59  O 10  S   -0.022153  -0.166147   0.496182   0.181418   0.059378
   60  O 10  X    0.000256   0.018369  -0.043775  -0.014765  -0.006109
   61  O 10  Y    0.004080   0.022411  -0.074029  -0.027487  -0.007814
   62  O 10  Z   -0.002375  -0.019808   0.060358   0.022558   0.007396
   63  O 11  S   -0.155730   0.022831   0.015090  -0.082215   0.123928
   64  O 11  S    0.145133  -0.019911  -0.013808   0.077373  -0.114304
   65  O 11  X   -0.034653   0.001228   0.000662  -0.019174   0.037125
   66  O 11  Y    0.062432  -0.008191  -0.005232   0.028787  -0.041888
   67  O 11  Z    0.025449  -0.002847  -0.002032   0.012684  -0.020666
   68  O 11  S    0.473353  -0.076283  -0.047060   0.251172  -0.396366
   69  O 11  X   -0.026540  -0.000059   0.001541  -0.017385   0.035702
   70  O 11  Y    0.069536  -0.010396  -0.005767   0.030185  -0.056370
   71  O 11  Z    0.028140  -0.005066  -0.001406   0.014891  -0.027145
   72  O 12  S   -0.080284   0.083689   0.057031  -0.027232  -0.168959
   73  O 12  S    0.074786  -0.078216  -0.055549   0.024807   0.155687
   74  O 12  X   -0.026744   0.025493   0.017457  -0.009587  -0.049054
   75  O 12  Y   -0.020276   0.018281   0.013702  -0.009491  -0.042353
   76  O 12  Z    0.026865  -0.028011  -0.018958   0.006649   0.048524
   77  O 12  S    0.242194  -0.253921  -0.161936   0.087590   0.533815
   78  O 12  X   -0.028527   0.024352   0.017135  -0.010015  -0.051738
   79  O 12  Y   -0.016851   0.018246   0.016596  -0.008528  -0.041154
   80  O 12  Z    0.031830  -0.032417  -0.015299   0.012012   0.064705
   81  O 13  S   -0.101778  -0.118364  -0.082908   0.111377  -0.050050
   82  O 13  S    0.094705   0.110930   0.077239  -0.103336   0.046299
   83  O 13  X    0.025260   0.024185   0.016050  -0.019437   0.006701
   84  O 13  Y    0.029093   0.041265   0.027932  -0.037967   0.020382
   85  O 13  Z   -0.026992  -0.032110  -0.022137   0.029277  -0.013432
   86  O 13  S    0.310260   0.360551   0.256898  -0.350204   0.159715
   87  O 13  X    0.030764   0.033669   0.022637  -0.028161   0.013164
   88  O 13  Y    0.027434   0.038828   0.027669  -0.039035   0.019994
   89  O 13  Z   -0.028418  -0.031588  -0.024044   0.034308  -0.016548
   90  O 14  S    0.044261  -0.102304   0.011238  -0.135989  -0.035392
   91  O 14  S   -0.040500   0.095314  -0.010042   0.127325   0.032141
   92  O 14  X   -0.019385   0.033856  -0.006096   0.048640   0.009793
   93  O 14  Y   -0.000851  -0.002168  -0.001590   0.006892   0.001162
   94  O 14  Z   -0.013430   0.030934  -0.003276   0.040383   0.010312
   95  O 14  S   -0.140445   0.320623  -0.037546   0.429748   0.117697
   96  O 14  X   -0.022352   0.034674  -0.007017   0.051094   0.011583
   97  O 14  Y    0.003863  -0.012240   0.000312  -0.005044  -0.005548
   98  O 14  Z   -0.016714   0.034111  -0.005255   0.047734   0.012499
   99  O 15  S   -0.005400  -0.069346   0.128786   0.032914   0.015055
  100  O 15  S    0.005767   0.064902  -0.120425  -0.030001  -0.012411
  101  O 15  X    0.000082   0.011530  -0.016015  -0.002763  -0.003280
  102  O 15  Y    0.001558   0.022469  -0.037483  -0.008464  -0.004448
  103  O 15  Z   -0.001676  -0.018857   0.032133   0.006878   0.002992
  104  O 15  S    0.013729   0.225198  -0.426556  -0.115598  -0.059917
  105  O 15  X   -0.000138   0.000810   0.002999   0.002390   0.001569
  106  O 15  Y   -0.000131   0.026544  -0.044402  -0.011743  -0.008885
  107  O 15  Z    0.000061  -0.019676   0.033052   0.008764   0.006190
  108  C 16  S    0.002828   0.016432  -0.045323  -0.013985  -0.004532
  109  C 16  S   -0.002414  -0.015827   0.048217   0.015737   0.002719
  110  C 16  X   -0.000842   0.018112   0.014041   0.019970   0.002137
  111  C 16  Y   -0.008604  -0.060685   0.152215   0.048127   0.013685
  112  C 16  Z    0.005162   0.040319  -0.108045  -0.037591  -0.012393
  113  C 16  S   -0.012529  -0.023333   0.050102   0.003988   0.007107
  114  C 16  X    0.011530   0.007131  -0.013202   0.006838   0.005250
  115  C 16  Y   -0.006670   0.016477  -0.050442  -0.028064  -0.026600
  116  C 16  Z   -0.000461  -0.010423   0.040040   0.016508   0.012400
  117  H 17  S    0.003081   0.036831  -0.066359  -0.015941  -0.007569
  118  H 17  S   -0.001444   0.006931  -0.010832  -0.003768  -0.003545
  119  O 18  S    0.030914   0.089463   0.015288   0.095749   0.055075
  120  O 18  S   -0.028619  -0.084161  -0.011903  -0.087613  -0.049115
  121  O 18  X    0.009880  -0.001024   0.007182   0.003772   0.008587
  122  O 18  Y    0.004309   0.039906   0.003677   0.041989   0.016447
  123  O 18  Z   -0.008633  -0.025658  -0.004209  -0.028106  -0.016140
  124  O 18  S   -0.094754  -0.270085  -0.061918  -0.311400  -0.185321
  125  O 18  X    0.005137   0.004623   0.008698   0.009323   0.002971
  126  O 18  Y    0.006805   0.043496   0.015147   0.050340   0.028747
  127  O 18  Z   -0.007476  -0.030872  -0.008817  -0.037815  -0.022639
  128  H 19  S    0.020365  -0.003290  -0.001043   0.007098  -0.007107
  129  H 19  S   -0.009300   0.000390   0.003302   0.003244   0.010769
  130  H 20  S    0.010386  -0.012449  -0.008904   0.000733   0.013690
  131  H 20  S   -0.011649   0.004942  -0.008521  -0.001511  -0.014798
  132  H 21  S    0.013647   0.009983   0.006827  -0.009652   0.003430
  133  H 21  S   -0.005854  -0.009802  -0.004884   0.004124   0.006551
  134  H 22  S    0.000281  -0.014085  -0.000336  -0.009092  -0.000480
  135  H 22  S    0.003240   0.005983   0.004851   0.008510   0.006816
  136  H 23  S   -0.004035   0.003088  -0.001234   0.001330  -0.002288
[...]
   13             0.243021
   14             0.018424
   15             0.007619
   16             0.001965
   17             0.000141
   18             0.057261
   19             0.003530
   20             0.108226
   21             0.023088
   22             0.000170
   23             0.031217

               ----- POPULATIONS IN EACH AO -----
                             MULLIKEN      LOWDIN
              1  C  1  S      1.98874     1.97353
              2  C  1  S      0.36771     0.43659
              3  C  1  X      0.57447     0.56003
              4  C  1  Y      0.49190     0.47458
              5  C  1  Z      0.56561     0.52930
              6  C  1  S      1.00673     0.55223
              7  C  1  X      0.33020     0.49387
              8  C  1  Y      0.23820     0.43142
              9  C  1  Z      0.44810     0.53267
             10  C  2  S      1.98864     1.97356
             11  C  2  S      0.37092     0.43530
             12  C  2  X      0.57596     0.55544
             13  C  2  Y      0.57207     0.54319
             14  C  2  Z      0.47879     0.45715
             15  C  2  S      0.98218     0.55108
             16  C  2  X      0.34015     0.50258
             17  C  2  Y      0.40167     0.52531
             18  C  2  Z      0.23477     0.42284
             19  C  3  S      1.98861     1.97353
             20  C  3  S      0.37071     0.44057
             21  C  3  X      0.45768     0.44305
             22  C  3  Y      0.59543     0.57897
             23  C  3  Z      0.59902     0.56475
             24  C  3  S      0.98259     0.54936
             25  C  3  X      0.21571     0.40903
             26  C  3  Y      0.30288     0.49217
             27  C  3  Z      0.49175     0.56255
             28  C  4  S      1.98859     1.97336
             29  C  4  S      0.37094     0.43867
             30  C  4  X      0.53539     0.52300
             31  C  4  Y      0.51220     0.49188
             32  C  4  Z      0.58382     0.54282
             33  C  4  S      1.02486     0.55751
             34  C  4  X      0.31089     0.48121
             35  C  4  Y      0.26082     0.45327
             36  C  4  Z      0.46380     0.54037
             37  C  5  S      1.98728     1.97298
             38  C  5  S      0.38817     0.44039
             39  C  5  X      0.45722     0.43531
             40  C  5  Y      0.54020     0.52587
             41  C  5  Z      0.58323     0.53795
             42  C  5  S      0.87110     0.55230
             43  C  5  X      0.21188     0.40205
             44  C  5  Y      0.27293     0.44368
             45  C  5  Z      0.41134     0.52822
             46  H  6  S      0.41394     0.42361
             47  H  6  S      0.22162     0.33011
             48  H  7  S      0.41022     0.42037
             49  H  7  S      0.23711     0.34604
             50  H  8  S      0.41831     0.42786
             51  H  8  S      0.22108     0.32529
             52  H  9  S      0.41860     0.42767
             53  H  9  S      0.21941     0.32032
             54  O 10  S      1.98618     1.98053
             55  O 10  S      0.43831     0.59501
             56  O 10  X      0.79382     0.78469
             57  O 10  Y      0.68353     0.67048
             58  O 10  Z      0.63772     0.62377
             59  O 10  S      1.55487     1.04296
             60  O 10  X      0.86321     0.91902
             61  O 10  Y      0.76601     0.81027
             62  O 10  Z      0.73021     0.76898
             63  O 11  S      1.98484     1.97907
             64  O 11  S      0.42342     0.58076
             65  O 11  X      0.63143     0.60587
             66  O 11  Y      0.70373     0.69794
             67  O 11  Z      0.79327     0.79071
             68  O 11  S      1.51481     1.04747
             69  O 11  X      0.72328     0.76180
             70  O 11  Y      0.85324     0.89515
             71  O 11  Z      0.93197     0.96673
             72  O 12  S      1.98499     1.97927
             73  O 12  S      0.42398     0.58343
             74  O 12  X      0.77231     0.76659
             75  O 12  Y      0.75518     0.74607
             76  O 12  Z      0.59830     0.58017
             77  O 12  S      1.52379     1.05244
             78  O 12  X      0.92161     0.94076
             79  O 12  Y      0.87892     0.90841
             80  O 12  Z      0.70367     0.77920
             81  O 13  S      1.98478     1.97901
             82  O 13  S      0.42236     0.57919
             83  O 13  X      0.58562     0.56527
             84  O 13  Y      0.70386     0.68878
             85  O 13  Z      0.84220     0.84465
             86  O 13  S      1.51537     1.04619
             87  O 13  X      0.68614     0.75035
             88  O 13  Y      0.84289     0.86990
             89  O 13  Z      0.99043     1.01010
             90  O 14  S      1.98488     1.97895
             91  O 14  S      0.42277     0.57923
             92  O 14  X      0.75415     0.74909
             93  O 14  Y      0.57647     0.54701
             94  O 14  Z      0.80934     0.80908
             95  O 14  S      1.51410     1.03624
             96  O 14  X      0.91886     0.94134
             97  O 14  Y      0.63721     0.69512
             98  O 14  Z      0.95462     0.98329
             99  O 15  S      1.98513     1.97917
            100  O 15  S      0.42530     0.58597
            101  O 15  X      0.62108     0.59417
            102  O 15  Y      0.74053     0.73684
            103  O 15  Z      0.77622     0.77424
            104  O 15  S      1.51257     1.02568
            105  O 15  X      0.68561     0.73087
            106  O 15  Y      0.87895     0.90748
            107  O 15  Z      0.93510     0.94272
            108  C 16  S      1.98508     1.97358
            109  C 16  S      0.43780     0.44349
            110  C 16  X      0.57399     0.54801
            111  C 16  Y      0.51978     0.48937
            112  C 16  Z      0.49932     0.47189
            113  C 16  S      0.53188     0.50898
            114  C 16  X      0.31184     0.45550
            115  C 16  Y      0.17499     0.42872
            116  C 16  Z      0.29447     0.45983
            117  H 17  S      0.41352     0.42021
            118  H 17  S      0.21700     0.32053
            119  O 18  S      1.98552     1.97945
            120  O 18  S      0.42438     0.58708
            121  O 18  X      0.59185     0.57445
            122  O 18  Y      0.70406     0.69591
            123  O 18  Z      0.82237     0.81988
            124  O 18  S      1.52741     1.01798
            125  O 18  X      0.66908     0.73359
            126  O 18  Y      0.83479     0.87649
            127  O 18  Z      0.92516     0.96992
            128  H 19  S      0.47823     0.48481
            129  H 19  S      0.32934     0.43884
            130  H 20  S      0.47815     0.48557
            131  H 20  S      0.30741     0.42845
            132  H 21  S      0.47309     0.48286
            133  H 21  S      0.29981     0.42764
            134  H 22  S      0.47246     0.48088
            135  H 22  S      0.30946     0.42890
            136  H 23  S      0.48418     0.49429
            137  H 23  S      0.34439     0.45863

          ----- MULLIKEN ATOMIC OVERLAP POPULATIONS -----
          (OFF-DIAGONAL ELEMENTS NEED TO BE MULTIPLIED BY 2)

             1           2           3           4           5

    1    5.6083735
    2    0.1144603   5.5385520
    3    0.0985233  -0.0702475   5.7589499
    4   -0.0539019   0.0849809  -0.0097170   5.7625172
    5   -0.0560631   0.0016294   0.0057073  -0.0643410   5.2207058
    6   -0.0601651   0.0070858  -0.0042970  -0.0002004   0.0010664
    7   -0.0092372  -0.0699499  -0.0003848   0.0081109  -0.0000127
    8    0.0071641  -0.0002081  -0.0556754  -0.0000043  -0.0048375
    9   -0.0001794   0.0000301   0.0069466  -0.0002180  -0.0411942
   10   -0.0000220  -0.0003310  -0.0000027  -0.0764251   0.0000449
   11    0.2401882  -0.0438656  -0.0338358   0.0014034   0.0022389
   12   -0.0415487   0.2524660  -0.0068816  -0.0495115  -0.0000431
   13   -0.0422887   0.0018036   0.2290072   0.0001117  -0.0323736
   14    0.0017326  -0.0000483  -0.0415462   0.0015291   0.2550673
   15    0.0001307   0.0099278  -0.0000011  -0.1072850  -0.0000086
   16    0.0040652  -0.0661632  -0.0001204   0.0673807   0.0037716
   17    0.0000013  -0.0004392   0.0000002   0.0098154   0.0000010
   18   -0.0053909  -0.0353870  -0.0326111   0.2249332   0.2022591
   19    0.3137633  -0.0439524  -0.0561782   0.0013912  -0.0022627
   20   -0.0514216   0.3276927   0.0055499  -0.0554683   0.0000228
   21   -0.0543211  -0.0018912   0.2962456  -0.0009663  -0.0563047
   22   -0.0020515  -0.0590620  -0.0007652   0.3106771  -0.0073393
   23   -0.0001618  -0.0019285  -0.0842816  -0.0035079   0.2956089

             6           7           8           9          10

    6    0.4249445
    7   -0.0015236   0.4358436
    8   -0.0008371  -0.0000016   0.4293716
    9    0.0000002   0.0000001  -0.0004547   0.4230355
   10   -0.0000000   0.0000041   0.0000000  -0.0000005   8.0469727
   11    0.2473734   0.0437943   0.0000105   0.0000001   0.0000000
   12    0.0001735   0.2392527   0.0000031   0.0000000  -0.0001591
   13    0.0233329  -0.0000362   0.2518136  -0.0000062  -0.0000000
   14   -0.0000021  -0.0000000   0.0139787   0.2492802  -0.0000000
   15    0.0000000  -0.0000045  -0.0000000   0.0000000  -0.0559150
   16    0.0000016  -0.0004069  -0.0000000  -0.0000121   0.5342379
   17    0.0000000   0.0000018   0.0000000  -0.0000000   0.0045005
   18   -0.0000027  -0.0001155   0.0001117   0.0033768   0.0003227
   19   -0.0002705   0.0013513  -0.0001194   0.0000039   0.0000002
   20   -0.0001325  -0.0011377   0.0000019  -0.0000004   0.0000258
   21   -0.0009776   0.0019424  -0.0011431  -0.0001747   0.0000012
   22   -0.0000016  -0.0001648   0.0000018  -0.0000101   0.0006120
   23   -0.0000142  -0.0000021   0.0002158  -0.0024174  -0.0000008

            11          12          13          14          15

   11    8.1470279
   12   -0.0081217   8.1796494
   13   -0.0031260   0.0000041   8.1730506
   14   -0.0000004   0.0000001  -0.0016799   8.1652774
   15   -0.0000000  -0.0006694  -0.0000000   0.0000000   8.2794779
   16   -0.0000127   0.0103021   0.0000003  -0.0000237   0.1830479
   17   -0.0000000  -0.0000040   0.0000000  -0.0000000   0.2391730
   18   -0.0000012   0.0000735   0.0002472  -0.0297712   0.0002529
   19   -0.0337899   0.0017458   0.0014167  -0.0000367   0.0000011
   20   -0.0001661  -0.0338230  -0.0000077   0.0000005   0.0084793
   21    0.0008787   0.0181239  -0.0307326   0.0017224   0.0000008
   22   -0.0000067   0.0017265   0.0000045  -0.0000385   0.0038811
   23   -0.0000232  -0.0000068   0.0031058  -0.0430609   0.0000009

            16          17          18          19          20

   16    4.6920537
   17   -0.0252434   0.4031650
   18   -0.0296653  -0.0000322   8.2612153
   19   -0.0001357  -0.0000002  -0.0001571   0.6117774
   20   -0.0032721  -0.0001601   0.0014622  -0.0009197   0.5827211
   21   -0.0001678  -0.0000001   0.0029620   0.0058392   0.0005379
   22   -0.0401510  -0.0002584  -0.0333257   0.0021925   0.0055564
   23   -0.0003566  -0.0000001  -0.0461346   0.0059148   0.0000185

            21          22          23

   21    0.5846250
   22    0.0003082   0.5906262
   23    0.0063917   0.0095055   0.6896983

          TOTAL MULLIKEN AND LOWDIN ATOMIC POPULATIONS
       ATOM         MULL.POP.    CHARGE          LOW.POP.     CHARGE
    1 C             6.011650   -0.011650         5.984208    0.015792
    2 C             5.945155    0.054845         5.966438    0.033562
    3 C             6.004384   -0.004384         6.013979   -0.013979
    4 C             6.051304   -0.051304         6.002101   -0.002101
    5 C             5.723343    0.276657         5.838771    0.161229
    6 H             0.635554    0.364446         0.753728    0.246272
    7 H             0.647324    0.352676         0.766414    0.233586
    8 H             0.639392    0.360608         0.753148    0.246852
    9 H             0.638006    0.361994         0.747996    0.252004
   10 O             8.453866   -0.453866         8.195712   -0.195712
   11 O             8.559966   -0.559966         8.325502   -0.325502
   12 O             8.562752   -0.562752         8.336328   -0.336328
   13 O             8.573647   -0.573647         8.333445   -0.333445
   14 O             8.572380   -0.572380         8.319340   -0.319340
   15 O             8.560490   -0.560490         8.277141   -0.277141
   16 C             5.329130    0.670870         5.779374    0.220626
   17 H             0.630521    0.369479         0.740739    0.259261
   18 O             8.484622   -0.484622         8.254766   -0.254766
   19 H             0.807575    0.192425         0.923645    0.076355
   20 H             0.785560    0.214440         0.914022    0.085978
   21 H             0.772900    0.227100         0.910500    0.089500
   22 H             0.781917    0.218083         0.909780    0.090220
   23 H             0.828564    0.171436         0.952925    0.047075

          -------------------------------
          BOND ORDER AND VALENCE ANALYSIS     BOND ORDER THRESHOLD=0.050
          -------------------------------

                   BOND                       BOND                       BOND
  ATOM PAIR DIST  ORDER      ATOM PAIR DIST  ORDER      ATOM PAIR DIST  ORDER
    1   2  1.531  0.867        1   3  1.516  0.873        1  11  1.464  0.913
    1  19  1.097  0.864        2   4  1.542  0.830        2  12  1.450  0.943
    2  20  1.096  0.850        3   5  1.514  0.823        3  13  1.452  0.914
    3  21  1.095  0.834        4  16  1.518  0.834        4  18  1.456  0.877
    4  22  1.100  0.846        5  14  1.424  0.959        5  18  1.453  0.869
    5  23  1.104  0.837        6  11  0.999  0.784        7  11  1.987  0.090
    7  12  1.004  0.761        8  13  0.996  0.801        9  14  0.995  0.808
   10  15  2.299  0.144       10  16  1.215  1.884       15  16  1.385  0.954
   15  17  0.997  0.799

                       TOTAL       BONDED        FREE
      ATOM            VALENCE     VALENCE     VALENCE
    1 C                 3.549       3.549      -0.000
    2 C                 3.522       3.522      -0.000
    3 C                 3.505       3.505      -0.000
    4 C                 3.462       3.462      -0.000
    5 C                 3.541       3.541      -0.000
    6 H                 0.857       0.857       0.000
    7 H                 0.875       0.875       0.000
    8 H                 0.854       0.854      -0.000
    9 H                 0.849       0.849       0.000
   10 O                 2.115       2.115      -0.000
   11 O                 1.911       1.911      -0.000
   12 O                 1.880       1.880       0.000
   13 O                 1.878       1.878      -0.000
   14 O                 1.892       1.892      -0.000
   15 O                 1.946       1.946       0.000
   16 C                 3.700       3.700      -0.000
   17 H                 0.853       0.853       0.000
   18 O                 1.947       1.947      -0.000
   19 H                 0.913       0.913      -0.000
   20 H                 0.908       0.908       0.000
   21 H                 0.920       0.920      -0.000
   22 H                 0.899       0.899      -0.000
   23 H                 0.908       0.908      -0.000

          ---------------------
          ELECTROSTATIC MOMENTS
          ---------------------

 POINT   1           X           Y           Z (BOHR)    CHARGE
                 0.081719    0.058456    0.010187       -0.00 (A.U.)
         DX          DY          DZ         /D/  (DEBYE)
    -1.271460    0.227626    2.410521    2.734783
 ...... END OF PROPERTY EVALUATION ......
 CPU     0: STEP CPU TIME=     0.10 TOTAL CPU TIME=        661.2 (     11.0 MIN)
 TOTAL WALL CLOCK TIME=        665.1 SECONDS, CPU UTILIZATION IS    99.42%
  $VIB   
          IVIB=   0 IATOM=   0 ICOORD=   0 E=     -756.6072066617
 -2.929071570E-05-2.948513367E-06-7.904544261E-06 8.978967691E-06-3.198081313E-05
 -6.167874035E-06-3.491229599E-05-1.896905390E-05-5.655972960E-05 1.160879443E-07
  3.592083831E-05 1.711347454E-05-3.653331172E-05-3.098730980E-05 5.359833590E-05
  3.541928870E-05-1.267818532E-05-3.545048629E-06-1.959155587E-05-6.667404905E-06
  7.476651561E-06 1.679451660E-05-8.393166150E-06 7.743740083E-06-1.994078699E-06
  1.749328143E-05-2.489929687E-06-2.202907401E-05-3.263944399E-05 1.812428552E-05
 -3.787228123E-05 1.110017059E-05 7.983063686E-06 3.145356240E-05-9.354992616E-06
  1.326746784E-05 4.155378368E-05 4.618022001E-05 5.952109317E-06 2.152832504E-06
 -3.594841697E-06-9.632103416E-06 8.277809231E-05-3.458930277E-05-9.686242798E-07
  1.279059346E-05 7.277909698E-05-2.544604734E-05-3.434853440E-05-7.688248816E-06
  2.559687771E-05-2.812708467E-05 4.089778891E-05-9.765030139E-06-5.435180083E-06
 -7.111300465E-06 4.195059519E-06 5.839283770E-07-6.199467881E-06-1.687704252E-05
 -2.347262341E-05-3.225411940E-06-1.346626112E-06 1.553830400E-05 1.503504191E-06
 -1.387498455E-05 2.544677811E-05-8.847443667E-06-6.473481113E-06
 -1.271460429E+00 2.276259176E-01 2.410521157E+00
 ......END OF GEOMETRY SEARCH......
 CPU     0: STEP CPU TIME=     0.01 TOTAL CPU TIME=        661.2 (     11.0 MIN)
 TOTAL WALL CLOCK TIME=        665.1 SECONDS, CPU UTILIZATION IS    99.42%
               936024  WORDS OF DYNAMIC MEMORY USED
 EXECUTION OF GAMESS TERMINATED NORMALLY Fri May 22 16:49:54 2020
 DDI: 263640 bytes (0.3 MB / 0 MWords) used by master data server.
Note: The following floating-point exceptions are signalling: IEEE_UNDERFLOW_FLAGNote: The following floating-point exceptions are signalling: IEEE_UNDERFLOW_FLAGNote: The following floating-point exceptions are signalling: IEEE_UNDERFLOW_FLAGNote: The following floating-point exceptions are signalling: IEEE_UNDERFLOW_FLAGNote: The following floating-point exceptions are signalling: IEEE_UNDERFLOW_FLAGNote: The following floating-point exceptions are signalling: IEEE_UNDERFLOW_FLAG IEEE_DENORMAL

 ----------------------------------------
 CPU timing information for all processes
 ========================================
 0: 657.120 + 4.142 = 661.262
 1: 657.220 + 1.602 = 658.823
 2: 657.237 + 1.874 = 659.112
 3: 656.649 + 1.414 = 658.63
 4: 657.227 + 1.749 = 658.977
 5: 656.599 + 1.238 = 657.837
 6: 657.397 + 1.429 = 658.827
 7: 656.398 + 1.186 = 657.584
 ----------------------------------------
 IEEE_DENORMALNote: The following floating-point exceptions are signalling: IEEE_DENORMAL
 IEEE_DENORMAL
 IEEE_DENORMAL
 IEEE_DENORMAL
Note: The following floating-point exceptions are signalling:
 IEEE_UNDERFLOW_FLAG IEEE_DENORMAL IEEE_UNDERFLOW_FLAG IEEE_DENORMAL

 ddikick.x: exited gracefully.
unset echo
----- accounting info -----
Files used on the master node pietdev were:
-rwxr-xr-x 1 piet piet     1282 mei 22 16:38 /home/piet/scr/galacturonic_acid_geoopt.F05*
-rw-r--r-- 1 piet piet 57344000 mei 22 16:49 /home/piet/scr/galacturonic_acid_geoopt.F10
-rw-r--r-- 1 piet piet  5940784 mei 22 16:49 /home/piet/scr/galacturonic_acid_geoopt.F22
-rw-r--r-- 1 piet piet  5940784 mei 22 16:49 /home/piet/scr/galacturonic_acid_geoopt.F22.001
-rw-r--r-- 1 piet piet  5940784 mei 22 16:49 /home/piet/scr/galacturonic_acid_geoopt.F22.002
-rw-r--r-- 1 piet piet  5940784 mei 22 16:49 /home/piet/scr/galacturonic_acid_geoopt.F22.003
-rw-r--r-- 1 piet piet  5940784 mei 22 16:49 /home/piet/scr/galacturonic_acid_geoopt.F22.004
-rw-r--r-- 1 piet piet  5940784 mei 22 16:49 /home/piet/scr/galacturonic_acid_geoopt.F22.005
-rw-r--r-- 1 piet piet  5940784 mei 22 16:49 /home/piet/scr/galacturonic_acid_geoopt.F22.006
-rw-r--r-- 1 piet piet  5940784 mei 22 16:49 /home/piet/scr/galacturonic_acid_geoopt.F22.007
ls: No match.
ls: No match.
ls: No match.
vr 22 mei 2020 16:49:57 CEST
0.124u 0.024s 11:08.27 0.0%	0+0k 8+8io 0pf+0w
