----- GAMESS execution script 'rungms' -----
This job is running on host pietdev
under operating system Linux at vr 22 mei 2020 16:50:15 CEST
Available scratch disk space (Kbyte units) at beginning of the job is
Filesystem     1K-blocks     Used Available Use% Mounted on
/dev/sda2      244568380 31372960 200702364  14% /
GAMESS temporary binary files will be written to /home/piet/scr
GAMESS supplementary output files will be written to /home/piet/gamess/scr
Copying input file galacturonic_acid_charge_geodisk.inp to your run's scratch directory...
cp galacturonic_acid_charge_geodisk.inp /home/piet/scr/galacturonic_acid_charge_geodisk.F05
unset echo
 
Assuming a single but multicore node.
 
/home/piet/gamess/ddikick.x /home/piet/gamess/gamess.03.x galacturonic_acid_charge_geodisk -ddi 1 8 pietdev:cpus=8 -scr /home/piet/scr

 Distributed Data Interface kickoff program.
 Initiating 8 compute processes on 1 nodes to run the following command:
 /home/piet/gamess/gamess.03.x galacturonic_acid_charge_geodisk 

          ******************************************************
          *         GAMESS VERSION = 30 SEP 2019 (R2)          *
          *             FROM IOWA STATE UNIVERSITY             *
          * M.W.SCHMIDT, K.K.BALDRIDGE, J.A.BOATZ, S.T.ELBERT, *
          *   M.S.GORDON, J.H.JENSEN, S.KOSEKI, N.MATSUNAGA,   *
          *          K.A.NGUYEN, S.J.SU, T.L.WINDUS,           *
          *       TOGETHER WITH M.DUPUIS, J.A.MONTGOMERY       *
          *         J.COMPUT.CHEM.  14, 1347-1363(1993)        *
          **************** 64 BIT LINUX VERSION ****************

  SINCE 1993, STUDENTS AND POSTDOCS WORKING AT IOWA STATE UNIVERSITY
  AND ALSO IN THEIR VARIOUS JOBS AFTER LEAVING ISU HAVE MADE IMPORTANT
  CONTRIBUTIONS TO THE CODE:
     IVANA ADAMOVIC, CHRISTINE AIKENS, YURI ALEXEEV, POOJA ARORA,
     ANDREY ASADCHEV, ROB BELL, PRADIPTA BANDYOPADHYAY, JONATHAN BENTZ,
     COLLEEN BERTONI, BRETT BODE, KURT BRORSEN, CALEB CARLIN, GALINA CHABAN,
     WEI CHEN, CHEOL HO CHOI, PAUL DAY, ALBERT DEFUSCO, NUWAN DESILVA,
     TIM DUDLEY, DMITRI FEDOROV, ALEX FINDLATER, GRAHAM FLETCHER, 
     MARK FREITAG, KURT GLAESEMANN, EMILIE B GUIDEZ, ANASTASIA GUNINA, 
     DAN KEMP, SAROM SOK LEANG, GRANT MERRILL,
     NORIYUKI MINEZAWA, JONATHAN MULLIN,
     TAKESHI NAGATA, SEAN NEDD, HEATHER NETZLOFF, BOSILJKA NJEGIC, RYAN OLSON,
     MIKE PAK, BUU PHAM, DAVID POOLE,
     SPENCER PRUITT, LUKE ROSKOP, TOSAPORN SATTASATHUCHANA,
     JIM SHOEMAKER, LYUDMILA SLIPCHENKO,
     TONY SMITH, JIE SONG, TETSUYA TAKETSUGU, SIMON WEBB,
     JORGE LUIS GALVEZ VALLEJO, PENG XU, SOOHAENG YOO,
     FEDERICO ZAHARIEV

  ADDITIONAL CODE HAS BEEN PROVIDED BY COLLABORATORS IN OTHER GROUPS:
     IOWA STATE UNIVERSITY:
          JOE IVANIC, AARON WEST, LAIMUTIS BYTAUTAS, KLAUS RUEDENBERG
     UNIVERSITY OF TOKYO: KIMIHIKO HIRAO, TAKAHITO NAKAJIMA,
          TAKAO TSUNEDA, MUNEAKI KAMIYA, SUSUMU YANAGISAWA,
          KIYOSHI YAGI, MAHITO CHIBA, SEIKEN TOKURA, NAOAKI KAWAKAMI
     UNIVERSITY OF AARHUS: FRANK JENSEN
     UNIVERSITY OF IOWA: VISVALDAS KAIRYS, HUI LI
     NATIONAL INST. OF STANDARDS AND TECHNOLOGY: WALT STEVENS, DAVID GARMER
     UNIVERSITY OF PISA: BENEDETTA MENNUCCI, JACOPO TOMASI
     UNIVERSITY OF MEMPHIS: HENRY KURTZ, PRAKASHAN KORAMBATH
     UNIVERSITY OF ALBERTA: TOBY ZENG, MARIUSZ KLOBUKOWSKI
     UNIVERSITY OF NEW ENGLAND: MARK SPACKMAN
     MIE UNIVERSITY: HIROAKI UMEDA
     NAT. INST. OF ADVANCED INDUSTRIAL SCIENCE AND TECHNOLOGY: KAZUO KITAURA
     MICHIGAN STATE UNIVERSITY:
          KAROL KOWALSKI, MARTA WLOCH, JEFFREY GOUR, JESSE LUTZ,
          WEI LI, JUN SHEN, J. EMILIANO DEUSTUA, PIOTR PIECUCH
     UNIVERSITY OF MINNESOTA:
          ANDREW SAND, PRACHI SHARMA, YINAN SHU
     UNIVERSITY OF SILESIA: MONIKA MUSIAL, STANISLAW KUCHARSKI
     FACULTES UNIVERSITAIRES NOTRE-DAME DE LA PAIX:
          OLIVIER QUINET, BENOIT CHAMPAGNE
     UNIVERSITY OF CALIFORNIA - SANTA BARBARA: BERNARD KIRTMAN
     INSTITUTE FOR MOLECULAR SCIENCE:
          KAZUYA ISHIMURA, MICHIO KATOUDA, AND SHIGERU NAGASE
     UNIVERSITY OF NOTRE DAME: ANNA POMOGAEVA, DAN CHIPMAN
     KYUSHU UNIVERSITY:
          HARUYUKI NAKANO,
          FENG LONG GU, JACEK KORCHOWIEC, MARCIN MAKOWSKI, AND YURIKO AOKI,
          HIROTOSHI MORI AND EISAKU MIYOSHI
     PENNSYLVANIA STATE UNIVERSITY:
          TZVETELIN IORDANOV, CHET SWALINA, JONATHAN SKONE,
          SHARON HAMMES-SCHIFFER
     WASEDA UNIVERSITY:
          MASATO KOBAYASHI, TOMOKO AKAMA, TSUGUKI TOUMA,
          TAKESHI YOSHIKAWA, YASUHIRO IKABATA, JUNJI SEINO,
          YUYA NAKAJIMA, HIROMI NAKAI
     NANJING UNIVERSITY: SHUHUA LI
     UNIVERSITY OF NEBRASKA:
          PEIFENG SU, DEJUN SI, NANDUN THELLAMUREGE, YALI WANG, HUI LI
     UNIVERSITY OF ZURICH: ROBERTO PEVERATI, KIM BALDRIDGE
     N. COPERNICUS UNIVERSITY AND JACKSON STATE UNIVERSITY:
          MARIA BARYSZ
     UNIVERSITY OF COPENHAGEN: Jimmy Kromann, CASPER STEINMANN
     TOKYO INSTITUTE OF TECHNOLOGY: HIROYA NAKATA
     NAGOYA UNIVERSITY: YOSHIO NISHIMOTO, STEPHAN IRLE
     MOSCOW STATE UNIVERSITY: VLADIMIR MIRONOV
     A.N.NESMEYANOV INSTITUTE OF ORGANOELEMENT COMPOUNDS OF RUSSIAN ACADEMY OF SCIENCES:
          IGOR S. GERASIMOV
     JOHANNES KEPLER UNIVERSITY LINZ:
          CHRISTIAN FRIEDL


 PARALLEL VERSION RUNNING ON        8 PROCESSORS IN        1 NODES.

 EXECUTION OF GAMESS BEGUN Fri May 22 16:50:15 2020

            ECHO OF THE FIRST FEW INPUT CARDS -
 INPUT CARD> $BASIS GBASIS=N21 NGAUSS=3 $END                                                
 INPUT CARD> $CONTRL SCFTYP=RHF DFTTYP=B3LYP MAXIT=60 MULT=1 ICHARG=0 $END                  
 INPUT CARD> $SYSTEM MEMDDI=1000 MWORDS=30 $END                                             
 INPUT CARD> $SCF DIRSCF=.TRUE. $END                                                        
 INPUT CARD> $ELPOT  IEPOT=1 WHERE=PDC $END                                                 
 INPUT CARD> $PDC PTSEL=GEODESIC CONSTR=CHARGE $END                                         
 INPUT CARD> $DATA                                                                          
 INPUT CARD>                                                                                
 INPUT CARD>C1                                                                              
 INPUT CARD>C 6.0000000 -1.0090558167 -1.1779449064 0.4938329242                            
 INPUT CARD>C 6.0000000 0.5005225082 -1.1004598835 0.2479007225                             
 INPUT CARD>C 6.0000000 -1.6614737606 0.0278418425 -0.1537169394                            
 INPUT CARD>C 6.0000000 1.0487191510 0.2815668951 0.6578644057                              
 INPUT CARD>C 6.0000000 -1.1332661971 1.3035047895 0.4678279559                             
 INPUT CARD>H 1.0000000 -2.4418902546 -2.2247372808 -0.3566429470                           
 INPUT CARD>H 1.0000000 0.0570864712 -1.9841742678 -1.4171839684                            
 INPUT CARD>H 1.0000000 -3.5171413176 0.6770645853 -0.3420350232                            
 INPUT CARD>H 1.0000000 -1.3845158091 3.2236418351 0.0486707048                             
 INPUT CARD>O 8.0000000 2.8632695894 1.2898020549 -0.6775496352                             
 INPUT CARD>O 8.0000000 -1.4666312338 -2.3798134269 -0.2047553139                           
 INPUT CARD>O 8.0000000 0.7200631083 -1.2700308148 -1.1756907853                            
 INPUT CARD>O 8.0000000 -3.0922850255 -0.1452972812 0.0247291204                            
 INPUT CARD>O 8.0000000 -1.8333026120 2.3644689091 -0.1739046934                            
 INPUT CARD>O 8.0000000 3.2196895632 -0.5796756285 0.6113042525                             
 INPUT CARD>C 6.0000000 2.4449368149 0.4408375999 0.0848904869                              
 INPUT CARD>H 1.0000000 4.1262527098 -0.5357002541 0.1994041575                             
 INPUT CARD>O 8.0000000 0.2793729831 1.4060870567 0.1449208113                              
 INPUT CARD>H 1.0000000 -1.2504648208 -1.2084131615 1.5638914452                            
 INPUT CARD>H 1.0000000 1.0336041190 -1.8538584833 0.8398391034                             
 INPUT CARD>H 1.0000000 -1.3556838378 0.0509402210 -1.2052812257                            
 INPUT CARD>H 1.0000000 1.1122682435 0.3045458264 1.7562109580                              
 INPUT CARD>H 1.0000000 -1.2739744761 1.3014037734 1.5629730833                             
 INPUT CARD> $END                                                                           
   30000000 WORDS OF MEMORY AVAILABLE

     BASIS OPTIONS
     -------------
     GBASIS=N21          IGAUSS=       3      POLAR=NONE    
     NDFUNC=       0     NFFUNC=       0     DIFFSP=       F
     NPFUNC=       0      DIFFS=       F     BASNAM=        


     RUN TITLE
     ---------
                                                                                 

 THE POINT GROUP OF THE MOLECULE IS C1      
 THE ORDER OF THE PRINCIPAL AXIS IS     0

 ATOM      ATOMIC                      COORDINATES (BOHR)
           CHARGE         X                   Y                   Z
 C           6.0    -1.9068389999       -2.2259931017        0.9332089105
 C           6.0     0.9458503912       -2.0795676403        0.4684644377
 C           6.0    -3.1397301433        0.0526134533       -0.2904828951
 C           6.0     1.9817918335        0.5320842790        1.2431834638
 C           6.0    -2.1415625837        2.4632668758        0.8840666460
 H           1.0    -4.6145034733       -4.2041438554       -0.6739574453
 H           1.0     0.1078777882       -3.7495456780       -2.6780893745
 H           1.0    -6.6464333504        1.2794665422       -0.6463524721
 H           1.0    -2.6163555049        6.0917997509        0.0919742957
 O           8.0     5.4107949529        2.4373724622       -1.2803831536
 O           8.0    -2.7715311569       -4.4971952787       -0.3869314378
 O           8.0     1.3607219686       -2.4000102359       -2.2217334305
 O           8.0    -5.8435713741       -0.2745720482        0.0467312615
 O           8.0    -3.4644395893        4.4681983447       -0.3286322185
 O           8.0     6.0843310400       -1.0954280996        1.1551975324
 C           6.0     4.6202606375        0.8330622689        0.1604197592
 H           1.0     7.7974869776       -1.0123266918        0.3768192185
 O           8.0     0.5279383864        2.6571192520        0.2738606233
 H           1.0    -2.3630358686       -2.2835697552        2.9553263060
 H           1.0     1.9532285647       -3.5032845535        1.5870657792
 H           1.0    -2.5618709794        0.0962630594       -2.2776512547
 H           1.0     2.1018822051        0.5755081626        3.3187574873
 H           1.0    -2.4074626752        2.4592965311        2.9535908536

          INTERNUCLEAR DISTANCES (ANGS.)
          ------------------------------

                1 C          2 C          3 C          4 C          5 C     

   1 C       0.0000000    1.5314416 *  1.5162096 *  2.5281453 *  2.4846926 *
   2 C       1.5314416 *  0.0000000    2.4715561 *  1.5422671 *  2.9149065 *
   3 C       1.5162096 *  2.4715561 *  0.0000000    2.8404553 *  1.5141457 *
   4 C       2.5281453 *  1.5422671 *  2.8404553 *  0.0000000    2.4169259 *
   5 C       2.4846926 *  2.9149065 *  1.5141457 *  2.4169259 *  0.0000000  
   6 H       1.9677647 *  3.2073767    2.3925596 *  4.4153301    3.8523683  
   7 H       2.3320915 *  1.9365159 *  2.9322358 *  3.2284275    3.9722844  
   8 H       3.2295864    4.4327463    1.9749572 *  4.6907674    2.5944491 *
   9 H       4.4399443    4.7213258    3.2141568    3.8662067    1.9813494 *
  10 O       4.7388623    3.4860270    4.7265470    2.4682913 *  4.1574482  
  11 O       1.4635193 *  2.3898403 *  2.4160655 *  3.7621863    3.7590336  
  12 O       2.4053360 *  1.4503672 *  2.8983826 *  2.4243339 *  3.5719839  
  13 O       2.3719746 *  3.7242995    1.4522538 *  4.2108181    2.4765134 *
  14 O       3.6978307    4.1988559    2.3430234 *  3.6518995    1.4239089 *
  15 O       4.2724715    2.7923373 *  4.9779605    2.3360263 *  4.7450161  
  16 C       3.8363727    2.4865473 *  4.1340182    1.5175935 *  3.7005908  
  17 H       5.1836821    3.6697718    5.8258091    3.2170366    5.5782852  
  18 O       2.9084377 *  2.5183903 *  2.3990895 *  1.4558675 *  1.4527015 *
  19 H       1.0973750 *  2.1930440 *  2.1557907 *  2.8856841 *  2.7431410 *
  20 H       2.1792290 *  1.0964381 *  3.4338600    2.1432183 *  3.8474228  
  21 H       2.1253937 *  2.6235400 *  1.0953668 *  3.0505170    2.1018282 *
  22 H       2.8794779 *  2.1501799 *  3.3790582    1.1004234 *  2.7749369 *
  23 H       2.7130080 *  3.2630053    2.1723582 *  2.6933612 *  1.1041495 *

                6 H          7 H          8 H          9 H         10 O     

   1 C       1.9677647 *  2.3320915 *  3.2295864    4.4399443    4.7388623  
   2 C       3.2073767    1.9365159 *  4.4327463    4.7213258    3.4860270  
   3 C       2.3925596 *  2.9322358 *  1.9749572 *  3.2141568    4.7265470  
   4 C       4.4153301    3.2284275    4.6907674    3.8662067    2.4682913 *
   5 C       3.8523683    3.9722844    2.5944491 *  1.9813494 *  4.1574482  
   6 H       0.0000000    2.7253445 *  3.0946457    5.5648140    6.3717885  
   7 H       2.7253445 *  0.0000000    4.5840203    5.5989549    4.3750021  
   8 H       3.0946457    4.5840203    0.0000000    3.3445176    6.4185404  
   9 H       5.5648140    5.5989549    3.3445176    0.0000000    4.7234323  
  10 O       6.3717885    4.3750021    6.4185404    4.7234323    0.0000000  
  11 O       0.9991239 *  1.9870152 *  3.6834685    5.6097842    5.6954063  
  12 O       3.4029771    1.0039212 *  4.7370944    5.1109106    3.3755330  
  13 O       2.2119061 *  3.9216225    0.9956394 *  3.7771417    6.1661444  
  14 O       4.6329888    4.9020416    2.3897519 *  0.9945489 *  4.8442087  
  15 O       5.9746662    4.0111643    6.9190420    5.9983737    2.2985052 *
  16 C       5.5840236    3.7200456    5.9820100    4.7339221    1.2153427 *
  17 H       6.8045967    4.6118920    7.7579267    6.6726264    2.3867620 *
  18 O       4.5650548    3.7394457    3.8964241    2.4660283 *  2.7141300 *
  19 H       2.4780762 *  3.3463871    3.5107555    4.6858270    5.3092324  
  20 H       3.6943445    2.4626656 *  5.3396331    5.6792835    3.9411605  
  21 H       2.6605900 *  2.4864661 *  2.4102125 *  3.4116363    4.4286394  
  22 H       4.8470060    4.0524170    5.0963555    4.2036586    3.1559351  
  23 H       4.1812228    4.6312074    3.0084303    2.4495572 *  4.7049830  

               11 O         12 O         13 O         14 O         15 O     

   1 C       1.4635193 *  2.4053360 *  2.3719746 *  3.6978307    4.2724715  
   2 C       2.3898403 *  1.4503672 *  3.7242995    4.1988559    2.7923373 *
   3 C       2.4160655 *  2.8983826 *  1.4522538 *  2.3430234 *  4.9779605  
   4 C       3.7621863    2.4243339 *  4.2108181    3.6518995    2.3360263 *
   5 C       3.7590336    3.5719839    2.4765134 *  1.4239089 *  4.7450161  
   6 H       0.9991239 *  3.4029771    2.2119061 *  4.6329888    5.9746662  
   7 H       1.9870152 *  1.0039212 *  3.9216225    4.9020416    4.0111643  
   8 H       3.6834685    4.7370944    0.9956394 *  2.3897519 *  6.9190420  
   9 H       5.6097842    5.1109106    3.7771417    0.9945489 *  5.9983737  
  10 O       5.6954063    3.3755330    6.1661444    4.8442087    2.2985052 *
  11 O       0.0000000    2.6374164 *  2.7728101 *  4.7585307    5.0860645  
  12 O       2.6374164 *  0.0000000    4.1521117    4.5533329    3.1492974  
  13 O       2.7728101 *  4.1521117    0.0000000    2.8148567 *  6.3540364  
  14 O       4.7585307    4.5533329    2.8148567 *  0.0000000    5.9006161  
  15 O       5.0860645    3.1492974    6.3540364    5.9006161    0.0000000  
  16 C       4.8311832    2.7370285 *  5.5684827    4.6979426    1.3852078 *
  17 H       5.9029187    3.7459652    7.2311972    6.6382709    0.9967208 *
  18 O       4.1837599    3.0165924    3.7133970    2.3416967 *  3.5785791  
  19 H       2.1323738 *  3.3752167    2.6251738 *  4.0156097    4.6135684  
  20 H       2.7602505 *  2.1216794 *  4.5394435    5.2001074    2.5406180 *
  21 H       2.6309551 *  2.4606027 *  2.1371051 *  2.5776486 *  4.9630334  
  22 H       4.2073621    3.3509945    4.5693168    4.0798305    2.5561462 *
  23 H       4.0881952    4.2530861    2.7866452 *  2.1118001 *  4.9635824  

               16 C         17 H         18 O         19 H         20 H     

   1 C       3.8363727    5.1836821    2.9084377 *  1.0973750 *  2.1792290 *
   2 C       2.4865473 *  3.6697718    2.5183903 *  2.1930440 *  1.0964381 *
   3 C       4.1340182    5.8258091    2.3990895 *  2.1557907 *  3.4338600  
   4 C       1.5175935 *  3.2170366    1.4558675 *  2.8856841 *  2.1432183 *
   5 C       3.7005908    5.5782852    1.4527015 *  2.7431410 *  3.8474228  
   6 H       5.5840236    6.8045967    4.5650548    2.4780762 *  3.6943445  
   7 H       3.7200456    4.6118920    3.7394457    3.3463871    2.4626656 *
   8 H       5.9820100    7.7579267    3.8964241    3.5107555    5.3396331  
   9 H       4.7339221    6.6726264    2.4660283 *  4.6858270    5.6792835  
  10 O       1.2153427 *  2.3867620 *  2.7141300 *  5.3092324    3.9411605  
  11 O       4.8311832    5.9029187    4.1837599    2.1323738 *  2.7602505 *
  12 O       2.7370285 *  3.7459652    3.0165924    3.3752167    2.1216794 *
  13 O       5.5684827    7.2311972    3.7133970    2.6251738 *  4.5394435  
  14 O       4.6979426    6.6382709    2.3416967 *  4.0156097    5.2001074  
  15 O       1.3852078 *  0.9967208 *  3.5785791    4.6135684    2.5406180 *
  16 C       0.0000000    1.9477070 *  2.3717034 *  4.3085340    2.7977558 *
  17 H       1.9477070 *  0.0000000    4.3095232    5.5877956    3.4223053  
  18 O       2.3717034 *  4.3095232    0.0000000    3.3450699    3.4174583  
  19 H       4.3085340    5.5877956    3.3450699    0.0000000    2.4814960 *
  20 H       2.7977558 *  3.4223053    3.4174583    2.4814960 *  0.0000000  
  21 H       4.0325278    5.6893687    2.5165213 *  3.0439053    3.6768835  
  22 H       2.1419368 *  3.4948195    2.1221130 *  2.8122125 *  2.3461958 *
  23 H       4.0933609    5.8648721    2.1058773 *  2.5099272 *  3.9753643  

               21 H         22 H         23 H     

   1 C       2.1253937 *  2.8794779 *  2.7130080 *
   2 C       2.6235400 *  2.1501799 *  3.2630053  
   3 C       1.0953668 *  3.3790582    2.1723582 *
   4 C       3.0505170    1.1004234 *  2.6933612 *
   5 C       2.1018282 *  2.7749369 *  1.1041495 *
   6 H       2.6605900 *  4.8470060    4.1812228  
   7 H       2.4864661 *  4.0524170    4.6312074  
   8 H       2.4102125 *  5.0963555    3.0084303  
   9 H       3.4116363    4.2036586    2.4495572 *
  10 O       4.4286394    3.1559351    4.7049830  
  11 O       2.6309551 *  4.2073621    4.0881952  
  12 O       2.4606027 *  3.3509945    4.2530861  
  13 O       2.1371051 *  4.5693168    2.7866452 *
  14 O       2.5776486 *  4.0798305    2.1118001 *
  15 O       4.9630334    2.5561462 *  4.9635824  
  16 C       4.0325278    2.1419368 *  4.0933609  
  17 H       5.6893687    3.4948195    5.8648721  
  18 O       2.5165213 *  2.1221130 *  2.1058773 *
  19 H       3.0439053    2.8122125 *  2.5099272 *
  20 H       3.6768835    2.3461958 *  3.9753643  
  21 H       0.0000000    3.8633585    3.0386786  
  22 H       3.8633585    0.0000000    2.5933031 *
  23 H       3.0386786    2.5933031 *  0.0000000  

  * ... LESS THAN  3.000


     ATOMIC BASIS SET
     ----------------
 THE CONTRACTED PRIMITIVE FUNCTIONS HAVE BEEN UNNORMALIZED
 THE CONTRACTED BASIS FUNCTIONS ARE NOW NORMALIZED TO UNITY

  SHELL TYPE  PRIMITIVE        EXPONENT          CONTRACTION COEFFICIENT(S)

 C         

      1   S       1           172.2560000    0.061766907377
      1   S       2            25.9109000    0.358794042852
      1   S       3             5.5333500    0.700713083689

      2   L       4             3.6649800   -0.395895162119    0.236459946619
      2   L       5             0.7705450    1.215834355681    0.860618805716

      3   L       6             0.1958570    1.000000000000    1.000000000000

 C         

      4   S       7           172.2560000    0.061766907377
      4   S       8            25.9109000    0.358794042852
      4   S       9             5.5333500    0.700713083689

      5   L      10             3.6649800   -0.395895162119    0.236459946619
      5   L      11             0.7705450    1.215834355681    0.860618805716

      6   L      12             0.1958570    1.000000000000    1.000000000000

 C         

      7   S      13           172.2560000    0.061766907377
      7   S      14            25.9109000    0.358794042852
      7   S      15             5.5333500    0.700713083689

      8   L      16             3.6649800   -0.395895162119    0.236459946619
      8   L      17             0.7705450    1.215834355681    0.860618805716

      9   L      18             0.1958570    1.000000000000    1.000000000000

 C         

     10   S      19           172.2560000    0.061766907377
     10   S      20            25.9109000    0.358794042852
     10   S      21             5.5333500    0.700713083689

     11   L      22             3.6649800   -0.395895162119    0.236459946619
     11   L      23             0.7705450    1.215834355681    0.860618805716

     12   L      24             0.1958570    1.000000000000    1.000000000000

 C         

     13   S      25           172.2560000    0.061766907377
     13   S      26            25.9109000    0.358794042852
     13   S      27             5.5333500    0.700713083689

     14   L      28             3.6649800   -0.395895162119    0.236459946619
     14   L      29             0.7705450    1.215834355681    0.860618805716

     15   L      30             0.1958570    1.000000000000    1.000000000000

 H         

     16   S      31             5.4471780    0.156284978695
     16   S      32             0.8245472    0.904690876670

     17   S      33             0.1831916    1.000000000000

 H         

     18   S      34             5.4471780    0.156284978695
     18   S      35             0.8245472    0.904690876670

     19   S      36             0.1831916    1.000000000000

 H         

     20   S      37             5.4471780    0.156284978695
     20   S      38             0.8245472    0.904690876670

     21   S      39             0.1831916    1.000000000000

 H         

     22   S      40             5.4471780    0.156284978695
     22   S      41             0.8245472    0.904690876670

     23   S      42             0.1831916    1.000000000000

 O         

     24   S      43           322.0370000    0.059239393389
     24   S      44            48.4308000    0.351499960776
     24   S      45            10.4206000    0.707657921031

     25   L      46             7.4029400   -0.404453583190    0.244586106967
     25   L      47             1.5762000    1.221561761397    0.853955373466

     26   L      48             0.3736840    1.000000000000    1.000000000000

 O         

     27   S      49           322.0370000    0.059239393389
     27   S      50            48.4308000    0.351499960776
     27   S      51            10.4206000    0.707657921031

     28   L      52             7.4029400   -0.404453583190    0.244586106967
     28   L      53             1.5762000    1.221561761397    0.853955373466

     29   L      54             0.3736840    1.000000000000    1.000000000000

 O         

     30   S      55           322.0370000    0.059239393389
     30   S      56            48.4308000    0.351499960776
     30   S      57            10.4206000    0.707657921031

     31   L      58             7.4029400   -0.404453583190    0.244586106967
     31   L      59             1.5762000    1.221561761397    0.853955373466

     32   L      60             0.3736840    1.000000000000    1.000000000000

 O         

     33   S      61           322.0370000    0.059239393389
     33   S      62            48.4308000    0.351499960776
     33   S      63            10.4206000    0.707657921031

     34   L      64             7.4029400   -0.404453583190    0.244586106967
     34   L      65             1.5762000    1.221561761397    0.853955373466

     35   L      66             0.3736840    1.000000000000    1.000000000000

 O         

     36   S      67           322.0370000    0.059239393389
     36   S      68            48.4308000    0.351499960776
     36   S      69            10.4206000    0.707657921031

     37   L      70             7.4029400   -0.404453583190    0.244586106967
     37   L      71             1.5762000    1.221561761397    0.853955373466

     38   L      72             0.3736840    1.000000000000    1.000000000000

 O         

     39   S      73           322.0370000    0.059239393389
     39   S      74            48.4308000    0.351499960776
     39   S      75            10.4206000    0.707657921031

     40   L      76             7.4029400   -0.404453583190    0.244586106967
     40   L      77             1.5762000    1.221561761397    0.853955373466

     41   L      78             0.3736840    1.000000000000    1.000000000000

 C         

     42   S      79           172.2560000    0.061766907377
     42   S      80            25.9109000    0.358794042852
     42   S      81             5.5333500    0.700713083689

     43   L      82             3.6649800   -0.395895162119    0.236459946619
     43   L      83             0.7705450    1.215834355681    0.860618805716

     44   L      84             0.1958570    1.000000000000    1.000000000000

 H         

     45   S      85             5.4471780    0.156284978695
     45   S      86             0.8245472    0.904690876670

     46   S      87             0.1831916    1.000000000000

 O         

     47   S      88           322.0370000    0.059239393389
     47   S      89            48.4308000    0.351499960776
     47   S      90            10.4206000    0.707657921031

     48   L      91             7.4029400   -0.404453583190    0.244586106967
     48   L      92             1.5762000    1.221561761397    0.853955373466

     49   L      93             0.3736840    1.000000000000    1.000000000000

 H         

     50   S      94             5.4471780    0.156284978695
     50   S      95             0.8245472    0.904690876670

     51   S      96             0.1831916    1.000000000000

 H         

     52   S      97             5.4471780    0.156284978695
     52   S      98             0.8245472    0.904690876670

     53   S      99             0.1831916    1.000000000000

 H         

     54   S     100             5.4471780    0.156284978695
     54   S     101             0.8245472    0.904690876670

     55   S     102             0.1831916    1.000000000000

 H         

     56   S     103             5.4471780    0.156284978695
     56   S     104             0.8245472    0.904690876670

     57   S     105             0.1831916    1.000000000000

 H         

     58   S     106             5.4471780    0.156284978695
     58   S     107             0.8245472    0.904690876670

     59   S     108             0.1831916    1.000000000000

 TOTAL NUMBER OF BASIS SET SHELLS             =   59
 NUMBER OF CARTESIAN GAUSSIAN BASIS FUNCTIONS =  137
 NUMBER OF ELECTRONS                          =  102
 CHARGE OF MOLECULE                           =    0
 SPIN MULTIPLICITY                            =    1
 NUMBER OF OCCUPIED ORBITALS (ALPHA)          =   51
 NUMBER OF OCCUPIED ORBITALS (BETA )          =   51
 TOTAL NUMBER OF ATOMS                        =   23
 THE NUCLEAR REPULSION ENERGY IS      920.8180054712

 SELECTED MURRAY-HANDY-LAMING RADIAL GRID

 LEGACY BECKE'S FUZZY CELL METHOD

 SELECTED ORIGINAL BECKE'S PARTITION FUNCTION

     LEBEDEV GRID-BASED DFT OPTIONS
     ------------------------------
     DFTTYP=B3LYP   
     NRAD  =      96     NLEB  =     302
     NRAD0 =      24     NLEB0 =     110
     SWOFF =    5.00E-03 (PURE SCF -> DFT)
     SWITCH=    3.00E-04 (COARSE -> TIGHT GRID)
     THRESH=    0.00E+00 GTHRE=    1.00E+00

 GRIMME'S EMPIRICAL DISPERSION CORRECTION= F

     $CONTRL OPTIONS
     ---------------
 SCFTYP=RHF          RUNTYP=ENERGY       EXETYP=RUN     
 MPLEVL=       0     CITYP =NONE         CCTYP =NONE         VBTYP =NONE    
 DFTTYP=B3LYP        TDDFT =NONE    
 MULT  =       1     ICHARG=       0     NZVAR =       0     COORD =UNIQUE  
 PP    =NONE         RELWFN=NONE         LOCAL =NONE         NUMGRD=       F
 ISPHER=      -1     NOSYM =       0     MAXIT =      60     UNITS =ANGS    
 PLTORB=       F     MOLPLT=       F     AIMPAC=       F     FRIEND=        
 NPRINT=       7     IREST =       0     GEOM  =INPUT   
 NORMF =       0     NORMP =       0     ITOL  =      20     ICUT  =       9
 INTTYP=BEST         GRDTYP=BEST         QMTTOL= 1.0E-06

     $SYSTEM OPTIONS
     ---------------
  REPLICATED MEMORY=    30000000 WORDS (ON EVERY NODE).
 DISTRIBUTED MEMDDI=        1000 MILLION WORDS IN AGGREGATE,
 MEMDDI DISTRIBUTED OVER   8 PROCESSORS IS   125000000 WORDS/PROCESSOR.
 TOTAL MEMORY REQUESTED ON EACH PROCESSOR=   155000000 WORDS.
 TIMLIM=      525600.00 MINUTES, OR     365.0 DAYS.
 PARALL= T  BALTYP=  DLB     KDIAG=    0  COREFL= F
 MXSEQ2=     300 MXSEQ3=     150  mem10=         0

     INPUT FOR POTENTIAL-DERIVED CHARGES 
     -----------------------------------
     VDWSCL=    1.40   RMAX=    3.00   DELR=    0.80
     VDWINC=    0.20 PTDENS=    0.28
     LAYER =       4  NFREQ=      30 MAXPDC=   10000
     CONSTR=CHARGE    UNITS=ANGS      PTSEL=GEODESIC
     CENTER=  0.0000  0.0000  0.0000
     DPOLE =  0.0000  0.0000  0.0000
     QPOLE =  0.0000  0.0000  0.0000  0.0000  0.0000  0.0000


          ----------------
          PROPERTIES INPUT
          ----------------

     MOMENTS            FIELD           POTENTIAL          DENSITY
 IEMOM =       1   IEFLD =       0   IEPOT =       1   IEDEN =       0
 WHERE =COMASS     WHERE =NUCLEI     WHERE =PDC        WHERE =NUCLEI  
 OUTPUT=BOTH       OUTPUT=BOTH       OUTPUT=BOTH       OUTPUT=BOTH    
 IEMINT=       0   IEFINT=       0                     IEDINT=       0
                                                       MORB  =       0
          EXTRAPOLATION IN EFFECT
          DIIS IN EFFECT
 ORBITAL PRINTING OPTION: NPREO=     1   137     2     1

     -------------------------------
     INTEGRAL TRANSFORMATION OPTIONS
     -------------------------------
     NWORD  =            0
     CUTOFF = 1.0E-09     MPTRAN =       0
     DIRTRF =       T     AOINTS =DUP     

          ----------------------
          INTEGRAL INPUT OPTIONS
          ----------------------
 NOPK  =       1 NORDER=       0 SCHWRZ=       T

     ------------------------------------------
     THE POINT GROUP IS C1 , NAXIS= 0, ORDER= 1
     ------------------------------------------

     DIMENSIONS OF THE SYMMETRY SUBSPACES ARE
 A   =  137

 ..... DONE SETTING UP THE RUN .....
 CPU     0: STEP CPU TIME=     0.02 TOTAL CPU TIME=          0.0 (      0.0 MIN)
 TOTAL WALL CLOCK TIME=          0.0 SECONDS, CPU UTILIZATION IS    50.00%

          ********************
          1 ELECTRON INTEGRALS
          ********************
 ...... END OF ONE-ELECTRON INTEGRALS ......
 CPU     0: STEP CPU TIME=     0.01 TOTAL CPU TIME=          0.0 (      0.0 MIN)
 TOTAL WALL CLOCK TIME=          0.1 SECONDS, CPU UTILIZATION IS    60.00%

          -------------
          GUESS OPTIONS
          -------------
          GUESS =HUCKEL            NORB  =       0          NORDER=       0
          MIX   =       F          PRTMO =       F          PUNMO =       F
          TOLZ  = 1.0E-08          TOLE  = 1.0E-05
          SYMDEN=       F          PURIFY=       F

 INITIAL GUESS ORBITALS GENERATED BY HUCKEL   ROUTINE.
 HUCKEL GUESS REQUIRES    175910 WORDS.

 SYMMETRIES FOR INITIAL GUESS ORBITALS FOLLOW.   BOTH SET(S).
    51 ORBITALS ARE OCCUPIED (   13 CORE ORBITALS).
    14=A       15=A       16=A       17=A       18=A       19=A       20=A   
    21=A       22=A       23=A       24=A       25=A       26=A       27=A   
    28=A       29=A       30=A       31=A       32=A       33=A       34=A   
    35=A       36=A       37=A       38=A       39=A       40=A       41=A   
    42=A       43=A       44=A       45=A       46=A       47=A       48=A   
    49=A       50=A       51=A       52=A       53=A       54=A       55=A   
    56=A       57=A       58=A       59=A       60=A       61=A   
 ...... END OF INITIAL ORBITAL SELECTION ......
 CPU     0: STEP CPU TIME=     0.04 TOTAL CPU TIME=          0.1 (      0.0 MIN)
 TOTAL WALL CLOCK TIME=          0.1 SECONDS, CPU UTILIZATION IS    77.78%

                    ----------------------
                    AO INTEGRAL TECHNOLOGY
                    ----------------------
     S,P,L SHELL ROTATED AXIS INTEGRALS, REPROGRAMMED BY
        KAZUYA ISHIMURA (IMS) AND JOSE SIERRA (SYNSTAR).
     S,P,D,L SHELL ROTATED AXIS INTEGRALS PROGRAMMED BY
        KAZUYA ISHIMURA (INSTITUTE FOR MOLECULAR SCIENCE).
     S,P,D,F,G SHELL TO TOTAL QUARTET ANGULAR MOMENTUM SUM 5,
        ERIC PROGRAM BY GRAHAM FLETCHER (ELORET AND NASA ADVANCED
        SUPERCOMPUTING DIVISION, AMES RESEARCH CENTER).
     S,P,D,F,G,L SHELL GENERAL RYS QUADRATURE PROGRAMMED BY
        MICHEL DUPUIS (PACIFIC NORTHWEST NATIONAL LABORATORY).

          --------------------
          2 ELECTRON INTEGRALS
          --------------------

 DIRECT SCF METHOD SKIPS INTEGRAL STORAGE ON DISK.
 DIRECT TRANSFORMATION SKIPS AO INTEGRAL STORAGE ON DISK.
  ...... END OF TWO-ELECTRON INTEGRALS .....
 CPU     0: STEP CPU TIME=     0.01 TOTAL CPU TIME=          0.1 (      0.0 MIN)
 TOTAL WALL CLOCK TIME=          0.1 SECONDS, CPU UTILIZATION IS    80.00%

          --------------------------
             R-B3LYP SCF CALCULATION
          --------------------------

     NUCLEAR ENERGY =       920.8180054712
     MAXIT =   60     NPUNCH=    2
     EXTRAP=T  DAMP=F  SHIFT=F  RSTRCT=F  DIIS=T  DEM=F  SOSCF=F
         DENSITY MATRIX CONVERGENCE THRESHOLD=  2.00E-05
     COARSE -> FINE DFT GRID SWITCH THRESHOLD=  3.00E-04 (SWITCH IN $DFT)
                   HF -> DFT SWITCH THRESHOLD=  5.00E-03 (SWOFF IN $DFT)
     MEMORY REQUIRED FOR RHF ITERS=    935268 WORDS.

 DIRECT SCF CALCULATION, SCHWRZ=T   FDIFF=T,  DIRTHR=  0.00E+00 NITDIR=10
 SCHWARZ INEQUALITY OVERHEAD:      8569 INTEGRALS, T=        0.00

 DFT CODE IS SWITCHING FROM THE FINE GRID NRAD= 96,  NLEB=  302
                      TO THE COARSE GRID NRAD0= 24, NLEB0=  110

     EXCHANGE FUNCTIONAL   =B88&HFX   
     CORRELATION FUNCTIONAL=LYP88&VWN5
     DFT THRESHOLD         =.600E-08
     GRID CHANGE THRESHOLD =.300E-03
 FOR AN EULER-MACLAURIN QUADRATURE USING  96 RADIAL POINTS:
 SMALLEST GAUSSIAN PRIMITIVE EXPONENT=        0.1831915800 OF TYPE -S-
 ON ATOM NUMBER   6 HAS RADIAL NORMALIZATION=  1.000000
  LARGEST GAUSSIAN PRIMITIVE EXPONENT=      322.0370000000 OF TYPE -S-
 ON ATOM NUMBER  10 HAS RADIAL NORMALIZATION=  1.000000
 DFT IS SWITCHED OFF, PERFORMING PURE SCF UNTIL SWOFF THRESHOLD IS REACHED.

                                                                                   NONZERO     BLOCKS
 ITER EX DEM     TOTAL ENERGY        E CHANGE  DENSITY CHANGE    DIIS ERROR      INTEGRALS    SKIPPED
   1  0  0     -750.6988486683  -750.6988486683   0.829757835   0.610932795       23230008     851716
          * * *   INITIATING DIIS PROCEDURE   * * *
   2  1  0     -752.6583880459    -1.9595393776   0.130517248   0.136594485       23205693     862666
   3  2  0     -752.7736305441    -0.1152424982   0.114239488   0.123848643       22990014     901229
   4  3  0     -752.8377436579    -0.0641131138   0.032264462   0.013350526       22685147     932754
   5  4  0     -752.8412014035    -0.0034577455   0.003940864   0.003718868       22227569     958485
 CONVERGED TO SWOFF, SO DFT CALCULATION IS NOW SWITCHED ON.
          * * *   INITIATING DIIS PROCEDURE   * * *
   6  5  0     -756.5277257779    -3.6865243744   0.125443658   0.063257894       23253205     842015
   7  6  0     -756.5847110642    -0.0569852863   0.130973236   0.035048024       23058146     893291
   8  7  0     -756.5809096152     0.0038014490   0.073632928   0.050862588       22829615     918473
   9  8  0     -756.5995210028    -0.0186113875   0.012909412   0.025776070       22531796     943434
  10  9  0     -756.6007900471    -0.0012690443   0.003224804   0.008618002       21670636     986941
  11 10  0     -756.6009353274    -0.0001452803   0.000715364   0.000471438       20568003    1035787
  12 11  0     -756.6009379648    -0.0000026374   0.000140553   0.000097070       19434855    1069579
 DFT CODE IS SWITCHING BACK TO THE FINE GRID
          * * *   INITIATING DIIS PROCEDURE   * * *
  13 12  0     -756.6071533705    -0.0062154057   0.003178359   0.001065116       23260360     838199
  14 13  0     -756.6072013528    -0.0000479823   0.001615658   0.000954065       21138803    1011974
  15 14  0     -756.6072009521     0.0000004008   0.000668967   0.001188532       20107893    1051335
  16 15  0     -756.6072063464    -0.0000053943   0.000248635   0.000378581       19313248    1079986
  17 16  0     -756.6072065985    -0.0000002521   0.000086493   0.000145099       17742493    1133246
  18 17  0     -756.6072066599    -0.0000000614   0.000015125   0.000010932       16212439    1183236
  19 18  0     -756.6072066619    -0.0000000021   0.000004564   0.000004480       14856787    1215345

          -----------------
          DENSITY CONVERGED
          -----------------
     TIME TO FORM FOCK OPERATORS=      25.4 SECONDS (       1.3 SEC/ITER)
     FOCK TIME ON FIRST ITERATION=       0.2, LAST ITERATION=       2.9
     TIME TO SOLVE SCF EQUATIONS=       0.4 SECONDS (       0.0 SEC/ITER)

 FINAL R-B3LYP ENERGY IS     -756.6072066619 AFTER  19 ITERATIONS
 DFT EXCHANGE + CORRELATION ENERGY =       -77.4201160328
 TOTAL ELECTRON NUMBER             =       101.9998326410

          ------------
          EIGENVECTORS
          ------------

                      1          2          3          4          5
                  -19.0770   -19.0550   -19.0541   -19.0439   -19.0430
                     A          A          A          A          A   
    1  C  1  S   -0.000046  -0.000067  -0.000143  -0.001119   0.000463
    2  C  1  S   -0.000210  -0.000050  -0.001104  -0.004991   0.001994
    3  C  1  X    0.000176   0.000266  -0.000228  -0.000560   0.000323
    4  C  1  Y   -0.000097   0.000237  -0.000557  -0.001149  -0.000151
    5  C  1  Z    0.000248   0.000620  -0.000432   0.000148   0.000253
    6  C  1  S    0.001272   0.002807   0.002326   0.027014  -0.013650
    7  C  1  X   -0.000878   0.001741   0.002307  -0.002133   0.004316
    8  C  1  Y    0.001069  -0.000682   0.003841  -0.008629  -0.003499
    9  C  1  Z   -0.002920  -0.005893   0.003733  -0.013409   0.002551
   10  C  2  S    0.000182   0.000265   0.000010   0.000321  -0.000332
   11  C  2  S    0.001159   0.001138   0.000121   0.001264  -0.002095
   12  C  2  X   -0.000005  -0.000274   0.000417   0.000637   0.000472
   13  C  2  Y    0.000264  -0.000587  -0.000006   0.000285  -0.000852
   14  C  2  Z   -0.000555  -0.000400   0.000460  -0.000252   0.000508
   15  C  2  S   -0.002751  -0.006784  -0.002420  -0.009764   0.006362
   16  C  2  X    0.000165   0.003501  -0.000436   0.004781  -0.002880
   17  C  2  Y   -0.001598  -0.002524  -0.000195   0.000637   0.006011
   18  C  2  Z    0.005167   0.004848  -0.005113   0.004117  -0.004328
   19  C  3  S    0.000056   0.000278   0.000266   0.000172  -0.001032
   20  C  3  S    0.000244   0.000705   0.001286   0.000522  -0.004277
   21  C  3  X   -0.000102  -0.000472   0.000311  -0.000473  -0.000916
   22  C  3  Y    0.000016  -0.000708  -0.000371   0.000652  -0.000241
   23  C  3  Z   -0.000046  -0.000666   0.000005  -0.000304  -0.000572
   24  C  3  S   -0.002356  -0.010111  -0.008187  -0.007064   0.026301
   25  C  3  X   -0.000085  -0.003799  -0.002157  -0.003106  -0.014290
   26  C  3  Y    0.001058  -0.003789  -0.006189   0.005088  -0.004129
   27  C  3  Z   -0.000071   0.002815  -0.000690   0.001354   0.007811
   28  C  4  S   -0.000079  -0.000892   0.000235  -0.000111   0.000175
   29  C  4  S   -0.001030  -0.003845   0.000663  -0.000668   0.000720
   30  C  4  X   -0.000499  -0.000792   0.001005   0.000432   0.000549
   31  C  4  Y   -0.000244   0.000872  -0.000617   0.000191   0.000155
   32  C  4  Z    0.000721   0.000432  -0.000245   0.000107  -0.000103
   33  C  4  S    0.001143   0.019690  -0.006309   0.001269  -0.006327
   34  C  4  X   -0.002858  -0.005452  -0.002596  -0.003481  -0.000193
   35  C  4  Y    0.004700   0.009219  -0.005068  -0.000096   0.000296
   36  C  4  Z   -0.006122  -0.009695   0.005108  -0.001708   0.003845
   37  C  5  S   -0.000030  -0.001254  -0.000773  -0.000067   0.000144
   38  C  5  S    0.000085  -0.004982  -0.003096  -0.000532   0.000415
   39  C  5  X    0.000408   0.001573  -0.000780  -0.000008   0.000259
   40  C  5  Y    0.000040   0.000744   0.001132   0.000557   0.000437
   41  C  5  Z   -0.000097   0.000065  -0.000013  -0.000043   0.000505
   42  C  5  S    0.000863   0.028709   0.021089   0.000173  -0.003727
   43  C  5  X   -0.000019   0.007072  -0.009112   0.001689   0.004802
   44  C  5  Y    0.000248   0.002535   0.008048  -0.002607   0.002439
   45  C  5  Z   -0.000125  -0.010348  -0.010984   0.000441  -0.003243
   46  H  6  S    0.000116   0.000219  -0.000005   0.003212  -0.000942
   47  H  6  S   -0.000066  -0.000492  -0.000061   0.005823   0.000715
   48  H  7  S   -0.000402  -0.000371   0.000175  -0.000686  -0.000076
   49  H  7  S    0.000218   0.000074  -0.000130   0.003030  -0.000306
   50  H  8  S   -0.000049  -0.000554  -0.000238  -0.000162   0.003218
   51  H  8  S   -0.000012   0.000662   0.000743   0.000083   0.005352
   52  H  9  S    0.000032   0.001609   0.003067  -0.000316  -0.000392
   53  H  9  S   -0.000152   0.000536   0.004572   0.000305  -0.000697
   54  O 10  S   -0.002777  -0.005537   0.000498  -0.001316  -0.000287
   55  O 10  S   -0.000766  -0.001253   0.000131  -0.000228  -0.000031
   56  O 10  X    0.000803   0.000181  -0.000069   0.000004  -0.000034
   57  O 10  Y   -0.000343  -0.000014   0.000041   0.000051   0.000019
   58  O 10  Z   -0.000010   0.000011  -0.000001   0.000052  -0.000018
   59  O 10  S    0.003325   0.003720  -0.000614   0.000518  -0.000118
   60  O 10  X   -0.004631  -0.001565   0.000578  -0.000083   0.000321
   61  O 10  Y    0.002184  -0.000458  -0.000038  -0.000283  -0.000041
   62  O 10  Z   -0.000164   0.000546  -0.000185  -0.000183   0.000022
   63  O 11  S    0.000575   0.009086  -0.007860   0.977586  -0.097957
   64  O 11  S    0.000170   0.001450  -0.001236   0.105056  -0.010298
   65  O 11  X   -0.000051   0.000018  -0.000015  -0.001268   0.000079
   66  O 11  Y    0.000052   0.000205   0.000007   0.003360  -0.000242
   67  O 11  Z   -0.000059  -0.000059  -0.000103   0.001010  -0.000218
   68  O 11  S   -0.000605  -0.002438   0.002523  -0.052221   0.005088
   69  O 11  X    0.000147  -0.000438   0.000248   0.001028   0.000026
   70  O 11  Y   -0.000470  -0.001370   0.000543  -0.010939   0.001405
   71  O 11  Z    0.000224   0.000123   0.000604  -0.003795   0.000886
   72  O 12  S   -0.001505  -0.002051   0.002180   0.002379   0.002795
   73  O 12  S   -0.000669  -0.000682   0.000623   0.000321   0.000721
   74  O 12  X    0.000279   0.000104   0.000018  -0.000307   0.000087
   75  O 12  Y    0.000086   0.000171  -0.000121  -0.000128   0.000096
   76  O 12  Z    0.000017   0.000045   0.000045  -0.000179   0.000079
   77  O 12  S    0.002940   0.002906  -0.002175   0.000952  -0.002640
   78  O 12  X   -0.001019  -0.000751   0.000165   0.000832   0.000146
   79  O 12  Y   -0.000002  -0.000255   0.000252   0.000781  -0.000928
   80  O 12  Z    0.001067   0.001006  -0.000811   0.001795  -0.001332
   81  O 13  S   -0.000497  -0.001222   0.010153   0.098054   0.977585
   82  O 13  S   -0.000140  -0.000180   0.001452   0.010750   0.104923
   83  O 13  X   -0.000003  -0.000069   0.000100   0.000425   0.002445
   84  O 13  Y   -0.000009  -0.000176   0.000149  -0.000167   0.002472
   85  O 13  Z    0.000019   0.000034   0.000071   0.000007  -0.001417
   86  O 13  S    0.000435  -0.000273  -0.001312  -0.004931  -0.052280
   87  O 13  X    0.000182   0.000187  -0.000114  -0.001105  -0.009859
   88  O 13  Y    0.000012   0.000813  -0.000106   0.000686  -0.005539
   89  O 13  Z   -0.000092  -0.000269  -0.000157  -0.000299   0.002986
   90  O 14  S    0.001098   0.297714   0.936345   0.003724  -0.009682
   91  O 14  S    0.000232   0.033367   0.100544   0.000193  -0.000676
   92  O 14  X    0.000011   0.001425   0.002764  -0.000071  -0.000108
   93  O 14  Y   -0.000045  -0.000340  -0.000579  -0.000122  -0.000401
   94  O 14  Z    0.000006   0.000535   0.002219  -0.000119  -0.000264
   95  O 14  S   -0.000449  -0.020799  -0.050088   0.001021   0.000022
   96  O 14  X   -0.000115  -0.006175  -0.007736   0.000468   0.000079
   97  O 14  Y    0.000271   0.003418   0.004932   0.000203   0.001202
   98  O 14  Z   -0.000071  -0.001753  -0.006099   0.000657   0.001037
   99  O 15  S    0.982599  -0.002168  -0.000428  -0.000482   0.000534
  100  O 15  S    0.106151   0.000057  -0.000020   0.000024  -0.000015
  101  O 15  X    0.000148   0.000249  -0.000106  -0.000009   0.000021
  102  O 15  Y    0.002980   0.000066  -0.000033   0.000007  -0.000041
  103  O 15  Z   -0.002505  -0.000140   0.000064   0.000027   0.000012
  104  O 15  S   -0.055194  -0.001815   0.000083  -0.000339   0.000190
  105  O 15  X    0.002957  -0.000675   0.000494   0.000091  -0.000010
  106  O 15  Y   -0.010086  -0.000713   0.000143  -0.000138   0.000192
  107  O 15  Z    0.007128   0.000725  -0.000292  -0.000105  -0.000081
  108  C 16  S   -0.000546   0.000157  -0.000101  -0.000007  -0.000044
  109  C 16  S   -0.001562   0.000377  -0.000343  -0.000039  -0.000180
  110  C 16  X    0.001368   0.000321  -0.000288  -0.000057  -0.000147
  111  C 16  Y   -0.000833  -0.000069   0.000078  -0.000090  -0.000005
  112  C 16  Z    0.000342  -0.000072   0.000005  -0.000088  -0.000001
  113  C 16  S    0.015797  -0.006319   0.005069   0.000922   0.002330
  114  C 16  X    0.010735   0.005099  -0.003193  -0.000193  -0.001852
  115  C 16  Y   -0.016103  -0.004124   0.000798  -0.000085   0.000136
  116  C 16  Z    0.008830   0.002415   0.000486   0.001383   0.000056
  117  H 17  S    0.003414   0.000472  -0.000175  -0.000005  -0.000039
  118  H 17  S    0.004194  -0.000444   0.000207   0.000005   0.000212
  119  O 18  S    0.002019   0.936603  -0.297312  -0.010417   0.005281
  120  O 18  S    0.000585   0.102670  -0.031069  -0.000554   0.000333
  121  O 18  X   -0.000598  -0.001730  -0.000091   0.000038  -0.000102
  122  O 18  Y   -0.000080  -0.002576   0.001239  -0.000057   0.000379
  123  O 18  Z    0.000174   0.001738  -0.000878   0.000128   0.000105
  124  O 18  S   -0.003089  -0.057923   0.012548  -0.002053  -0.000017
  125  O 18  X    0.001387   0.006023   0.003457   0.000011   0.001306
  126  O 18  Y    0.001306   0.007897  -0.004561   0.001049  -0.001963
  127  O 18  Z   -0.000822  -0.004433   0.002891  -0.000680  -0.000308
  128  H 19  S    0.000265   0.000587  -0.000915  -0.000716   0.000945
  129  H 19  S    0.000948   0.002504  -0.000916   0.001227   0.000235
  130  H 20  S   -0.000714  -0.000496   0.000563   0.000330   0.000406
  131  H 20  S   -0.000111  -0.000686   0.001194  -0.000898   0.002693
  132  H 21  S    0.000150   0.001152   0.000827   0.000785  -0.000572
  133  H 21  S    0.000174   0.001723  -0.000209   0.000672   0.000547
  134  H 22  S    0.000851  -0.000578  -0.000238   0.000019  -0.000054
  135  H 22  S    0.001402   0.001103  -0.000541   0.000521  -0.000968
  136  H 23  S   -0.000037  -0.001188  -0.000339  -0.000321   0.000947
  137  H 23  S   -0.000219   0.000093   0.000664   0.000326   0.001458

                      6          7          8          9         10
                  -19.0310   -19.0196   -10.2587   -10.2344   -10.2002
                     A          A          A          A          A   
    1  C  1  S   -0.000044   0.000256  -0.002103  -0.005234  -0.004806
    2  C  1  S   -0.000304   0.000915  -0.001830  -0.002748  -0.000525
    3  C  1  X   -0.000178  -0.001435  -0.000499   0.000431  -0.000921
    4  C  1  Y    0.000049  -0.000004   0.000110  -0.001101   0.000011
    5  C  1  Z   -0.000264   0.000002  -0.000271   0.000171  -0.000237
    6  C  1  S    0.001634  -0.008108   0.008424   0.006193  -0.003012
    7  C  1  X    0.002208   0.000703   0.005111   0.002705  -0.001838
    8  C  1  Y   -0.000499  -0.000706   0.000519   0.001496  -0.002093
    9  C  1  Z    0.002955   0.006624   0.001431  -0.001072   0.002738
   10  C  2  S   -0.000103  -0.001128  -0.004382   0.002802  -0.028738
   11  C  2  S   -0.000684  -0.005194  -0.003165   0.002438  -0.008263
   12  C  2  X   -0.000382   0.000822  -0.001533  -0.000101   0.000556
   13  C  2  Y   -0.000341  -0.001124  -0.000922  -0.000305  -0.000273
   14  C  2  Z    0.000419  -0.000990   0.000721  -0.000373   0.000574
   15  C  2  S   -0.001190   0.024299   0.003554  -0.011642   0.037317
   16  C  2  X    0.001125  -0.002080   0.007834   0.004129   0.004416
   17  C  2  Y    0.000942   0.004376   0.003914  -0.004363   0.019556
   18  C  2  Z   -0.006672  -0.018163  -0.004913   0.000613  -0.000295
   19  C  3  S   -0.000034   0.000120   0.000444  -0.009711  -0.001057
   20  C  3  S   -0.000211   0.001114   0.000602  -0.005556  -0.000002
   21  C  3  X   -0.000000   0.000598   0.000158  -0.000110  -0.000236
   22  C  3  Y   -0.000010  -0.000024  -0.000014  -0.000120  -0.000579
   23  C  3  Z    0.000017   0.000111  -0.000093  -0.000556  -0.000107
   24  C  3  S    0.001330  -0.000614  -0.003230   0.032290  -0.001121
   25  C  3  X   -0.000100  -0.003060  -0.002659   0.007520  -0.001104
   26  C  3  Y   -0.001094  -0.004420  -0.001420   0.017435  -0.000407
   27  C  3  Z   -0.000274   0.000401  -0.000970   0.009903  -0.001310
   28  C  4  S   -0.000004   0.000397  -0.006396  -0.009364   0.986805
   29  C  4  S    0.000010   0.001857  -0.002593  -0.004565   0.117692
   30  C  4  X   -0.000084   0.000303  -0.000718   0.001616   0.000027
   31  C  4  Y    0.000704   0.001069  -0.000060  -0.000365  -0.000260
   32  C  4  Z   -0.000743  -0.000255   0.000125  -0.000340  -0.000550
   33  C  4  S    0.007846  -0.010590   0.021964   0.011167  -0.112521
   34  C  4  X    0.007893   0.001484   0.018284  -0.013526  -0.004230
   35  C  4  Y   -0.008733  -0.002404   0.001771   0.001538   0.009264
   36  C  4  Z    0.006601   0.009416  -0.002364   0.000669   0.010043
   37  C  5  S   -0.000047  -0.000141  -0.003533   0.986677   0.008466
   38  C  5  S   -0.000569  -0.000646  -0.001774   0.113671  -0.002080
   39  C  5  X   -0.000544   0.000091  -0.000012   0.000878  -0.000835
   40  C  5  Y    0.000031  -0.000324   0.000163  -0.001244   0.000815
   41  C  5  Z    0.000086  -0.000012  -0.000141  -0.000033  -0.000424
   42  C  5  S    0.000856   0.005107   0.006779  -0.093452   0.007875
   43  C  5  X    0.001069   0.000133   0.002506   0.001001   0.005814
   44  C  5  Y   -0.000742  -0.000346  -0.002475   0.017142  -0.005198
   45  C  5  Z   -0.000095  -0.002005  -0.000314   0.003886   0.002727
   46  H  6  S   -0.000147  -0.000452  -0.000029  -0.000505   0.000247
   47  H  6  S    0.000182  -0.000547   0.000208   0.001854   0.000203
   48  H  7  S    0.000123   0.003327   0.000688   0.000045   0.000546
   49  H  7  S   -0.000574   0.006040   0.000256  -0.000114   0.000747
   50  H  8  S    0.000032   0.000099   0.000084  -0.000451  -0.000116
   51  H  8  S    0.000121  -0.000262   0.000040   0.000945   0.000368
   52  H  9  S   -0.000003   0.000115   0.000048  -0.000319   0.000005
   53  H  9  S    0.000187  -0.000091   0.000130   0.002390   0.000629
   54  O 10  S    0.982749  -0.013322   0.000479  -0.000065   0.000059
   55  O 10  S    0.108169  -0.000760   0.002329  -0.000601   0.000259
   56  O 10  X   -0.001484  -0.000158   0.000946   0.000058  -0.000259
   57  O 10  Y   -0.003393   0.000030   0.000489   0.000048   0.000204
   58  O 10  Z    0.003012  -0.000077  -0.000555   0.000006  -0.000109
   59  O 10  S   -0.066555  -0.002486  -0.009473   0.002781  -0.002189
   60  O 10  X    0.005964   0.001315  -0.000875  -0.000431   0.003378
   61  O 10  Y    0.012787   0.000302   0.006329  -0.000495  -0.000221
   62  O 10  Z   -0.011390  -0.000154  -0.004827   0.000204  -0.000534
   63  O 11  S    0.001283  -0.002112   0.000004  -0.000019  -0.000030
   64  O 11  S    0.000045  -0.000183   0.000007  -0.000273  -0.000311
   65  O 11  X    0.000072   0.000546   0.000017  -0.000004  -0.000299
   66  O 11  Y   -0.000042  -0.000126  -0.000028  -0.000316  -0.000064
   67  O 11  Z    0.000059  -0.000148  -0.000008  -0.000012   0.000001
   68  O 11  S    0.000453   0.001606  -0.000032   0.000194   0.000802
   69  O 11  X   -0.000286  -0.001799  -0.000293  -0.000097   0.001350
   70  O 11  Y    0.000394   0.001327   0.000055   0.001050   0.000504
   71  O 11  Z   -0.000238   0.000788  -0.000067   0.000049  -0.000093
   72  O 12  S    0.013480   0.982474   0.000098  -0.000045   0.000136
   73  O 12  S    0.002154   0.105684   0.000568  -0.000256   0.000745
   74  O 12  X    0.000053  -0.002237  -0.000468  -0.000002  -0.000009
   75  O 12  Y    0.000120  -0.001396  -0.000387   0.000022  -0.000419
   76  O 12  Z    0.000118   0.002887  -0.000003  -0.000001  -0.000273
   77  O 12  S   -0.003801  -0.053481  -0.003730   0.001691  -0.005242
   78  O 12  X    0.000007   0.005799   0.001140  -0.000415   0.000370
   79  O 12  Y   -0.000579   0.001942   0.000667   0.000358  -0.000028
   80  O 12  Z   -0.001492  -0.010676  -0.001521   0.000845  -0.001689
   81  O 13  S    0.000367  -0.002941   0.000005   0.000026   0.000002
   82  O 13  S    0.000042   0.000019   0.000023  -0.000100  -0.000006
   83  O 13  X   -0.000039   0.000048  -0.000051  -0.000303  -0.000069
   84  O 13  Y    0.000009  -0.000021   0.000029  -0.000099  -0.000070
   85  O 13  Z   -0.000049  -0.000031  -0.000096   0.000007  -0.000082
   86  O 13  S   -0.000205  -0.001464  -0.000456  -0.000944  -0.000227
   87  O 13  X    0.000035  -0.000689   0.000080  -0.000240   0.000180
   88  O 13  Y   -0.000014   0.000224  -0.000096  -0.000966   0.000223
   89  O 13  Z    0.000205   0.000191   0.000440  -0.000588   0.000375
   90  O 14  S    0.001161  -0.001387   0.000003  -0.000068  -0.000056
   91  O 14  S    0.000011   0.000113  -0.000002  -0.000311  -0.000527
   92  O 14  X    0.000021   0.000049   0.000059   0.000192   0.000074
   93  O 14  Y    0.000057   0.000017   0.000030  -0.000104   0.000164
   94  O 14  Z   -0.000023   0.000013  -0.000052   0.000416  -0.000116
   95  O 14  S    0.000367  -0.001174   0.000114   0.007531   0.002544
   96  O 14  X   -0.000068  -0.000510  -0.000376   0.000828  -0.000126
   97  O 14  Y   -0.000292   0.000322  -0.000037  -0.002955  -0.001103
   98  O 14  Z    0.000150  -0.000180   0.000222  -0.000391   0.000683
   99  O 15  S    0.002668   0.001321   0.000097   0.000055  -0.000062
  100  O 15  S   -0.000281  -0.000305   0.000696   0.000416  -0.000908
  101  O 15  X    0.000794  -0.000139   0.000418   0.000041   0.000853
  102  O 15  Y    0.000273  -0.000208   0.000547   0.000023  -0.000512
  103  O 15  Z   -0.000494  -0.000061  -0.000675  -0.000044  -0.000150
  104  O 15  S    0.004792   0.002463   0.005271  -0.002349   0.001850
  105  O 15  X   -0.005279  -0.000073  -0.003889   0.000447  -0.002380
  106  O 15  Y   -0.001007   0.001264  -0.001950  -0.000646   0.001847
  107  O 15  Z    0.002522  -0.000113   0.003011   0.000318   0.000284
  108  C 16  S    0.000388  -0.000007   0.985389   0.003116   0.005849
  109  C 16  S    0.002439   0.000205   0.105943  -0.000499  -0.001913
  110  C 16  X    0.000594  -0.000054  -0.000442  -0.000138  -0.000094
  111  C 16  Y    0.001105  -0.000075  -0.000059   0.000112  -0.000145
  112  C 16  Z   -0.001101   0.000410  -0.000249  -0.000180  -0.000080
  113  C 16  S    0.017546   0.003096  -0.055361   0.005414   0.027392
  114  C 16  X    0.011894  -0.003898   0.020927  -0.001864  -0.019165
  115  C 16  Y    0.023807   0.003592   0.011244  -0.003534   0.001451
  116  C 16  Z   -0.021529  -0.003088  -0.014251   0.004199   0.003052
  117  H 17  S    0.001499  -0.000237   0.001088   0.000155   0.000479
  118  H 17  S   -0.000626   0.000490   0.001460   0.000017   0.002566
  119  O 18  S    0.005267   0.002380   0.000011  -0.000075  -0.000157
  120  O 18  S   -0.000133  -0.000310  -0.000203  -0.000240  -0.000763
  121  O 18  X    0.000404  -0.000251  -0.000652  -0.000355   0.000026
  122  O 18  Y    0.000164   0.000059   0.000272  -0.000394  -0.000350
  123  O 18  Z   -0.000204  -0.000020   0.000226   0.000647   0.000632
  124  O 18  S    0.004073   0.003333  -0.000714   0.006908   0.009825
  125  O 18  X   -0.000277   0.002385   0.002247  -0.005176   0.004666
  126  O 18  Y   -0.001995  -0.001899  -0.001014   0.002038  -0.003819
  127  O 18  Z    0.001152   0.000296  -0.000796  -0.002141  -0.001030
  128  H 19  S   -0.000450  -0.000562  -0.000758  -0.000170   0.000135
  129  H 19  S   -0.001097  -0.000639  -0.000636  -0.000821  -0.001983
  130  H 20  S    0.000536  -0.000611  -0.000239   0.000080  -0.001440
  131  H 20  S    0.000934   0.002266  -0.000492  -0.000470   0.002572
  132  H 21  S   -0.000132  -0.000150   0.000390  -0.002077  -0.000011
  133  H 21  S   -0.000223   0.001267  -0.000239   0.003138  -0.000500
  134  H 22  S   -0.001352  -0.000847  -0.002011  -0.000948   0.000848
  135  H 22  S   -0.002197  -0.001060   0.001808  -0.002266   0.015659
  136  H 23  S   -0.000150  -0.000025  -0.000495   0.000465  -0.001241
  137  H 23  S    0.000385   0.000034  -0.000417   0.016170  -0.001716

                     11         12         13         14         15
                  -10.1848   -10.1828   -10.1754    -1.1013    -1.0736
                     A          A          A          A          A   
    1  C  1  S    0.966934   0.194440   0.044163  -0.004506  -0.022243
    2  C  1  S    0.116363   0.020003   0.002392   0.005886   0.023056
    3  C  1  X    0.000476   0.000978  -0.000406   0.001770  -0.002204
    4  C  1  Y    0.001111  -0.000110   0.000563   0.000876   0.003921
    5  C  1  Z   -0.001208   0.000070  -0.000016  -0.001680  -0.009469
    6  C  1  S   -0.116945   0.003596   0.020160  -0.001297   0.032774
    7  C  1  X   -0.010341   0.014167  -0.009987  -0.007643  -0.010302
    8  C  1  Y   -0.013487  -0.001177   0.013367   0.002530   0.004160
    9  C  1  Z    0.013600  -0.001273  -0.004165  -0.000041   0.004506
   10  C  2  S   -0.197753   0.965432   0.052325  -0.010972  -0.019769
   11  C  2  S   -0.027095   0.114569   0.002317   0.013790   0.018080
   12  C  2  X   -0.000181  -0.001349   0.001753   0.004955  -0.005715
   13  C  2  Y   -0.000350   0.001538  -0.000951   0.006867   0.010190
   14  C  2  Z    0.000451  -0.000070   0.000613  -0.003302  -0.006636
   15  C  2  S    0.052617  -0.100936   0.005218   0.010477   0.042613
   16  C  2  X   -0.020447   0.006770  -0.007437  -0.013239  -0.012121
   17  C  2  Y    0.003982  -0.014901   0.004120  -0.006194   0.000441
   18  C  2  Z   -0.001831  -0.000678  -0.004464   0.003029   0.000410
   19  C  3  S   -0.033559  -0.061070   0.984667  -0.006435  -0.042021
   20  C  3  S   -0.006723  -0.010908   0.116816   0.006518   0.041789
   21  C  3  X    0.000688  -0.001916   0.001178   0.001822  -0.002407
   22  C  3  Y   -0.000288   0.000755  -0.000054   0.002742   0.016185
   23  C  3  Z    0.000278  -0.000141   0.000899   0.002004   0.011036
   24  C  3  S    0.033136   0.017838  -0.108808   0.010661   0.071219
   25  C  3  X    0.006894   0.011761  -0.013010   0.004828   0.014360
   26  C  3  Y   -0.018139  -0.001094  -0.002639   0.002655   0.011255
   27  C  3  Z    0.004434   0.001351  -0.010451  -0.002616  -0.015744
   28  C  4  S   -0.000651   0.027618   0.002857  -0.032891  -0.040187
   29  C  4  S    0.000728  -0.001198   0.000497   0.031712   0.045029
   30  C  4  X    0.000898   0.000128   0.000199   0.013156  -0.036463
   31  C  4  Y    0.001134  -0.000592   0.000141   0.009197   0.030955
   32  C  4  Z   -0.000810   0.000342   0.000630  -0.013043  -0.015706
   33  C  4  S   -0.010940   0.026164  -0.002298   0.040686   0.076452
   34  C  4  X   -0.001507  -0.015073   0.002966  -0.006774   0.027888
   35  C  4  Y    0.000697  -0.012231   0.000173  -0.006923  -0.008773
   36  C  4  Z    0.007791  -0.007805  -0.000907   0.000403   0.001075
   37  C  5  S    0.004771  -0.001420   0.008587  -0.016984  -0.095929
   38  C  5  S   -0.001851   0.001368  -0.003823   0.020510   0.106420
   39  C  5  X    0.000260   0.000387  -0.000018   0.009756   0.020363
   40  C  5  Y    0.001167   0.000336  -0.000231   0.002944   0.033046
   41  C  5  Z   -0.000283   0.000182  -0.000177  -0.005829  -0.038123
   42  C  5  S    0.005820  -0.009033   0.034171   0.019309   0.142580
   43  C  5  X    0.001173  -0.003198  -0.005407  -0.004492  -0.002606
   44  C  5  Y   -0.003927   0.004618  -0.016730   0.000309  -0.013670
   45  C  5  Z    0.001290   0.002040  -0.006036   0.003370   0.022158
   46  H  6  S   -0.000376   0.000395  -0.000223   0.001823   0.012627
   47  H  6  S    0.001821   0.001762   0.001223  -0.000175   0.002324
   48  H  7  S   -0.000623  -0.000294   0.000448   0.004414   0.010454
   49  H  7  S    0.001285   0.003278  -0.001329  -0.000225   0.000619
   50  H  8  S    0.000388   0.000159  -0.000395   0.002290   0.022712
   51  H  8  S    0.001128   0.001311   0.002495   0.000128   0.005723
   52  H  9  S    0.000214   0.000117   0.000365   0.006594   0.057532
   53  H  9  S    0.000875  -0.000279   0.001645   0.001593   0.013310
   54  O 10  S   -0.000006  -0.000045  -0.000018  -0.130003   0.024923
   55  O 10  S   -0.000090  -0.000405  -0.000161   0.121146  -0.021640
   56  O 10  X   -0.000087  -0.000065   0.000054  -0.029518   0.002742
   57  O 10  Y    0.000002  -0.000066  -0.000010  -0.075116   0.014929
   58  O 10  Z   -0.000071  -0.000060  -0.000021   0.065785  -0.012230
   59  O 10  S    0.000287   0.002248   0.000718   0.398972  -0.087706
   60  O 10  X    0.000715   0.000135  -0.000353  -0.018314   0.002132
   61  O 10  Y    0.000078   0.000024  -0.000038  -0.078504   0.018100
   62  O 10  Z    0.000243   0.000242   0.000175   0.065256  -0.013694
   63  O 11  S   -0.000249   0.000014   0.000012  -0.004166  -0.025957
   64  O 11  S   -0.001379  -0.000025  -0.000167   0.003772   0.024236
   65  O 11  X    0.000020  -0.000417  -0.000191  -0.000323  -0.004474
   66  O 11  Y    0.000323  -0.000165  -0.000262   0.002092   0.012242
   67  O 11  Z    0.000393  -0.000128   0.000012   0.000501   0.003252
   68  O 11  S    0.012634   0.000167  -0.000340   0.012782   0.076944
   69  O 11  X    0.002579   0.000826   0.001172  -0.000037  -0.003416
   70  O 11  Y    0.004843   0.000662  -0.000336   0.002096   0.012809
   71  O 11  Z    0.000905   0.000592   0.000075   0.000555   0.002556
   72  O 12  S    0.000115  -0.000247   0.000113  -0.011661  -0.021331
   73  O 12  S    0.000435  -0.001626   0.000946   0.010385   0.020027
   74  O 12  X    0.000530   0.000032  -0.000204  -0.002290  -0.007542
   75  O 12  Y    0.000081  -0.000353   0.000197  -0.000282  -0.002410
   76  O 12  Z   -0.000462   0.000186   0.000136   0.005483   0.009121
   77  O 12  S   -0.006069   0.012914  -0.003310   0.036427   0.061576
   78  O 12  X   -0.000073  -0.001324   0.001547  -0.001573  -0.006804
   79  O 12  Y   -0.000855   0.003076  -0.001278  -0.000723  -0.002422
   80  O 12  Z   -0.001702   0.005314  -0.001631   0.006572   0.008218
   81  O 13  S    0.000095  -0.000098  -0.000155  -0.004784  -0.046733
   82  O 13  S    0.000524  -0.001033  -0.000791   0.004316   0.043339
   83  O 13  X   -0.000351  -0.000500   0.000332   0.001867   0.015505
   84  O 13  Y    0.000081   0.000241   0.000003   0.001743   0.017138
   85  O 13  Z   -0.000185  -0.000105  -0.000376  -0.000693  -0.008017
   86  O 13  S   -0.003615   0.003497   0.009403   0.015156   0.141003
   87  O 13  X   -0.000777   0.002405   0.004099   0.002152   0.018612
   88  O 13  Y    0.000469  -0.000816   0.000618   0.001545   0.015075
   89  O 13  Z    0.000636   0.000200   0.001413  -0.001113  -0.007569
   90  O 14  S   -0.000057  -0.000005   0.000068  -0.016266  -0.131643
   91  O 14  S   -0.000618  -0.000020   0.000257   0.014978   0.121642
   92  O 14  X    0.000025  -0.000024   0.000006   0.007093   0.053155
   93  O 14  Y    0.000411   0.000041   0.000534  -0.001923  -0.009808
   94  O 14  Z    0.000075   0.000108  -0.000012   0.004964   0.038852
   95  O 14  S    0.001990  -0.000101  -0.002450   0.047968   0.399899
   96  O 14  X   -0.000025   0.000263  -0.000400   0.009171   0.061890
   97  O 14  Y   -0.001880  -0.000348  -0.000141  -0.002025  -0.015516
   98  O 14  Z   -0.000159  -0.000568  -0.000201   0.004703   0.041434
   99  O 15  S    0.000002   0.000092   0.000011  -0.149015   0.041871
  100  O 15  S   -0.000074   0.000691   0.000081   0.138121  -0.040277
  101  O 15  X    0.000119  -0.000002   0.000039   0.003394  -0.004053
  102  O 15  Y    0.000029   0.000076   0.000024   0.060912  -0.016083
  103  O 15  Z   -0.000007   0.000199   0.000032  -0.050925   0.014516
  104  O 15  S   -0.000333  -0.003390  -0.000484   0.448405  -0.120027
  105  O 15  X   -0.000035   0.001289  -0.000006   0.009486  -0.004651
  106  O 15  Y   -0.000182  -0.000899  -0.000179   0.074361  -0.017264
  107  O 15  Z    0.000089  -0.000325  -0.000048  -0.063278   0.015299
  108  C 16  S    0.000845   0.004239   0.000022  -0.128007   0.021223
  109  C 16  S   -0.001008  -0.002435   0.000011   0.144239  -0.023227
  110  C 16  X   -0.000110   0.001154  -0.000080   0.071595  -0.029807
  111  C 16  Y    0.000199   0.000730   0.000086   0.020648   0.001380
  112  C 16  Z   -0.000037  -0.000294  -0.000076  -0.036800   0.008013
  113  C 16  S    0.006923   0.007443  -0.001336   0.127726  -0.034710
  114  C 16  X   -0.004583  -0.003057   0.000962  -0.043098   0.010403
  115  C 16  Y   -0.001499  -0.003805  -0.000860  -0.020132   0.020695
  116  C 16  Z    0.000684   0.004513   0.000291   0.029771  -0.021244
  117  H 17  S    0.000008  -0.000040   0.000048   0.060878  -0.019449
  118  H 17  S    0.000478  -0.000048  -0.000122   0.014408  -0.004377
  119  O 18  S    0.000029   0.000069   0.000001  -0.039944  -0.136046
  120  O 18  S    0.000434   0.000350  -0.000428   0.036798   0.123726
  121  O 18  X   -0.000341  -0.000049   0.000286  -0.002159  -0.038673
  122  O 18  Y   -0.000305  -0.000080   0.000261  -0.015146  -0.040162
  123  O 18  Z    0.000085  -0.000030  -0.000018   0.008403   0.029579
  124  O 18  S   -0.000264  -0.002171  -0.000409   0.119582   0.419607
  125  O 18  X    0.002514  -0.001539   0.000920  -0.008312  -0.044188
  126  O 18  Y    0.000560   0.002931  -0.000236  -0.013922  -0.047216
  127  O 18  Z   -0.000664  -0.000080   0.000259   0.010575   0.035784
  128  H 19  S    0.000633  -0.001327  -0.001936   0.001732   0.006316
  129  H 19  S    0.013184   0.004555   0.001412  -0.000788  -0.005450
  130  H 20  S   -0.001020  -0.000296  -0.000081   0.004095   0.004809
  131  H 20  S   -0.001013   0.013097   0.005519   0.002275  -0.006344
  132  H 21  S   -0.001814  -0.002001   0.000901   0.001796   0.011618
  133  H 21  S   -0.000994  -0.001378   0.016521  -0.001492  -0.010814
  134  H 22  S   -0.000090  -0.001396   0.000500   0.010002   0.011001
  135  H 22  S   -0.003257   0.002715   0.000342  -0.006340  -0.004444
  136  H 23  S   -0.000837   0.000788  -0.002355   0.004926   0.025350
  137  H 23  S   -0.001381  -0.001208   0.000427  -0.001930  -0.015188

                     16         17         18         19         20
                   -1.0381    -1.0224    -1.0177    -1.0045    -0.9915
                     A          A          A          A          A   
    1  C  1  S   -0.072889   0.011653   0.005900  -0.017940   0.026553
    2  C  1  S    0.072841  -0.013649  -0.004983   0.020675  -0.030842
    3  C  1  X   -0.018072  -0.014171  -0.011779  -0.001829   0.035067
    4  C  1  Y   -0.037486   0.012507   0.007665  -0.032533   0.040035
    5  C  1  Z   -0.038817   0.007138   0.004323  -0.012939   0.015333
    6  C  1  S    0.131657  -0.003723  -0.017746   0.038842  -0.043129
    7  C  1  X   -0.005672  -0.006393  -0.018421   0.003889  -0.015161
    8  C  1  Y    0.014384  -0.006831   0.001397  -0.004329  -0.007128
    9  C  1  Z   -0.003378  -0.000092  -0.003984  -0.019229  -0.036873
   10  C  2  S   -0.041793   0.036578   0.029868  -0.008818  -0.057612
   11  C  2  S    0.044507  -0.037203  -0.025729   0.008129   0.062439
   12  C  2  X   -0.016208  -0.001252  -0.001293  -0.004512   0.014097
   13  C  2  Y   -0.008153  -0.005596   0.000595  -0.016430  -0.007762
   14  C  2  Z   -0.030061   0.025255   0.017435  -0.016724  -0.071602
   15  C  2  S    0.068912  -0.064796  -0.048709   0.024643   0.118004
   16  C  2  X    0.000604   0.019937  -0.006430   0.000033   0.006360
   17  C  2  Y   -0.018710   0.000111  -0.014439   0.001023   0.003279
   18  C  2  Z    0.008715  -0.002325   0.026502   0.012926   0.035528
   19  C  3  S   -0.045475  -0.035614  -0.027872   0.035746  -0.008805
   20  C  3  S    0.046273   0.036107   0.029521  -0.038380   0.010250
   21  C  3  X   -0.030173  -0.051728  -0.040226   0.040111  -0.021354
   22  C  3  Y   -0.028355   0.004776  -0.000899  -0.000778   0.007811
   23  C  3  Z    0.007249   0.005059   0.004229  -0.006947  -0.001562
   24  C  3  S    0.075041   0.066334   0.047377  -0.067742   0.007605
   25  C  3  X    0.007424   0.001656   0.006713  -0.023545   0.009532
   26  C  3  Y   -0.005280   0.015406   0.007029   0.011925   0.028400
   27  C  3  Z   -0.005086  -0.006898  -0.003867  -0.002816   0.006178
   28  C  4  S    0.002337   0.043939   0.021070   0.039607   0.002895
   29  C  4  S   -0.004935  -0.043886  -0.022960  -0.040200  -0.005759
   30  C  4  X    0.002678   0.024661   0.008764   0.021683   0.008249
   31  C  4  Y   -0.019830  -0.025021   0.001147  -0.032097  -0.028984
   32  C  4  Z    0.000530   0.019461   0.005034   0.013136  -0.002223
   33  C  4  S    0.009123  -0.076035  -0.053691  -0.086235  -0.012204
   34  C  4  X    0.004961   0.012411  -0.031220   0.004937  -0.003712
   35  C  4  Y    0.002462  -0.009680   0.032166   0.019116   0.019673
   36  C  4  Z   -0.011914   0.009819  -0.027024  -0.018688  -0.027632
   37  C  5  S    0.023316  -0.010987   0.003442  -0.006028   0.005987
   38  C  5  S   -0.024549   0.010854  -0.003517   0.008642  -0.005187
   39  C  5  X   -0.009344  -0.063772  -0.023296  -0.061999  -0.028678
   40  C  5  Y   -0.030715   0.026847  -0.001333   0.058670   0.006664
   41  C  5  Z    0.010645  -0.015018  -0.002163  -0.016333  -0.003263
   42  C  5  S   -0.043155   0.010211  -0.009628   0.004420  -0.029712
   43  C  5  X   -0.011424  -0.004733  -0.011235   0.012392  -0.002309
   44  C  5  Y    0.010976  -0.005152   0.003557  -0.004641  -0.001315
   45  C  5  Z   -0.004056   0.014015   0.004593   0.006650   0.013015
   46  H  6  S    0.075347  -0.009029  -0.002985   0.036028  -0.063967
   47  H  6  S    0.015261   0.002831   0.002285   0.000820  -0.012177
   48  H  7  S    0.043235  -0.032640  -0.026819   0.021319   0.078094
   49  H  7  S    0.008563  -0.004773  -0.001271   0.007395   0.009763
   50  H  8  S    0.042781   0.055931   0.045088  -0.057198   0.024812
   51  H  8  S    0.005672   0.015168   0.009783  -0.007214   0.006902
   52  H  9  S   -0.026766   0.044929   0.005468   0.070749   0.011751
   53  H  9  S   -0.007952   0.009206  -0.000103   0.014877   0.003253
   54  O 10  S    0.010065   0.066494  -0.146016  -0.040153  -0.009191
   55  O 10  S   -0.009902  -0.063616   0.138145   0.037513   0.007867
   56  O 10  X    0.003097   0.021588  -0.037852  -0.007652  -0.002330
   57  O 10  Y    0.004499   0.029803  -0.068803  -0.019883  -0.004701
   58  O 10  Z   -0.004803  -0.028946   0.064064   0.017114   0.003211
   59  O 10  S   -0.029067  -0.209331   0.470201   0.134059   0.036665
   60  O 10  X    0.001261   0.021552  -0.038469  -0.009541  -0.004440
   61  O 10  Y    0.004779   0.025859  -0.065292  -0.019114  -0.003528
   62  O 10  Z   -0.003488  -0.027277   0.062104   0.018088   0.005143
   63  O 11  S   -0.155746   0.026182   0.012838  -0.078255   0.125619
   64  O 11  S    0.145410  -0.022939  -0.011156   0.073639  -0.116769
   65  O 11  X   -0.031610   0.001221  -0.001040  -0.015644   0.037763
   66  O 11  Y    0.064113  -0.009589  -0.004363   0.027887  -0.042955
   67  O 11  Z    0.017291  -0.002238  -0.001062   0.007731  -0.014023
   68  O 11  S    0.473205  -0.087151  -0.042818   0.240064  -0.401976
   69  O 11  X   -0.026313   0.000347  -0.000105  -0.015720   0.038297
   70  O 11  Y    0.070532  -0.011823  -0.005584   0.029054  -0.056482
   71  O 11  Z    0.019046  -0.003897  -0.000317   0.008524  -0.021296
   72  O 12  S   -0.077950   0.068657   0.055443  -0.036365  -0.173547
   73  O 12  S    0.072403  -0.064255  -0.054224   0.033478   0.160261
   74  O 12  X   -0.027274   0.021418   0.016954  -0.012918  -0.050477
   75  O 12  Y   -0.016847   0.011874   0.010263  -0.010416  -0.034858
   76  O 12  Z    0.027108  -0.024111  -0.020027   0.009847   0.052715
   77  O 12  S    0.235863  -0.208065  -0.156027   0.114620   0.548106
   78  O 12  X   -0.029994   0.021395   0.016750  -0.013921  -0.054924
   79  O 12  Y   -0.014773   0.013080   0.013984  -0.009951  -0.036277
   80  O 12  Z    0.031295  -0.026659  -0.014968   0.014901   0.066554
   81  O 13  S   -0.093960  -0.112199  -0.091639   0.116114  -0.046909
   82  O 13  S    0.087253   0.105287   0.085578  -0.107768   0.043613
   83  O 13  X    0.026702   0.025580   0.020506  -0.023567   0.006958
   84  O 13  Y    0.026750   0.040901   0.032239  -0.040928   0.020408
   85  O 13  Z   -0.016903  -0.021396  -0.017248   0.021551  -0.009213
   86  O 13  S    0.287678   0.343469   0.284046  -0.367103   0.150684
   87  O 13  X    0.031350   0.034211   0.027485  -0.032489   0.012745
   88  O 13  Y    0.025434   0.040096   0.032761  -0.044127   0.022277
   89  O 13  Z   -0.018233  -0.020386  -0.018093   0.025234  -0.011236
   90  O 14  S    0.055877  -0.092321  -0.011486  -0.137154  -0.023730
   91  O 14  S   -0.051477   0.086218   0.011162   0.128700   0.021397
   92  O 14  X   -0.023037   0.028536   0.001345   0.046744   0.005228
   93  O 14  Y   -0.002005   0.000456  -0.001402   0.011342   0.001294
   94  O 14  Z   -0.016062   0.025432   0.003073   0.037347   0.006004
   95  O 14  S   -0.176083   0.290368   0.034219   0.435279   0.080510
   96  O 14  X   -0.027437   0.029757   0.000236   0.051270   0.007103
   97  O 14  Y    0.002364  -0.008108  -0.002093   0.001225  -0.003653
   98  O 14  Z   -0.019727   0.028817   0.001860   0.045710   0.007791
   99  O 15  S   -0.007853  -0.094065   0.129161   0.021604   0.014533
  100  O 15  S    0.007964   0.088255  -0.120799  -0.019548  -0.012158
  101  O 15  X    0.000094   0.013066  -0.012701  -0.000802  -0.003896
  102  O 15  Y    0.002043   0.026910  -0.033703  -0.004836  -0.004100
  103  O 15  Z   -0.002433  -0.027058   0.034162   0.004285   0.003323
  104  O 15  S    0.022210   0.303921  -0.426405  -0.077234  -0.056418
  105  O 15  X   -0.000390   0.001393   0.003336   0.001945  -0.000009
  106  O 15  Y    0.000712   0.033569  -0.042647  -0.007730  -0.008936
  107  O 15  Z   -0.000802  -0.027515   0.034772   0.005979   0.006432
  108  C 16  S    0.003136   0.017121  -0.037345  -0.008427  -0.002543
  109  C 16  S   -0.003040  -0.015768   0.038235   0.009227   0.000181
  110  C 16  X   -0.000420   0.021259   0.014655   0.018656  -0.002145
  111  C 16  Y   -0.010694  -0.076481   0.140392   0.031893   0.007829
  112  C 16  Z    0.006594   0.051069  -0.106880  -0.030095  -0.008739
  113  C 16  S   -0.009740  -0.023427   0.041769   0.000704   0.005238
  114  C 16  X    0.009021   0.007831  -0.010814   0.006623   0.005634
  115  C 16  Y   -0.005583   0.018043  -0.047023  -0.022626  -0.023344
  116  C 16  Z   -0.002264  -0.012994   0.040605   0.011975   0.007607
  117  H 17  S    0.004057   0.047221  -0.063021  -0.009602  -0.007282
  118  H 17  S   -0.000757   0.010069  -0.011953  -0.002625  -0.003717
  119  O 18  S    0.038087   0.095380   0.039297   0.101413   0.049762
  120  O 18  S   -0.035250  -0.089930  -0.034555  -0.093690  -0.044745
  121  O 18  X    0.011701   0.002572   0.007602   0.005660   0.009184
  122  O 18  Y    0.006855   0.039301   0.013505   0.041912   0.013191
  123  O 18  Z   -0.008867  -0.023244  -0.009739  -0.025330  -0.012486
  124  O 18  S   -0.116427  -0.288171  -0.134511  -0.325992  -0.166034
  125  O 18  X    0.008550   0.005987   0.010724   0.010281   0.003308
  126  O 18  Y    0.009312   0.043751   0.025868   0.050582   0.024404
  127  O 18  Z   -0.007497  -0.027148  -0.015979  -0.035016  -0.017410
  128  H 19  S    0.019471  -0.003393  -0.000712   0.006077  -0.006167
  129  H 19  S   -0.007873   0.001302   0.003692   0.003991   0.011785
  130  H 20  S    0.010110  -0.010573  -0.010213   0.001566   0.014612
  131  H 20  S   -0.011799   0.004226  -0.008871  -0.001014  -0.015558
  132  H 21  S    0.013614   0.006457   0.005500  -0.008949   0.004110
  133  H 21  S   -0.005430  -0.008828  -0.006306   0.007037   0.006927
  134  H 22  S   -0.000395  -0.013717  -0.003646  -0.009621   0.001084
  135  H 22  S    0.002776   0.005415   0.008499   0.008907   0.006233
  136  H 23  S   -0.005289   0.001103  -0.001357   0.000123  -0.003116
  137  H 23  S    0.003516  -0.006199  -0.003252  -0.003287  -0.002319

                     21         22         23         24         25
                   -0.7950    -0.7814    -0.6854    -0.6462    -0.6028
                     A          A          A          A          A   
    1  C  1  S   -0.113675   0.047939  -0.088960   0.052890  -0.077512
    2  C  1  S    0.111182  -0.044891   0.078650  -0.044004   0.069705
    3  C  1  X    0.042736   0.022888   0.072948   0.101255  -0.002330
    4  C  1  Y    0.068083  -0.051352  -0.030990  -0.062681  -0.057398
    5  C  1  Z    0.004965   0.011783   0.020717   0.031715   0.046736
    6  C  1  S    0.290446  -0.134617   0.302408  -0.196027   0.294568
    7  C  1  X    0.018587  -0.026617   0.019962   0.015429   0.001097
    8  C  1  Y    0.034891  -0.007791   0.019105  -0.033774  -0.005454
    9  C  1  Z   -0.010042   0.009136  -0.004012   0.033818   0.010536
   10  C  2  S   -0.103718  -0.040404  -0.069196  -0.102774   0.031563
   11  C  2  S    0.106657   0.040722   0.061249   0.088615  -0.029989
   12  C  2  X   -0.036713   0.058229  -0.084506   0.045466  -0.057833
   13  C  2  Y    0.045572   0.040488  -0.039297  -0.015044  -0.076962
   14  C  2  Z    0.060508   0.025080   0.030016   0.046982   0.009197
   15  C  2  S    0.236994   0.096545   0.218673   0.379161  -0.106692
   16  C  2  X   -0.004303  -0.018554  -0.022369  -0.013293  -0.012201
   17  C  2  Y    0.018388  -0.016863   0.009856   0.012083  -0.045072
   18  C  2  Z    0.036783   0.012099   0.017631   0.027125   0.008899
   19  C  3  S   -0.083193   0.096552   0.070962   0.081433   0.054001
   20  C  3  S    0.084614  -0.095225  -0.064695  -0.070973  -0.046508
   21  C  3  X    0.059336  -0.057918  -0.007457   0.003827  -0.002347
   22  C  3  Y   -0.025516  -0.021650  -0.091976   0.121227  -0.039081
   23  C  3  Z    0.031319  -0.027412  -0.004394   0.015514   0.045527
   24  C  3  S    0.199091  -0.240570  -0.236753  -0.288723  -0.222303
   25  C  3  X    0.011872  -0.027215  -0.023417  -0.025647  -0.022145
   26  C  3  Y    0.018925   0.003170   0.003397   0.024113  -0.003345
[...]
   1561   -9.29851    0.79306    3.90947       -10.583806      10.582097      -0.001709
   1562  -10.36614    1.45290    2.18200       -10.207032      10.211347       0.004315
   1563  -10.34456   -0.27457    2.82850       -10.117291      10.114918      -0.002373
   1564  -11.02597   -0.27457    1.11437        -9.885337       9.886746       0.001409
   1565  -11.02597   -0.27457   -1.02090        -9.896266       9.902149       0.005883
   1566   -9.70631   -3.72951    1.11437       -10.413313      10.410584      -0.002729
   1567  -10.36614   -2.00204    2.18200       -10.088978      10.084389      -0.004589
   1568   -9.70631   -3.72951   -1.02090       -10.432564      10.433718       0.001155
   1569  -10.78649   -2.16260    0.04673        -9.950833       9.949582      -0.001251
   1570  -10.36614   -2.00204   -2.08854       -10.112683      10.114963       0.002280
   1571   -8.89847   -3.32947   -3.00816       -10.787483      10.791799       0.004317
   1572   -9.29851   -1.34221    3.90947       -10.505634      10.499783      -0.005851
   1573   -8.89847   -3.32947    3.10163       -10.736012      10.730540      -0.005472
   1574   -7.57104   -2.40984    4.56930       -11.380084      11.375294      -0.004790
   1575   -6.91121   -4.13731    3.50167       -11.989020      11.987787      -0.001232
   1576   -7.73160   -0.27457    4.98965       -11.290773      11.287423      -0.003350
   1577   -3.46444    7.24996   -4.82962       -10.736113      10.729822      -0.006291
   1578   -1.73697    6.60347   -4.85120       -11.595877      11.584445      -0.011431
   1579   -0.00950    5.53583   -4.19137       -13.285040      13.261202      -0.023838
   1580   -3.46444    5.53583   -5.51104       -11.438261      11.426235      -0.012026
   1581   -1.57641    4.46820   -5.27156       -12.903589      12.884028      -0.019562
   1582   -3.46444    3.40056   -5.51104       -12.747170      12.735377      -0.011793
   1583   -6.24621    8.96919   -0.32863        -9.783418       9.792738       0.009320
   1584   -5.59971    8.99077   -2.05610        -9.821036       9.827655       0.006619
   1585   -4.53207    8.33093   -3.78357       -10.153785      10.154356       0.000571
   1586   -7.32717    7.92313   -1.39627        -9.870093       9.872680       0.002587
   1587   -6.51933    7.52309   -3.38353       -10.043624      10.042220      -0.001404
   1588   -5.19191    6.60347   -4.85120       -10.554736      10.548236      -0.006501
   1589   -7.98701    6.19567   -2.46390       -10.324739      10.325989       0.001250
   1590   -6.91938    5.53583   -4.19137       -10.680530      10.677981      -0.002550
   1591   -5.35247    4.46820   -5.27156       -11.464817      11.457742      -0.007075
   1592   -5.19191    6.60347    4.19394       -11.081178      11.094928       0.013750
   1593   -6.51933    7.52309    2.72626       -10.327438      10.337021       0.009583
   1594   -7.32717    7.92313    0.73900        -9.959714       9.965585       0.005871
   1595   -6.91938    5.53583    3.53410       -11.128535      11.135272       0.006737
   1596   -7.98701    6.19567    1.80664       -10.534369      10.538997       0.004628
   1597   -7.96543    4.46820    2.45313       -11.459781      11.466075       0.006294
   1598   -8.40736    6.35623   -0.32863       -10.303296      10.306882       0.003586
   1599    6.08433   -3.87719    5.65619       -11.092177      11.088401      -0.003776
   1600    7.81180   -3.23070    5.67777       -10.320232      10.317569      -0.002663
   1601    9.53927   -2.16306    5.01793        -9.854595       9.857799       0.003204
   1602    6.08433   -2.16306    6.33760       -11.205592      11.204076      -0.001516
   1603    7.97236   -1.09543    6.09812       -10.448775      10.448203      -0.000572
   1604    9.53927   -0.02779    5.01793       -10.105661      10.110387       0.004726
   1605    6.08433   -0.02779    6.33760       -11.547680      11.549991       0.002311
   1606    7.81180    1.03984    5.67777       -10.897881      10.899970       0.002089
   1607    6.08433    1.68634    5.65619       -12.040929      12.046302       0.005374
   1608    8.86610   -5.59642    1.15520       -10.179720      10.183531       0.003811
   1609    8.21960   -5.61800    2.88267       -10.244319      10.243153      -0.001165
   1610    9.13923   -4.15032    4.21009        -9.881703       9.883247       0.001544
   1611    7.15196   -4.95816    4.61013       -10.570848      10.566513      -0.004335
   1612    9.13923    1.95947    4.21009       -10.692437      10.697739       0.005301
   1613    7.15196   -4.95816   -2.29974       -11.610723      11.606104      -0.004619
   1614    8.21960   -5.61800   -0.57227       -10.670600      10.672653       0.002053
   1615    6.08433   -6.03835   -0.73283       -11.942074      11.932957      -0.009117
   1616    7.15196   -6.27783    1.15520       -10.909941      10.905781      -0.004161
   1617    4.35686   -3.23070    5.67777       -12.370581      12.372310       0.001729
   1618    5.01670   -4.95816    4.61013       -11.835640      11.832533      -0.003107
   1619    6.08433   -6.03835    3.04323       -11.268160      11.262491      -0.005669
   1620    6.47112    3.12085    5.00603       -11.803563      11.808321       0.004758
   1621    7.89336    4.10616    3.43352       -11.303553      11.303195      -0.000358
   1622    5.76415    4.97171    3.86214       -11.994878      11.994473      -0.000405
   1623   10.75886   -1.92744    3.68774        -9.567212       9.578739       0.011527
   1624   11.65548   -1.01233    2.76119        -9.227372       9.242766       0.015393
   1625   10.75886   -0.09721    3.68774        -9.757029       9.768993       0.011964
   1626   10.18186   -4.87032    0.37682        -9.622206       9.633801       0.011595
   1627   11.10840   -3.97370    1.29193        -9.232478       9.246983       0.014506
   1628   11.67397   -2.49301    2.20705        -9.092489       9.108330       0.015841
   1629   10.41597   -3.63081    2.99530        -9.594775       9.605199       0.010424
   1630   11.67397    0.46836    2.20705        -9.382186       9.397252       0.015066
   1631   11.10840    1.94905    1.29193        -9.910885       9.921829       0.010944
   1632   10.41597    1.60615    2.99530       -10.200695      10.211492       0.010798
   1633   11.10840    1.94905   -0.53830        -9.997353      10.004680       0.007327
   1634   12.03428    0.60598    0.37682        -9.270049       9.285257       0.015208
   1635   12.23955   -1.01233    1.29193        -8.988661       9.006152       0.017491
   1636   11.67397    0.46836   -1.45341        -9.475005       9.487425       0.012420
   1637   12.23955   -1.01233   -0.53830        -9.015384       9.032618       0.017234
   1638   11.65548   -1.01233   -2.00755        -9.302769       9.317430       0.014661
   1639   11.10840   -3.97370   -0.53830        -9.243915       9.259246       0.015332
   1640   11.67397   -2.49301   -1.45341        -9.128322       9.144868       0.016546
   1641   12.03428   -2.63064    0.37682        -8.941608       8.959275       0.017667
   1642    7.79749   -3.39670   -3.48117       -11.486531      11.485956      -0.000575
   1643    9.27817   -2.84256   -3.49967       -10.418450      10.425506       0.007056
   1644   10.75886   -1.92744   -2.93410        -9.653832       9.666104       0.012272
   1645    8.71260   -4.32324   -2.58455       -10.605519      10.611331       0.005812
   1646   10.41597   -3.63081   -2.24166        -9.633657       9.646578       0.012921
   1647    9.62772   -4.88881   -1.10387        -9.938494       9.948545       0.010051
   1648   10.75886   -0.09721   -2.93410        -9.921547       9.929711       0.008164
   1649    9.41580   -1.01233   -3.85997       -10.635929      10.639261       0.003331
   1650    7.79749   -1.92744   -4.06524       -11.778687      11.775086      -0.003601
   1651    3.30970    7.15811    0.27386       -12.617736      12.598027      -0.019708
   1652    3.58283    5.71201    3.32876       -13.000411      12.996934      -0.003477
   1653    2.66321    7.17969    2.00133       -12.428285      12.421702      -0.006583
   1654    1.59557    6.51985    3.72880       -12.555824      12.560437       0.004613
   1655    0.52794    5.43888   -4.22713       -13.283649      13.256616      -0.027033
   1656    0.52794    3.72475   -4.90854       -13.986847      13.954787      -0.032061
   1657    2.66321    7.17969   -1.45361       -12.625097      12.601139      -0.023959
   1658    1.59557    6.51985   -3.18107       -12.842445      12.816695      -0.025750
   1659    1.59557    7.83952    0.27386       -12.341968      12.339752      -0.002216
   1660   -2.36304   -4.66794    6.81332       -11.121263      11.129363       0.008099
   1661   -0.88235   -4.11380    6.83181       -11.622126      11.632987       0.010861
   1662    0.59834   -3.19868    6.26624       -12.801203      12.816395       0.015192
   1663   -2.36304   -3.19868    7.39739       -11.204399      11.215547       0.011148
   1664   -0.74473   -2.28357    7.19212       -12.013236      12.028373       0.015136
   1665   -2.36304   -1.36846    7.39739       -11.721981      11.736452       0.014472
   1666   -0.88235   -0.45334    6.83181       -12.873646      12.893444       0.019798
   1667    0.25545   -4.90205    5.57381       -12.511452      12.521371       0.009919
   1668   -1.44792   -5.59449    5.91670       -11.562758      11.568626       0.005868
   1669   -3.84372   -0.45334    6.83181       -11.999299      12.012519       0.013221
   1670   -5.32441   -1.36846    6.26624       -11.733160      11.740120       0.006960
   1671   -6.22103   -2.28357    5.33970       -11.850135      11.851401       0.001267
   1672   -6.23952   -3.76426    4.78556       -11.716738      11.717867       0.001128
   1673   -5.32441   -3.19868    6.26624       -11.195554      11.201200       0.005646
   1674   -4.98152   -4.90205    5.57381       -11.179083      11.182779       0.003696
   1675   -4.19327   -6.16006    4.43601       -11.660783      11.659745      -0.001038
   1676   -3.84372   -4.11380    6.83181       -10.949601      10.957098       0.007497
   1677   -3.27815   -5.59449    5.91670       -11.154973      11.159175       0.004202
   1678   -3.98135   -2.28357    7.19212       -11.209524      11.219635       0.010111
   1679    1.95323   -5.88766    5.44506       -11.546585      11.552168       0.005583
   1680    3.43392   -5.33351    5.46355       -11.520041      11.523903       0.003862
   1681    1.95323   -4.41840    6.02913       -12.084720      12.094000       0.009280
   1682    3.57154   -3.50328    5.82386       -12.389135      12.395063       0.005928
   1683    4.33760   -7.36128    1.58707       -11.465452      11.461703      -0.003749
   1684    5.26414   -6.46466    2.50218       -11.591188      11.586481      -0.004707
   1685    3.78346   -7.37977    3.06775       -11.166793      11.165924      -0.000869
   1686    4.57171   -6.12177    4.20555       -11.358378      11.357569      -0.000808
   1687    2.86834   -6.81420    4.54844       -11.192985      11.195317       0.002332
   1688    5.26414   -6.46466    0.67195       -12.097785      12.089904      -0.007880
   1689    3.78346   -7.37977    0.10638       -11.965953      11.959790      -0.006163
   1690    1.03811   -7.94534    1.58707       -12.088474      12.081472      -0.007002
   1691    1.95323   -7.74008   -0.03124       -12.373941      12.367166      -0.006775
   1692    2.86834   -7.94534    1.58707       -11.484481      11.481230      -0.003251
   1693    0.12300   -7.37977    3.06775       -12.249301      12.244370      -0.004931
   1694    0.47254   -5.33351    5.46355       -12.252297      12.260442       0.008145
   1695    1.03811   -6.81420    4.54844       -11.650450      11.653073       0.002623
   1696    1.95323   -7.74008    3.20538       -11.369336      11.368521      -0.000815
   1697   -2.56187   -2.28811   -6.13564       -13.000086      13.000299       0.000213
   1698   -2.56187    2.48063   -6.13564       -12.688662      12.677536      -0.011126
   1699   -1.08118    1.92649   -6.15414       -13.198187      13.180849      -0.017337
   1700   -2.56187    1.01138   -6.71971       -12.358786      12.351154      -0.007631
   1701   -0.94356    0.09626   -6.51444       -13.142368      13.127296      -0.015072
   1702   -2.56187   -0.81885   -6.71971       -12.471164      12.466908      -0.004256
   1703   -1.64676    3.40718   -5.23902       -13.661358      13.641735      -0.019623
   1704   -4.04256    1.92649   -6.15414       -12.277837      12.273654      -0.004184
   1705   -5.52324    1.01138   -5.58857       -12.294662      12.297891       0.003230
   1706   -5.52324   -0.81885   -5.58857       -12.349166      12.353217       0.004051
   1707   -4.18018    0.09626   -6.51444       -12.071994      12.071391      -0.000602
   1708   -4.04256   -1.73397   -6.15414       -12.430994      12.433027       0.002033
   1709    2.10188   -1.80886    7.17675       -11.967934      11.981353       0.013418
   1710    3.58257   -1.25472    7.19525       -11.653664      11.663606       0.009942
   1711    5.06326   -0.33961    6.62967       -11.790772      11.796591       0.005819
   1712    2.10188   -0.33961    7.76082       -11.503255      11.517077       0.013822
   1713    3.72019    0.57551    7.55555       -11.291435      11.302448       0.011013
   1714    5.06326    1.49062    6.62967       -11.615009      11.623384       0.008375
   1715    2.10188    1.49062    7.76082       -11.380297      11.394203       0.013906
   1716    3.58257    2.40574    7.19525       -11.374780      11.386086       0.011306
   1717    2.10188    2.95988    7.17675       -11.616152      11.629479       0.013327
   1718    3.01700   -2.73541    6.28013       -12.475859      12.485948       0.010088
   1719    4.72036    3.19399    5.93724       -11.916816      11.925531       0.008715
   1720    3.01700    3.88642    6.28013       -11.899987      11.910552       0.010565
   1721    1.18677    3.88642    6.28013       -12.374336      12.388362       0.014026
   1722    0.62120    2.40574    7.19525       -12.019357      12.035686       0.016329
   1723    0.62120   -1.25472    7.19525       -12.290281      12.307150       0.016868
   1724    1.18677   -2.73541    6.28013       -12.951723      12.967691       0.015968
   1725    0.48357    0.57551    7.55555       -11.945550      11.962406       0.016855
   1726   -0.92678    0.62907    6.83008       -12.870189      12.890325       0.020136
   1727   -2.40746    1.54418    7.39565       -11.708205      11.724010       0.015805
   1728   -0.78915    2.45930    7.19038       -12.002213      12.019181       0.016967
   1729   -2.40746    3.37441    7.39565       -11.183373      11.198093       0.014721
   1730   -0.92678    4.28953    6.83008       -11.594537      11.609717       0.015181
   1731   -2.40746    4.84367    6.81158       -11.090791      11.105597       0.014805
   1732    0.21102    5.07778    5.57207       -12.461144      12.475047       0.013903
   1733   -1.49235    5.77021    5.91496       -11.516416      11.532397       0.015981
   1734   -3.32258    5.77021    5.91496       -11.119099      11.134710       0.015611
   1735   -3.88815    4.28953    6.83008       -10.922561      10.936059       0.013498
   1736   -5.02594    5.07778    5.57207       -11.150464      11.163080       0.012616
   1737   -5.36884    3.37441    6.26451       -11.164555      11.175467       0.010912
   1738   -6.28395    3.93998    4.78382       -11.676553      11.685178       0.008625
   1739   -6.26546    2.45930    5.33796       -11.803558      11.810761       0.007203
   1740   -5.36884    1.54418    6.26451       -11.701624      11.711232       0.009608
   1741   -3.88815    0.62907    6.83008       -11.979644      11.993436       0.013792
   1742   -4.02577    2.45930    7.19038       -11.186943      11.199992       0.013050

 NET CHARGES:
 -------------------------------------
 ATOM                CHARGE    E.S.D.
 -------------------------------------
 C                   0.2155    0.1659
 C                   0.0933    0.1607
 C                   0.1202    0.1356
 C                  -0.0868    0.2474
 C                   0.4515    0.1325
 H                   0.4249    0.0044
 H                   0.3896    0.0043
 H                   0.4290    0.0039
 H                   0.4392    0.0028
 O                  -0.4800    0.0053
 O                  -0.6142    0.0179
 O                  -0.5482    0.0167
 O                  -0.6345    0.0166
 O                  -0.6432    0.0134
 O                  -0.6393    0.0094
 C                   0.7679    0.0509
 H                   0.4403    0.0027
 O                  -0.4019    0.0364
 H                   0.0317    0.0176
 H                   0.0853    0.0177
 H                   0.0779    0.0154
 H                   0.0855    0.0207
 H                  -0.0034    0.0140
 -------------------------------------

 RMS DEVIATION IS            0.661 KCAL/MOLE
 RELATIVE RMS DEVIATION IS   5.541 %

 MULTIPOLE MOMENTS:
 ---------------------------------------------------------
 STATUS  ACTUAL VALUE       QUANTITY        FITTED VALUE 
 ---------------------------------------------------------
 FIXED       0.0000       TOTAL CHARGE         0.0000
             2.7348 D    DIPOLE MOMENT         2.7483 D
 FREE       -1.2715 D          DX             -1.2804 D
 FREE        0.2276 D          DY              0.2239 D
 FREE        2.4106 D          DZ              2.4215 D
 FREE        0.0000 BU         QXX             7.0756 BU
 FREE        0.0000 BU         QYY            -3.0308 BU
 FREE        0.0000 BU         QZZ            -4.0448 BU
 FREE        0.0000 BU         QXY            -9.4622 BU
 FREE        0.0000 BU         QXZ             7.5964 BU
 FREE        0.0000 BU         QYZ             7.4236 BU
 ---------------------------------------------------------
 ...... END OF PROPERTY EVALUATION ......
 CPU     0: STEP CPU TIME=     0.67 TOTAL CPU TIME=         27.3 (      0.5 MIN)
 TOTAL WALL CLOCK TIME=         53.4 SECONDS, CPU UTILIZATION IS    51.12%
               935679  WORDS OF DYNAMIC MEMORY USED
 EXECUTION OF GAMESS TERMINATED NORMALLY Fri May 22 16:51:08 2020
 DDI: 263640 bytes (0.3 MB / 0 MWords) used by master data server.
Note: The following floating-point exceptions are signalling: IEEE_UNDERFLOW_FLAGNote: The following floating-point exceptions are signalling:
 ----------------------------------------
 CPU timing information for all processes
 ========================================
 0: 26.908 + 0.382 = 27.291
 1: 26.692 + 0.95 = 26.788
 2: 25.885 + 0.119 = 26.05
 3: 26.368 + 0.120 = 26.488
 4: 26.60 + 0.101 = 26.162
 5: 26.471 + 0.80 = 26.551
 6: 25.812 + 0.60 = 25.872
 7: 25.776 + 0.72 = 25.848
 ----------------------------------------
Note: The following floating-point exceptions are signalling: IEEE_UNDERFLOW_FLAGNote: The following floating-point exceptions are signalling: IEEE_UNDERFLOW_FLAG IEEE_DENORMAL
Note: The following floating-point exceptions are signalling: IEEE_UNDERFLOW_FLAGNote: The following floating-point exceptions are signalling: IEEE_UNDERFLOW_FLAG IEEE_UNDERFLOW_FLAG IEEE_DENORMALNote: The following floating-point exceptions are signalling: IEEE_UNDERFLOW_FLAGNote: The following floating-point exceptions are signalling: IEEE_DENORMAL
 IEEE_DENORMAL IEEE_DENORMAL
 IEEE_DENORMAL

 IEEE_DENORMAL
 IEEE_UNDERFLOW_FLAG IEEE_DENORMAL

 ddikick.x: exited gracefully.
unset echo
----- accounting info -----
Files used on the master node pietdev were:
-rwxr-xr-x 1 piet piet     1451 mei 22 16:50 /home/piet/scr/galacturonic_acid_charge_geodisk.F05*
-rw-r--r-- 1 piet piet 50790400 mei 22 16:51 /home/piet/scr/galacturonic_acid_charge_geodisk.F10
ls: No match.
ls: No match.
ls: No match.
vr 22 mei 2020 16:51:11 CEST
0.124u 0.017s 0:56.50 0.2%	0+0k 0+8io 0pf+0w
