----- GAMESS execution script 'rungms' -----
This job is running on host pietdev
under operating system Linux at ma 25 mei 2020 18:14:44 CEST
Available scratch disk space (Kbyte units) at beginning of the job is
Filesystem     1K-blocks     Used Available Use% Mounted on
/dev/sda2      244568380 31071260 201004064  14% /
GAMESS temporary binary files will be written to /home/piet/scr
GAMESS supplementary output files will be written to /home/piet/gamess/scr
Copying input file camphor_fukui_base.inp to your run's scratch directory...
cp camphor_fukui_base.inp /home/piet/scr/camphor_fukui_base.F05
unset echo
 
Assuming a single but multicore node.
 
/home/piet/gamess/ddikick.x /home/piet/gamess/gamess.03.x camphor_fukui_base -ddi 1 6 pietdev:cpus=6 -scr /home/piet/scr

 Distributed Data Interface kickoff program.
 Initiating 6 compute processes on 1 nodes to run the following command:
 /home/piet/gamess/gamess.03.x camphor_fukui_base 

          ******************************************************
          *         GAMESS VERSION = 30 SEP 2019 (R2)          *
          *             FROM IOWA STATE UNIVERSITY             *
          * M.W.SCHMIDT, K.K.BALDRIDGE, J.A.BOATZ, S.T.ELBERT, *
          *   M.S.GORDON, J.H.JENSEN, S.KOSEKI, N.MATSUNAGA,   *
          *          K.A.NGUYEN, S.J.SU, T.L.WINDUS,           *
          *       TOGETHER WITH M.DUPUIS, J.A.MONTGOMERY       *
          *         J.COMPUT.CHEM.  14, 1347-1363(1993)        *
          **************** 64 BIT LINUX VERSION ****************

  SINCE 1993, STUDENTS AND POSTDOCS WORKING AT IOWA STATE UNIVERSITY
  AND ALSO IN THEIR VARIOUS JOBS AFTER LEAVING ISU HAVE MADE IMPORTANT
  CONTRIBUTIONS TO THE CODE:
     IVANA ADAMOVIC, CHRISTINE AIKENS, YURI ALEXEEV, POOJA ARORA,
     ANDREY ASADCHEV, ROB BELL, PRADIPTA BANDYOPADHYAY, JONATHAN BENTZ,
     COLLEEN BERTONI, BRETT BODE, KURT BRORSEN, CALEB CARLIN, GALINA CHABAN,
     WEI CHEN, CHEOL HO CHOI, PAUL DAY, ALBERT DEFUSCO, NUWAN DESILVA,
     TIM DUDLEY, DMITRI FEDOROV, ALEX FINDLATER, GRAHAM FLETCHER, 
     MARK FREITAG, KURT GLAESEMANN, EMILIE B GUIDEZ, ANASTASIA GUNINA, 
     DAN KEMP, SAROM SOK LEANG, GRANT MERRILL,
     NORIYUKI MINEZAWA, JONATHAN MULLIN,
     TAKESHI NAGATA, SEAN NEDD, HEATHER NETZLOFF, BOSILJKA NJEGIC, RYAN OLSON,
     MIKE PAK, BUU PHAM, DAVID POOLE,
     SPENCER PRUITT, LUKE ROSKOP, TOSAPORN SATTASATHUCHANA,
     JIM SHOEMAKER, LYUDMILA SLIPCHENKO,
     TONY SMITH, JIE SONG, TETSUYA TAKETSUGU, SIMON WEBB,
     JORGE LUIS GALVEZ VALLEJO, PENG XU, SOOHAENG YOO,
     FEDERICO ZAHARIEV

  ADDITIONAL CODE HAS BEEN PROVIDED BY COLLABORATORS IN OTHER GROUPS:
     IOWA STATE UNIVERSITY:
          JOE IVANIC, AARON WEST, LAIMUTIS BYTAUTAS, KLAUS RUEDENBERG
     UNIVERSITY OF TOKYO: KIMIHIKO HIRAO, TAKAHITO NAKAJIMA,
          TAKAO TSUNEDA, MUNEAKI KAMIYA, SUSUMU YANAGISAWA,
          KIYOSHI YAGI, MAHITO CHIBA, SEIKEN TOKURA, NAOAKI KAWAKAMI
     UNIVERSITY OF AARHUS: FRANK JENSEN
     UNIVERSITY OF IOWA: VISVALDAS KAIRYS, HUI LI
     NATIONAL INST. OF STANDARDS AND TECHNOLOGY: WALT STEVENS, DAVID GARMER
     UNIVERSITY OF PISA: BENEDETTA MENNUCCI, JACOPO TOMASI
     UNIVERSITY OF MEMPHIS: HENRY KURTZ, PRAKASHAN KORAMBATH
     UNIVERSITY OF ALBERTA: TOBY ZENG, MARIUSZ KLOBUKOWSKI
     UNIVERSITY OF NEW ENGLAND: MARK SPACKMAN
     MIE UNIVERSITY: HIROAKI UMEDA
     NAT. INST. OF ADVANCED INDUSTRIAL SCIENCE AND TECHNOLOGY: KAZUO KITAURA
     MICHIGAN STATE UNIVERSITY:
          KAROL KOWALSKI, MARTA WLOCH, JEFFREY GOUR, JESSE LUTZ,
          WEI LI, JUN SHEN, J. EMILIANO DEUSTUA, PIOTR PIECUCH
     UNIVERSITY OF MINNESOTA:
          ANDREW SAND, PRACHI SHARMA, YINAN SHU
     UNIVERSITY OF SILESIA: MONIKA MUSIAL, STANISLAW KUCHARSKI
     FACULTES UNIVERSITAIRES NOTRE-DAME DE LA PAIX:
          OLIVIER QUINET, BENOIT CHAMPAGNE
     UNIVERSITY OF CALIFORNIA - SANTA BARBARA: BERNARD KIRTMAN
     INSTITUTE FOR MOLECULAR SCIENCE:
          KAZUYA ISHIMURA, MICHIO KATOUDA, AND SHIGERU NAGASE
     UNIVERSITY OF NOTRE DAME: ANNA POMOGAEVA, DAN CHIPMAN
     KYUSHU UNIVERSITY:
          HARUYUKI NAKANO,
          FENG LONG GU, JACEK KORCHOWIEC, MARCIN MAKOWSKI, AND YURIKO AOKI,
          HIROTOSHI MORI AND EISAKU MIYOSHI
     PENNSYLVANIA STATE UNIVERSITY:
          TZVETELIN IORDANOV, CHET SWALINA, JONATHAN SKONE,
          SHARON HAMMES-SCHIFFER
     WASEDA UNIVERSITY:
          MASATO KOBAYASHI, TOMOKO AKAMA, TSUGUKI TOUMA,
          TAKESHI YOSHIKAWA, YASUHIRO IKABATA, JUNJI SEINO,
          YUYA NAKAJIMA, HIROMI NAKAI
     NANJING UNIVERSITY: SHUHUA LI
     UNIVERSITY OF NEBRASKA:
          PEIFENG SU, DEJUN SI, NANDUN THELLAMUREGE, YALI WANG, HUI LI
     UNIVERSITY OF ZURICH: ROBERTO PEVERATI, KIM BALDRIDGE
     N. COPERNICUS UNIVERSITY AND JACKSON STATE UNIVERSITY:
          MARIA BARYSZ
     UNIVERSITY OF COPENHAGEN: Jimmy Kromann, CASPER STEINMANN
     TOKYO INSTITUTE OF TECHNOLOGY: HIROYA NAKATA
     NAGOYA UNIVERSITY: YOSHIO NISHIMOTO, STEPHAN IRLE
     MOSCOW STATE UNIVERSITY: VLADIMIR MIRONOV
     A.N.NESMEYANOV INSTITUTE OF ORGANOELEMENT COMPOUNDS OF RUSSIAN ACADEMY OF SCIENCES:
          IGOR S. GERASIMOV
     JOHANNES KEPLER UNIVERSITY LINZ:
          CHRISTIAN FRIEDL


 PARALLEL VERSION RUNNING ON        6 PROCESSORS IN        1 NODES.

 EXECUTION OF GAMESS BEGUN Mon May 25 18:14:45 2020

            ECHO OF THE FIRST FEW INPUT CARDS -
 INPUT CARD> $BASIS GBASIS=N21 NGAUSS=3 $END                                                
 INPUT CARD> $CONTRL SCFTYP=UHF MAXIT=60 MULT=2 ICHARG=1 $END                               
 INPUT CARD> $SYSTEM MEMDDI=1000 MWORDS=30 $END                                             
 INPUT CARD> $SCF DIRSCF=.TRUE. $END                                                        
 INPUT CARD> $STATPT OPTTOL=0.0001 NSTEP=999 $END                                           
 INPUT CARD> $DATA                                                                          
 INPUT CARD>                                                                                
 INPUT CARD>C1                                                                              
 INPUT CARD>C 6.0000000 -0.23918 -0.52723 0.55111                                           
 INPUT CARD>C 6.0000000 -1.39823 0.17988 -0.16608                                           
 INPUT CARD>O 8.0000000 -2.57407 -0.12421 -0.12852                                          
 INPUT CARD>C 6.0000000 -0.78813 1.36672 -0.92809                                           
 INPUT CARD>C 6.0000000 0.70520 1.24838 -0.55360                                            
 INPUT CARD>C 6.0000000 0.82214 1.67410 0.93168                                             
 INPUT CARD>C 6.0000000 0.14429 0.48699 1.68402                                             
 INPUT CARD>C 6.0000000 0.91996 -0.30261 -0.49129                                           
 INPUT CARD>C 6.0000000 2.31480 -0.71496 0.01125                                            
 INPUT CARD>C 6.0000000 0.68902 -1.02131 -1.83571                                           
 INPUT CARD>C 6.0000000 -0.55725 -1.93268 1.03052                                           
 INPUT CARD>H 1.0000000 -0.98262 1.25124 -1.99958                                           
 INPUT CARD>H 1.0000000 -1.25629 2.30770 -0.61834                                           
 INPUT CARD>H 1.0000000 1.38217 1.77953 -1.23043                                            
 INPUT CARD>H 1.0000000 1.86506 1.80049 1.23704                                             
 INPUT CARD>H 1.0000000 0.31731 2.62824 1.11405                                             
 INPUT CARD>H 1.0000000 -0.73497 0.79001 2.26228                                            
 INPUT CARD>H 1.0000000 0.83111 0.00215 2.38561                                             
 INPUT CARD>H 1.0000000 2.58153 -0.29061 0.98197                                            
 INPUT CARD>H 1.0000000 2.38528 -1.80504 0.09937                                            
 INPUT CARD>H 1.0000000 3.07901 -0.39612 -0.70819                                           
 INPUT CARD>H 1.0000000 1.42042 -0.68047 -2.57836                                           
 INPUT CARD>H 1.0000000 0.82251 -2.10253 -1.71927                                           
 INPUT CARD>H 1.0000000 -0.30802 -0.86493 -2.25713                                          
 INPUT CARD>H 1.0000000 -0.79808 -2.59858 0.19540                                           
 INPUT CARD>H 1.0000000 0.28631 -2.36172 1.58277                                            
 INPUT CARD>H 1.0000000 -1.42890 -1.92076 1.69312                                           
 INPUT CARD> $END                                                                           
   30000000 WORDS OF MEMORY AVAILABLE

     BASIS OPTIONS
     -------------
     GBASIS=N21          IGAUSS=       3      POLAR=NONE    
     NDFUNC=       0     NFFUNC=       0     DIFFSP=       F
     NPFUNC=       0      DIFFS=       F     BASNAM=        


     RUN TITLE
     ---------
                                                                                 

 THE POINT GROUP OF THE MOLECULE IS C1      
 THE ORDER OF THE PRINCIPAL AXIS IS     0

 ATOM      ATOMIC                      COORDINATES (BOHR)
           CHARGE         X                   Y                   Z
 C           6.0    -0.4519846617       -0.9963202325        1.0414468891
 C           6.0    -2.6422715678        0.3399239107       -0.3138456920
 O           8.0    -4.8642869732       -0.2347228649       -0.2428675839
 C           6.0    -1.4893497427        2.5827263019       -1.7538357919
 C           6.0     1.3326347665        2.3590961286       -1.0461523068
 C           6.0     1.5536193235        3.1635902760        1.7606199082
 C           6.0     0.2726685628        0.9202776588        3.1823363578
 C           6.0     1.7384723197       -0.5718499811       -0.9284034805
 C           6.0     4.3743377164       -1.3510784922        0.0212594174
 C           6.0     1.3020590001       -1.9299960485       -3.4689888929
 C           6.0    -1.0530498067       -3.6522356220        1.9474004249
 H           1.0    -1.8568825501        2.3645007449       -3.7786582905
 H           1.0    -2.3740438611        4.3609206619       -1.1684931672
 H           1.0     2.6119225684        3.3628240869       -2.3251755471
 H           1.0     3.5244523507        3.4024327436        2.3376666359
 H           1.0     0.5996289532        4.9666534300        2.1052492366
 H           1.0    -1.3888919092        1.4929024276        4.2750893075
 H           1.0     1.5705701657        0.0040629109        4.5081492136
 H           1.0     4.8783843291       -0.5491732693        1.8556542282
 H           1.0     4.5075256040       -3.4110309969        0.1877820714
 H           1.0     5.8184852135       -0.7485582583       -1.3382850472
 H           1.0     2.6842045875       -1.2859018429       -4.8723938977
 H           1.0     1.5543185222       -3.9732055810       -3.2489491989
 H           1.0    -0.5820733987       -1.6344806986       -4.2653572187
 H           1.0    -1.5081525163       -4.9106041572        0.3692524580
 H           1.0     0.5410474475       -4.4630036597        2.9910016016
 H           1.0    -2.7002294639       -3.6297100882        3.1995328643

          INTERNUCLEAR DISTANCES (ANGS.)
          ------------------------------

                1 C          2 C          3 O          4 C          5 C     

   1 C       0.0000000    1.5355009 *  2.4649611 *  2.4650406 *  2.2945650 *
   2 C       1.5355009 *  0.0000000    1.2151054 *  1.5367077 *  2.3908747 *
   3 O       2.4649611 *  1.2151054 *  0.0000000    2.4600338 *  3.5802665  
   4 C       2.4650406 *  1.5367077 *  2.4600338 *  0.0000000    1.5441119 *
   5 C       2.2945650 *  2.3908747 *  3.5802665    1.5441119 *  0.0000000  
   6 C       2.4732746 *  2.8927173 *  3.9865004    2.4791524 *  1.5495061 *
   7 C       1.5681762 *  2.4282822 *  3.3239055    2.9097166 *  2.4292546 *
   8 C       1.5750103 *  2.3900969 *  3.5173391    2.4279679 *  1.5670272 *
   9 C       2.6171559 *  3.8234508    4.9264156    3.8527816    2.6008790 *
  10 C       2.6081756 *  2.9303813 *  3.7903882    2.9510055 *  2.6068296 *
  11 C       1.5186481 *  2.5694374 *  2.9464386 *  3.8438911    3.7712543  
  12 H       3.1971359    2.1638545 *  2.8152160 *  1.0951040 *  2.2225217 *
  13 H       3.2309370    2.1799780 *  2.8090308 *  1.0957017 *  2.2302002 *
  14 H       3.3352365    3.3796960    4.5266176    2.2298035 *  1.0947637 *
  15 H       3.2119474    3.9043801    5.0274347    3.4518635    2.2037451 *
  16 H       3.2532405    3.2521188    4.1809137    2.6426816 *  2.1989836 *
  17 H       2.2156335 *  2.5901940 *  3.1518267    3.2425115    3.1958368  
  18 H       2.1888705 *  3.3930321    4.2346272    3.9325052    3.1949801  
  19 H       2.8632210 *  4.1686772    5.2764655    4.2130370    2.8717729 *
  20 H       2.9537532 *  4.2808082    5.2414002    4.6028542    3.5457598  
  21 H       3.5515365    4.5465742    5.6892237    4.2556706    2.8919288 *
  22 H       3.5456081    3.8084229    4.7188019    3.4339585    2.8864606 *
  23 H       2.9603008 *  3.5430892    4.2403999    3.9058703    3.5498093  
  24 H       2.8293095 *  2.5792782 *  3.1960334    2.6414228 *  2.8973623 *
  25 H       2.1747160 *  2.8654298 *  3.0629351    4.1213994    4.1976128  
  26 H       2.1692892 *  3.5150934    4.0145658    4.6216993    4.2157286  
  27 H       2.1590615 *  2.8053972 *  2.8031016 *  4.2530992    4.4323337  

                6 C          7 C          8 C          9 C         10 C     

   1 C       2.4732746 *  1.5681762 *  1.5750103 *  2.6171559 *  2.6081756 *
   2 C       2.8927173 *  2.4282822 *  2.3900969 *  3.8234508    2.9303813 *
   3 O       3.9865004    3.3239055    3.5173391    4.9264156    3.7903882  
   4 C       2.4791524 *  2.9097166 *  2.4279679 *  3.8527816    2.9510055 *
   5 C       1.5495061 *  2.4292546 *  1.5670272 *  2.6008790 *  2.6068296 *
   6 C       0.0000000    1.5603609 *  2.4375797 *  2.9635845 *  3.8654112  
   7 C       1.5603609 *  0.0000000    2.4407183 *  2.9923163 *  3.8678416  
   8 C       2.4375797 *  2.4407183 *  0.0000000    1.5388819 *  1.5418587 *
   9 C       2.9635845 *  2.9923163 *  1.5388819 *  0.0000000    2.4795710 *
  10 C       3.8654112    3.8678416    1.5418587 *  2.4795710 *  0.0000000  
  11 C       3.8628161    2.6026954 *  2.6749174 *  3.2818325    3.2556195  
  12 H       3.4681774    3.9272017    2.8825682 *  4.3338618    2.8259011 *
  13 H       2.6690602 *  3.2523024    3.4008711    4.7207564    4.0433313  
  14 H       2.2359492 *  3.4200914    2.2572711 *  2.9383751 *  2.9481393 *
  15 H       1.0940298 *  2.2104576 *  2.8815566 *  2.8341341 *  4.3344455  
  16 H       1.0947581 *  2.2225556 *  3.3956126    4.0476067    4.7072782  
  17 H       2.2308525 *  1.0951273 *  3.3933405    4.0783781    4.7012923  
  18 H       2.2157188 *  1.0949977 *  2.8943612 *  2.8901848 *  4.3459409  
  19 H       2.6378149 *  2.6528616 *  2.2206877 *  1.0924812 *  3.4720077  
  20 H       3.9039162    3.5758290    2.1802151 *  1.0959046 *  2.6899936 *
  21 H       3.4739670    3.8878186    2.1719315 *  1.0969365 *  2.7155508 *
  22 H       4.2687609    4.5999298    2.1792429 *  2.7399243 *  1.0966526 *
  23 H       4.6141597    4.3298937    2.1810877 *  2.6733835 *  1.0956343 *
  24 H       4.2299461    4.1910542    2.2231351 *  3.4709111    1.0936811 *
  25 H       4.6285003    3.5531385    2.9486748 *  3.6430698    2.9706321 *
  26 H       4.1229692    2.8540445 *  2.9905135 *  3.0489777    3.6938976  
  27 H       4.3092912    2.8761554 *  3.5926592    4.2776080    4.2127469  

               11 C         12 H         13 H         14 H         15 H     

   1 C       1.5186481 *  3.1971359    3.2309370    3.3352365    3.2119474  
   2 C       2.5694374 *  2.1638545 *  2.1799780 *  3.3796960    3.9043801  
   3 O       2.9464386 *  2.8152160 *  2.8090308 *  4.5266176    5.0274347  
   4 C       3.8438911    1.0951040 *  1.0957017 *  2.2298035 *  3.4518635  
   5 C       3.7712543    2.2225217 *  2.2302002 *  1.0947637 *  2.2037451 *
   6 C       3.8628161    3.4681774    2.6690602 *  2.2359492 *  1.0940298 *
   7 C       2.6026954 *  3.9272017    3.2523024    3.4200914    2.2104576 *
   8 C       2.6749174 *  2.8825682 *  3.4008711    2.2572711 *  2.8815566 *
   9 C       3.2818325    4.3338618    4.7207564    2.9383751 *  2.8341341 *
  10 C       3.2556195    2.8259011 *  4.0433313    2.9481393 *  4.3344455  
  11 C       0.0000000    4.4158569    4.6030662    4.7595954    4.4549741  
  12 H       4.4158569    0.0000000    1.7603485 *  2.5422261 *  4.3458792  
  13 H       4.6030662    1.7603485 *  0.0000000    2.7595451 *  3.6664046  
  14 H       4.7595954    2.5422261 *  2.7595451 *  0.0000000    2.5143648 *
  15 H       4.4549741    4.3458792    3.6664046    2.5143648 *  0.0000000  
  16 H       4.6447630    3.6442611    2.3622316 *  2.7112399 *  1.7594961 *
  17 H       2.9936362 *  4.2938927    3.2974428    4.2024344    2.9719258 *
  18 H       2.7399598 *  4.9071105    4.3239467    4.0667545    2.3711374 *
  19 H       3.5426954    4.8959276    4.9031693    3.2586282    2.2251043 *
  20 H       3.0889829    5.0089110    5.5399251    3.9526877    3.8163816  
  21 H       4.3135271    4.5692802    5.1101411    2.8081050 *  3.1753252  
  22 H       4.3015373    3.1370513    4.4649317    2.8053482 *  4.5727611  
  23 H       3.0812224    3.8190105    4.9983582    3.9525402    5.0060208  
  24 H       3.4656671    2.2359769 *  3.6946488    3.3021241    4.9026487  
  25 H       1.0949189 *  4.4354375    4.9943681    5.0945391    5.2468224  
  26 H       1.0957412 *  5.2437482    5.3877623    5.1249346    4.4649718  
  27 H       1.0949678 *  4.8884336    4.8220862    5.4901189    4.9905794  

               16 H         17 H         18 H         19 H         20 H     

   1 C       3.2532405    2.2156335 *  2.1888705 *  2.8632210 *  2.9537532 *
   2 C       3.2521188    2.5901940 *  3.3930321    4.1686772    4.2808082  
   3 O       4.1809137    3.1518267    4.2346272    5.2764655    5.2414002  
   4 C       2.6426816 *  3.2425115    3.9325052    4.2130370    4.6028542  
   5 C       2.1989836 *  3.1958368    3.1949801    2.8717729 *  3.5457598  
   6 C       1.0947581 *  2.2308525 *  2.2157188 *  2.6378149 *  3.9039162  
   7 C       2.2225556 *  1.0951273 *  1.0949977 *  2.6528616 *  3.5758290  
   8 C       3.3956126    3.3933405    2.8943612 *  2.2206877 *  2.1802151 *
   9 C       4.0476067    4.0783781    2.8901848 *  1.0924812 *  1.0959046 *
  10 C       4.7072782    4.7012923    4.3459409    3.4720077    2.6899936 *
  11 C       4.6447630    2.9936362 *  2.7399598 *  3.5426954    3.0889829  
  12 H       3.6442611    4.2938927    4.9071105    4.8959276    5.0089110  
  13 H       2.3622316 *  3.2974428    4.3239467    4.9031693    5.5399251  
  14 H       2.7112399 *  4.2024344    4.0667545    3.2586282    3.9526877  
  15 H       1.7594961 *  2.9719258 *  2.3711374 *  2.2251043 *  3.8163816  
  16 H       0.0000000    2.4093183 *  2.9626346 *  3.6964608    4.9960031  
  17 H       2.4093183 *  0.0000000    1.7574243 *  3.7156568    4.5987416  
  18 H       2.9626346 *  1.7574243 *  0.0000000    2.2627160 *  3.3027675  
  19 H       3.6964608    3.7156568    2.2627160 *  0.0000000    1.7638013 *
  20 H       4.9960031    4.5987416    3.3027675    1.7638013 *  0.0000000  
  21 H       4.4826665    4.9776540    3.8449021    1.7650098 *  1.7659190 *
  22 H       5.0792032    5.4990738    5.0452210    3.7651185    3.0603677  
  23 H       5.5374285    5.1619059    4.6130025    3.6978241    2.4162371 *
  24 H       4.8947042    4.8317884    4.8584442    4.3784828    3.7001032  
  25 H       5.4228830    3.9697000    3.7702886    4.1673951    3.2821804  
  26 H       5.0120216    3.3820332    2.5552379 *  3.1493638    2.6298371 *
  27 H       4.9069311    2.8554782 *  3.0470921    4.3871029    4.1353838  

               21 H         22 H         23 H         24 H         25 H     

   1 C       3.5515365    3.5456081    2.9603008 *  2.8293095 *  2.1747160 *
   2 C       4.5465742    3.8084229    3.5430892    2.5792782 *  2.8654298 *
   3 O       5.6892237    4.7188019    4.2403999    3.1960334    3.0629351  
   4 C       4.2556706    3.4339585    3.9058703    2.6414228 *  4.1213994  
   5 C       2.8919288 *  2.8864606 *  3.5498093    2.8973623 *  4.1976128  
   6 C       3.4739670    4.2687609    4.6141597    4.2299461    4.6285003  
   7 C       3.8878186    4.5999298    4.3298937    4.1910542    3.5531385  
   8 C       2.1719315 *  2.1792429 *  2.1810877 *  2.2231351 *  2.9486748 *
   9 C       1.0969365 *  2.7399243 *  2.6733835 *  3.4709111    3.6430698  
  10 C       2.7155508 *  1.0966526 *  1.0956343 *  1.0936811 *  2.9706321 *
  11 C       4.3135271    4.3015373    3.0812224    3.4656671    1.0949189 *
  12 H       4.5692802    3.1370513    3.8190105    2.2359769 *  4.4354375  
  13 H       5.1101411    4.4649317    4.9983582    3.6946488    4.9943681  
  14 H       2.8081050 *  2.8053482 *  3.9525402    3.3021241    5.0945391  
  15 H       3.1753252    4.5727611    5.0060208    4.9026487    5.2468224  
  16 H       4.4826665    5.0792032    5.5374285    4.8947042    5.4228830  
  17 H       4.9776540    5.4990738    5.1619059    4.8317884    3.9697000  
  18 H       3.8449021    5.0452210    4.6130025    4.8584442    3.7702886  
  19 H       1.7650098 *  3.7651185    3.6978241    4.3784828    4.1673951  
  20 H       1.7659190 *  3.0603677    2.4162371 *  3.7001032    3.2821804  
  21 H       0.0000000    2.5158123 *  3.0043152    3.7537941    4.5496299  
  22 H       2.5158123 *  0.0000000    1.7657255 *  1.7676875 *  4.0366611  
  23 H       3.0043152    1.7657255 *  0.0000000    1.7604105 *  2.5570176 *
  24 H       3.7537941    1.7676875 *  1.7604105 *  0.0000000    3.0431241  
  25 H       4.5496299    4.0366611    2.5570176 *  3.0431241    0.0000000  
  26 H       4.1123296    4.6290182    3.3553179    4.1639453    1.7767385 *
  27 H       5.3302973    5.2822803    4.0922235    4.2397670    1.7608348 *

               26 H         27 H     

   1 C       2.1692892 *  2.1590615 *
   2 C       3.5150934    2.8053972 *
   3 O       4.0145658    2.8031016 *
   4 C       4.6216993    4.2530992  
   5 C       4.2157286    4.4323337  
   6 C       4.1229692    4.3092912  
   7 C       2.8540445 *  2.8761554 *
   8 C       2.9905135 *  3.5926592  
   9 C       3.0489777    4.2776080  
  10 C       3.6938976    4.2127469  
  11 C       1.0957412 *  1.0949678 *
  12 H       5.2437482    4.8884336  
  13 H       5.3877623    4.8220862  
  14 H       5.1249346    5.4901189  
  15 H       4.4649718    4.9905794  
  16 H       5.0120216    4.9069311  
  17 H       3.3820332    2.8554782 *
  18 H       2.5552379 *  3.0470921  
  19 H       3.1493638    4.3871029  
  20 H       2.6298371 *  4.1353838  
  21 H       4.1123296    5.3302973  
  22 H       4.6290182    5.2822803  
  23 H       3.3553179    4.0922235  
  24 H       4.1639453    4.2397670  
  25 H       1.7767385 *  1.7608348 *
  26 H       0.0000000    1.7744205 *
  27 H       1.7744205 *  0.0000000  

  * ... LESS THAN  3.000


     ATOMIC BASIS SET
     ----------------
 THE CONTRACTED PRIMITIVE FUNCTIONS HAVE BEEN UNNORMALIZED
 THE CONTRACTED BASIS FUNCTIONS ARE NOW NORMALIZED TO UNITY

  SHELL TYPE  PRIMITIVE        EXPONENT          CONTRACTION COEFFICIENT(S)

 C         

      1   S       1           172.2560000    0.061766907377
      1   S       2            25.9109000    0.358794042852
      1   S       3             5.5333500    0.700713083689

      2   L       4             3.6649800   -0.395895162119    0.236459946619
      2   L       5             0.7705450    1.215834355681    0.860618805716

      3   L       6             0.1958570    1.000000000000    1.000000000000

 C         

      4   S       7           172.2560000    0.061766907377
      4   S       8            25.9109000    0.358794042852
      4   S       9             5.5333500    0.700713083689

      5   L      10             3.6649800   -0.395895162119    0.236459946619
      5   L      11             0.7705450    1.215834355681    0.860618805716

      6   L      12             0.1958570    1.000000000000    1.000000000000

 O         

      7   S      13           322.0370000    0.059239393389
      7   S      14            48.4308000    0.351499960776
      7   S      15            10.4206000    0.707657921031

      8   L      16             7.4029400   -0.404453583190    0.244586106967
      8   L      17             1.5762000    1.221561761397    0.853955373466

      9   L      18             0.3736840    1.000000000000    1.000000000000

 C         

     10   S      19           172.2560000    0.061766907377
     10   S      20            25.9109000    0.358794042852
     10   S      21             5.5333500    0.700713083689

     11   L      22             3.6649800   -0.395895162119    0.236459946619
     11   L      23             0.7705450    1.215834355681    0.860618805716

     12   L      24             0.1958570    1.000000000000    1.000000000000

 C         

     13   S      25           172.2560000    0.061766907377
     13   S      26            25.9109000    0.358794042852
     13   S      27             5.5333500    0.700713083689

     14   L      28             3.6649800   -0.395895162119    0.236459946619
     14   L      29             0.7705450    1.215834355681    0.860618805716

     15   L      30             0.1958570    1.000000000000    1.000000000000

 C         

     16   S      31           172.2560000    0.061766907377
     16   S      32            25.9109000    0.358794042852
     16   S      33             5.5333500    0.700713083689

     17   L      34             3.6649800   -0.395895162119    0.236459946619
     17   L      35             0.7705450    1.215834355681    0.860618805716

     18   L      36             0.1958570    1.000000000000    1.000000000000

 C         

     19   S      37           172.2560000    0.061766907377
     19   S      38            25.9109000    0.358794042852
     19   S      39             5.5333500    0.700713083689

     20   L      40             3.6649800   -0.395895162119    0.236459946619
     20   L      41             0.7705450    1.215834355681    0.860618805716

     21   L      42             0.1958570    1.000000000000    1.000000000000

 C         

     22   S      43           172.2560000    0.061766907377
     22   S      44            25.9109000    0.358794042852
     22   S      45             5.5333500    0.700713083689

     23   L      46             3.6649800   -0.395895162119    0.236459946619
     23   L      47             0.7705450    1.215834355681    0.860618805716

     24   L      48             0.1958570    1.000000000000    1.000000000000

 C         

     25   S      49           172.2560000    0.061766907377
     25   S      50            25.9109000    0.358794042852
     25   S      51             5.5333500    0.700713083689

     26   L      52             3.6649800   -0.395895162119    0.236459946619
     26   L      53             0.7705450    1.215834355681    0.860618805716

     27   L      54             0.1958570    1.000000000000    1.000000000000

 C         

     28   S      55           172.2560000    0.061766907377
     28   S      56            25.9109000    0.358794042852
     28   S      57             5.5333500    0.700713083689

     29   L      58             3.6649800   -0.395895162119    0.236459946619
     29   L      59             0.7705450    1.215834355681    0.860618805716

     30   L      60             0.1958570    1.000000000000    1.000000000000

 C         

     31   S      61           172.2560000    0.061766907377
     31   S      62            25.9109000    0.358794042852
     31   S      63             5.5333500    0.700713083689

     32   L      64             3.6649800   -0.395895162119    0.236459946619
     32   L      65             0.7705450    1.215834355681    0.860618805716

     33   L      66             0.1958570    1.000000000000    1.000000000000

 H         

     34   S      67             5.4471780    0.156284978695
     34   S      68             0.8245472    0.904690876670

     35   S      69             0.1831916    1.000000000000

 H         

     36   S      70             5.4471780    0.156284978695
     36   S      71             0.8245472    0.904690876670

     37   S      72             0.1831916    1.000000000000

 H         

     38   S      73             5.4471780    0.156284978695
     38   S      74             0.8245472    0.904690876670

     39   S      75             0.1831916    1.000000000000

 H         

     40   S      76             5.4471780    0.156284978695
     40   S      77             0.8245472    0.904690876670

     41   S      78             0.1831916    1.000000000000

 H         

     42   S      79             5.4471780    0.156284978695
     42   S      80             0.8245472    0.904690876670

     43   S      81             0.1831916    1.000000000000

 H         

     44   S      82             5.4471780    0.156284978695
     44   S      83             0.8245472    0.904690876670

     45   S      84             0.1831916    1.000000000000

 H         

     46   S      85             5.4471780    0.156284978695
     46   S      86             0.8245472    0.904690876670

     47   S      87             0.1831916    1.000000000000

 H         

     48   S      88             5.4471780    0.156284978695
     48   S      89             0.8245472    0.904690876670

     49   S      90             0.1831916    1.000000000000

 H         

     50   S      91             5.4471780    0.156284978695
     50   S      92             0.8245472    0.904690876670

     51   S      93             0.1831916    1.000000000000

 H         

     52   S      94             5.4471780    0.156284978695
     52   S      95             0.8245472    0.904690876670

     53   S      96             0.1831916    1.000000000000

 H         

     54   S      97             5.4471780    0.156284978695
     54   S      98             0.8245472    0.904690876670

     55   S      99             0.1831916    1.000000000000

 H         

     56   S     100             5.4471780    0.156284978695
     56   S     101             0.8245472    0.904690876670

     57   S     102             0.1831916    1.000000000000

 H         

     58   S     103             5.4471780    0.156284978695
     58   S     104             0.8245472    0.904690876670

     59   S     105             0.1831916    1.000000000000

 H         

     60   S     106             5.4471780    0.156284978695
     60   S     107             0.8245472    0.904690876670

     61   S     108             0.1831916    1.000000000000

 H         

     62   S     109             5.4471780    0.156284978695
     62   S     110             0.8245472    0.904690876670

     63   S     111             0.1831916    1.000000000000

 H         

     64   S     112             5.4471780    0.156284978695
     64   S     113             0.8245472    0.904690876670

     65   S     114             0.1831916    1.000000000000

 TOTAL NUMBER OF BASIS SET SHELLS             =   65
 NUMBER OF CARTESIAN GAUSSIAN BASIS FUNCTIONS =  131
 NUMBER OF ELECTRONS                          =   83
 CHARGE OF MOLECULE                           =    1
 SPIN MULTIPLICITY                            =    2
 NUMBER OF OCCUPIED ORBITALS (ALPHA)          =   42
 NUMBER OF OCCUPIED ORBITALS (BETA )          =   41
 TOTAL NUMBER OF ATOMS                        =   27
 THE NUCLEAR REPULSION ENERGY IS      683.9170625134

     $CONTRL OPTIONS
     ---------------
 SCFTYP=UHF          RUNTYP=ENERGY       EXETYP=RUN     
 MPLEVL=       0     CITYP =NONE         CCTYP =NONE         VBTYP =NONE    
 DFTTYP=NONE         TDDFT =NONE    
 MULT  =       2     ICHARG=       1     NZVAR =       0     COORD =UNIQUE  
 PP    =NONE         RELWFN=NONE         LOCAL =NONE         NUMGRD=       F
 ISPHER=      -1     NOSYM =       0     MAXIT =      60     UNITS =ANGS    
 PLTORB=       F     MOLPLT=       F     AIMPAC=       F     FRIEND=        
 NPRINT=       7     IREST =       0     GEOM  =INPUT   
 NORMF =       0     NORMP =       0     ITOL  =      20     ICUT  =       9
 INTTYP=BEST         GRDTYP=BEST         QMTTOL= 1.0E-06

     $SYSTEM OPTIONS
     ---------------
  REPLICATED MEMORY=    30000000 WORDS (ON EVERY NODE).
 DISTRIBUTED MEMDDI=        1000 MILLION WORDS IN AGGREGATE,
 MEMDDI DISTRIBUTED OVER   6 PROCESSORS IS   166666666 WORDS/PROCESSOR.
 TOTAL MEMORY REQUESTED ON EACH PROCESSOR=   196666666 WORDS.
 TIMLIM=      525600.00 MINUTES, OR     365.0 DAYS.
 PARALL= T  BALTYP=  DLB     KDIAG=    0  COREFL= F
 MXSEQ2=     300 MXSEQ3=     150  mem10=         0

          ----------------
          PROPERTIES INPUT
          ----------------

     MOMENTS            FIELD           POTENTIAL          DENSITY
 IEMOM =       1   IEFLD =       0   IEPOT =       0   IEDEN =       0
 WHERE =COMASS     WHERE =NUCLEI     WHERE =NUCLEI     WHERE =NUCLEI  
 OUTPUT=BOTH       OUTPUT=BOTH       OUTPUT=BOTH       OUTPUT=BOTH    
 IEMINT=       0   IEFINT=       0                     IEDINT=       0
                                                       MORB  =       0
          EXTRAPOLATION IN EFFECT
          SOSCF IN EFFECT
          DIIS or SOSCF will be reset if energy rises
 ORBITAL PRINTING OPTION: NPREO=     1   131     2     1

     -------------------------------
     INTEGRAL TRANSFORMATION OPTIONS
     -------------------------------
     NWORD  =            0
     CUTOFF = 1.0E-09     MPTRAN =       0
     DIRTRF =       T     AOINTS =DUP     

          ----------------------
          INTEGRAL INPUT OPTIONS
          ----------------------
 NOPK  =       1 NORDER=       0 SCHWRZ=       T

     ------------------------------------------
     THE POINT GROUP IS C1 , NAXIS= 0, ORDER= 1
     ------------------------------------------

     DIMENSIONS OF THE SYMMETRY SUBSPACES ARE
 A   =  131

 ..... DONE SETTING UP THE RUN .....
 CPU     0: STEP CPU TIME=     0.03 TOTAL CPU TIME=          0.0 (      0.0 MIN)
 TOTAL WALL CLOCK TIME=          0.1 SECONDS, CPU UTILIZATION IS    60.00%

          ********************
          1 ELECTRON INTEGRALS
          ********************
 ...... END OF ONE-ELECTRON INTEGRALS ......
 CPU     0: STEP CPU TIME=     0.01 TOTAL CPU TIME=          0.0 (      0.0 MIN)
 TOTAL WALL CLOCK TIME=          0.1 SECONDS, CPU UTILIZATION IS    50.00%

          -------------
          GUESS OPTIONS
          -------------
          GUESS =HUCKEL            NORB  =       0          NORDER=       0
          MIX   =       F          PRTMO =       F          PUNMO =       F
          TOLZ  = 1.0E-08          TOLE  = 1.0E-05
          SYMDEN=       F          PURIFY=       F

 INITIAL GUESS ORBITALS GENERATED BY HUCKEL   ROUTINE.
 HUCKEL GUESS REQUIRES    164328 WORDS.

 SYMMETRIES FOR INITIAL GUESS ORBITALS FOLLOW.  ALPHA SET(S).
    42 ORBITALS ARE OCCUPIED (   11 CORE ORBITALS).
    12=A       13=A       14=A       15=A       16=A       17=A       18=A   
    19=A       20=A       21=A       22=A       23=A       24=A       25=A   
    26=A       27=A       28=A       29=A       30=A       31=A       32=A   
    33=A       34=A       35=A       36=A       37=A       38=A       39=A   
    40=A       41=A       42=A       43=A       44=A       45=A       46=A   
    47=A       48=A       49=A       50=A       51=A       52=A   

 SYMMETRIES FOR INITIAL GUESS ORBITALS FOLLOW.   BETA SET(S).
    41 ORBITALS ARE OCCUPIED (   11 CORE ORBITALS).
    12=A       13=A       14=A       15=A       16=A       17=A       18=A   
    19=A       20=A       21=A       22=A       23=A       24=A       25=A   
    26=A       27=A       28=A       29=A       30=A       31=A       32=A   
    33=A       34=A       35=A       36=A       37=A       38=A       39=A   
    40=A       41=A       42=A       43=A       44=A       45=A       46=A   
    47=A       48=A       49=A       50=A       51=A   
 ...... END OF INITIAL ORBITAL SELECTION ......
 CPU     0: STEP CPU TIME=     0.06 TOTAL CPU TIME=          0.1 (      0.0 MIN)
 TOTAL WALL CLOCK TIME=          0.2 SECONDS, CPU UTILIZATION IS    47.62%

                    ----------------------
                    AO INTEGRAL TECHNOLOGY
                    ----------------------
     S,P,L SHELL ROTATED AXIS INTEGRALS, REPROGRAMMED BY
        KAZUYA ISHIMURA (IMS) AND JOSE SIERRA (SYNSTAR).
     S,P,D,L SHELL ROTATED AXIS INTEGRALS PROGRAMMED BY
        KAZUYA ISHIMURA (INSTITUTE FOR MOLECULAR SCIENCE).
     S,P,D,F,G SHELL TO TOTAL QUARTET ANGULAR MOMENTUM SUM 5,
        ERIC PROGRAM BY GRAHAM FLETCHER (ELORET AND NASA ADVANCED
        SUPERCOMPUTING DIVISION, AMES RESEARCH CENTER).
     S,P,D,F,G,L SHELL GENERAL RYS QUADRATURE PROGRAMMED BY
        MICHEL DUPUIS (PACIFIC NORTHWEST NATIONAL LABORATORY).

          --------------------
          2 ELECTRON INTEGRALS
          --------------------

 DIRECT SCF METHOD SKIPS INTEGRAL STORAGE ON DISK.
 DIRECT TRANSFORMATION SKIPS AO INTEGRAL STORAGE ON DISK.
  ...... END OF TWO-ELECTRON INTEGRALS .....
 CPU     0: STEP CPU TIME=     0.02 TOTAL CPU TIME=          0.1 (      0.0 MIN)
 TOTAL WALL CLOCK TIME=          0.2 SECONDS, CPU UTILIZATION IS    52.17%

          ---------------------------
                  UHF SCF CALCULATION
          ---------------------------

     NUCLEAR ENERGY =       683.9170625134
     MAXIT = 60     NPUNCH=  2     MULT=  2
     EXTRAP=T  DAMP=F  SHIFT=F  RSTRCT=F  DIIS=F  SOSCF=T
     DENSITY MATRIX CONV=  2.00E-05
     SOSCF WILL OPTIMIZE    3738 ALPHA AND    3690 BETA ROTATION ANGLES.
     SOGTOL= 2.500E-01
     MEMORY REQUIRED FOR UHF/ROHF ITERS=    274348 WORDS.

 DIRECT SCF CALCULATION, SCHWRZ=T   FDIFF=T
 SCHWARZ INEQUALITY OVERHEAD:      8461 INTEGRALS, T=        0.00

                                                                                NONZERO     BLOCKS
 ITER EX      TOTAL ENERGY        E CHANGE  DENSITY CHANGE    ORB. GRAD       INTEGRALS    SKIPPED
   1  0     -458.8468001078  -458.8468001078   1.303863993   0.000000000       28258689     931034
          ---------------START SECOND ORDER SCF---------------
   2  1     -459.8312969645    -0.9844968567   0.293853442   0.098802972       28122989     957078
   3  2     -459.8694986324    -0.0382016679   0.197800415   0.071168065       27860694    1001984
   4  3     -460.0153238104    -0.1458251779   0.058407181   0.012730495       27472320    1053245
   5  4     -460.0224800999    -0.0071562895   0.036836824   0.007211382       26848555    1117799
   6  5     -460.0262124416    -0.0037323418   0.026487003   0.005625205       26788013    1120628
   7  6     -460.0272234999    -0.0010110583   0.018928703   0.001847285       26043995    1188237
   8  7     -460.0274106586    -0.0001871587   0.007158748   0.000661367       25617197    1216248
   9  8     -460.0274369416    -0.0000262831   0.001533840   0.000431087       24760452    1278764
  10  9     -460.0274437587    -0.0000068171   0.001334848   0.000217562       23621412    1366580
  11 10     -460.0274470356    -0.0000032769   0.000941845   0.000134624       23376508    1384823
  12 11     -460.0274481375    -0.0000011019   0.000576171   0.000095047       22943206    1417629
  13 12     -460.0274486263    -0.0000004887   0.000319825   0.000048596       22519484    1447002
  14 13     -460.0274487948    -0.0000001685   0.000232035   0.000026376       21749108    1493997
  15 14     -460.0274488562    -0.0000000614   0.000112388   0.000021283       21130148    1528228
  16 15     -460.0274488753    -0.0000000191   0.000080900   0.000009292       20397263    1569201
  17 16     -460.0274488810    -0.0000000057   0.000048831   0.000005059       19552737    1614820
  18 17     -460.0274488831    -0.0000000020   0.000023125   0.000003346       18460683    1670607
  19 18     -460.0274488823     0.0000000008   0.000008964   0.000001392       17474305    1722734
  20 19     -460.0274488823     0.0000000000   0.000005197   0.000000544       16447703    1775898

          -----------------
          DENSITY CONVERGED
          -----------------
     TIME TO FORM FOCK OPERATORS=       9.5 SECONDS (       0.5 SEC/ITER)
     FOCK TIME ON FIRST ITERATION=       0.7, LAST ITERATION=       0.3
     TIME TO SOLVE SCF EQUATIONS=       0.3 SECONDS (       0.0 SEC/ITER)

 FINAL UHF ENERGY IS     -460.0274488823 AFTER  20 ITERATIONS

          --------------------
          SPIN SZ   =    0.500
          S-SQUARED =    0.779
          --------------------

  ----- ALPHA SET ----- 

          ------------
          EIGENVECTORS
          ------------

                      1          2          3          4          5
                  -20.8553   -11.5464   -11.4053   -11.3991   -11.3647
                     A          A          A          A          A   
    1  C  1  S   -0.000018   0.000452   0.989014   0.020324  -0.000281
    2  C  1  S   -0.000110  -0.000089   0.113482   0.001556  -0.002180
    3  C  1  X   -0.001143  -0.001423  -0.000373   0.000464   0.001229
    4  C  1  Y   -0.001073  -0.000050   0.002598  -0.000454   0.000686
    5  C  1  Z    0.000297  -0.000230  -0.001103   0.000257  -0.001007
    6  C  1  S    0.007022   0.012438  -0.126157  -0.003552   0.023341
    7  C  1  X    0.007336  -0.003567   0.001510  -0.002873   0.010879
    8  C  1  Y    0.013593   0.007907  -0.019005   0.000829  -0.001900
    9  C  1  Z   -0.006355  -0.010070   0.006722   0.003940  -0.010053
   10  C  2  S    0.000402   0.987475  -0.000961   0.000140   0.000876
   11  C  2  S    0.002864   0.100966  -0.001882  -0.002387  -0.001646
   12  C  2  X   -0.001282   0.000157   0.001139   0.000292  -0.000713
   13  C  2  Y   -0.000048   0.000060  -0.000152  -0.000139   0.000188
   14  C  2  Z   -0.000200   0.000239   0.000580  -0.000089  -0.000110
   15  C  2  S    0.014851  -0.066507   0.032454   0.027666   0.001667
   16  C  2  X   -0.034132  -0.030897   0.016354   0.005966   0.002951
   17  C  2  Y   -0.010194  -0.010632  -0.010996   0.015270   0.000630
   18  C  2  Z    0.001942   0.001846   0.010822  -0.009476   0.000467
   19  O  3  S    0.983627   0.000298   0.000024   0.000038  -0.000054
   20  O  3  S    0.102421   0.002688   0.000029   0.000117  -0.000493
   21  O  3  X    0.004664  -0.000518   0.000070  -0.000123  -0.000045
   22  O  3  Y    0.001208  -0.000214  -0.000372   0.000229  -0.000045
   23  O  3  Z   -0.000136  -0.000008   0.000219  -0.000114  -0.000090
   24  O  3  S   -0.062692  -0.010787  -0.000262  -0.000897   0.002004
   25  O  3  X   -0.016851  -0.005997  -0.001823  -0.000433   0.000523
   26  O  3  Y   -0.004175  -0.001013   0.002566  -0.002594   0.000198
   27  O  3  Z    0.000407   0.000182  -0.001992   0.001510   0.000242
   28  C  4  S   -0.000034  -0.001054  -0.020268   0.987886   0.004877
   29  C  4  S   -0.000137  -0.002664  -0.002479   0.106276  -0.000813
   30  C  4  X   -0.000685  -0.000690  -0.000113   0.000140  -0.000631
   31  C  4  Y   -0.000658  -0.000915   0.000514  -0.001259   0.000657
   32  C  4  Z    0.000359   0.000019  -0.000635   0.001003   0.000088
   33  C  4  S    0.009316   0.027211  -0.004384  -0.096528  -0.000636
   34  C  4  X    0.007193   0.000651  -0.006667  -0.002009   0.000292
   35  C  4  Y   -0.003102  -0.011527   0.001749   0.010938  -0.001323
   36  C  4  Z    0.003261   0.010821  -0.001816  -0.008187  -0.002371
   37  C  5  S   -0.000004  -0.000583  -0.008503  -0.000757  -0.000008
   38  C  5  S   -0.000326  -0.000649  -0.005674  -0.001404  -0.002210
   39  C  5  X    0.000717   0.001187   0.000617  -0.001072   0.000143
   40  C  5  Y    0.000317   0.000425   0.001108   0.000094  -0.001796
   41  C  5  Z   -0.000455  -0.000040  -0.000582  -0.000355   0.000105
   42  C  5  S   -0.003428  -0.005127   0.016892   0.016231   0.024923
   43  C  5  X    0.001811   0.001282  -0.007991  -0.010130   0.002330
   44  C  5  Y   -0.002579   0.001635  -0.004728   0.000548  -0.013289
   45  C  5  Z    0.004692   0.004553   0.007300  -0.005176  -0.000316
   46  C  6  S   -0.000008   0.000362  -0.000231  -0.004617  -0.005000
   47  C  6  S   -0.000155   0.001120   0.000833  -0.003312  -0.001957
   48  C  6  X    0.000094   0.000127   0.000410   0.001419  -0.000215
   49  C  6  Y    0.000051   0.000462   0.000665   0.000193   0.000677
   50  C  6  Z    0.000165  -0.000310   0.000101   0.000959   0.000604
   51  C  6  S   -0.000236  -0.007161  -0.011641   0.006914   0.001239
   52  C  6  X   -0.000128   0.004107   0.002276  -0.006892   0.001350
   53  C  6  Y    0.000134   0.001736   0.004512  -0.001545  -0.001194
   54  C  6  Z    0.001097   0.002574   0.003403  -0.003157  -0.000388
   55  C  7  S   -0.000029  -0.002302  -0.000736   0.000437  -0.010400
   56  C  7  S   -0.000311  -0.003946  -0.003175   0.000826  -0.002405
   57  C  7  X    0.000005   0.001386  -0.000598  -0.000140  -0.000433
   58  C  7  Y    0.000172  -0.000271  -0.001058  -0.000329   0.000499
   59  C  7  Z    0.000206   0.001651  -0.001782   0.000292   0.000605
   60  C  7  S   -0.001658   0.008579   0.033501  -0.005489   0.002413
   61  C  7  X   -0.001630  -0.007132  -0.003011   0.001624   0.001602
   62  C  7  Y    0.000142   0.002572  -0.007843  -0.000997  -0.001908
   63  C  7  Z    0.002825  -0.008139  -0.013115   0.002069  -0.000705
   64  C  8  S    0.000009  -0.001231  -0.000542  -0.005170   0.988858
   65  C  8  S   -0.000309  -0.001764  -0.002062  -0.002026   0.110677
   66  C  8  X    0.001220   0.002008  -0.001458   0.001047  -0.001119
   67  C  8  Y    0.000021  -0.000385  -0.000463  -0.000721   0.000755
   68  C  8  Z    0.000344   0.000469   0.001219   0.000444   0.000672
   69  C  8  S   -0.006095  -0.001784   0.021731   0.002121  -0.112850
   70  C  8  X   -0.003759  -0.009930  -0.010588  -0.007703   0.005655
   71  C  8  Y   -0.001781   0.003765  -0.004478   0.001353  -0.004362
   72  C  8  Z   -0.008385  -0.006722   0.010570  -0.000525  -0.003399
   73  C  9  S   -0.000125  -0.000668  -0.001323  -0.001354  -0.000799
   74  C  9  S   -0.000635  -0.001551  -0.000814  -0.001436  -0.002240
   75  C  9  X   -0.000254  -0.000164   0.000786   0.000057  -0.000974
   76  C  9  Y    0.000115   0.000101  -0.000105  -0.000160   0.000244
   77  C  9  Z   -0.000000  -0.000156  -0.000166  -0.000017  -0.000478
   78  C  9  S    0.005128   0.009769  -0.000101   0.006348   0.021806
   79  C  9  X   -0.002522  -0.004812   0.000358  -0.002746  -0.011087
   80  C  9  Y    0.001158   0.000991   0.000633   0.001813   0.004342
   81  C  9  Z   -0.000131  -0.000499  -0.000395  -0.001130  -0.001898
   82  C 10  S    0.000040   0.000037  -0.001745  -0.000794  -0.000777
   83  C 10  S    0.000066   0.000406  -0.001163  -0.000354  -0.002260
   84  C 10  X    0.000170   0.000448   0.000319   0.000328   0.000293
   85  C 10  Y   -0.000107  -0.000237  -0.000111  -0.000535   0.000487
   86  C 10  Z   -0.000102  -0.000818  -0.000833  -0.000222   0.001038
   87  C 10  S   -0.002817  -0.005690   0.000998  -0.000740   0.022340
   88  C 10  X   -0.001141   0.000841  -0.000017   0.000313  -0.000419
   89  C 10  Y   -0.001352  -0.002054   0.000339   0.000664   0.006632
   90  C 10  Z   -0.002187   0.001118   0.000422  -0.000465   0.010287
   91  C 11  S   -0.000082  -0.000646  -0.000701  -0.001114  -0.002874
   92  C 11  S   -0.000173  -0.001135  -0.001883  -0.000892  -0.000647
   93  C 11  X   -0.000296   0.000171   0.000036   0.000263  -0.000559
   94  C 11  Y    0.000749  -0.000194   0.000636  -0.000263  -0.000468
   95  C 11  Z   -0.000524   0.000151  -0.000168   0.000272   0.000559
   96  C 11  S    0.008317   0.005190   0.016353   0.001680  -0.001771
   97  C 11  X    0.002185   0.000563   0.001699  -0.000952  -0.000400
   98  C 11  Y    0.002969   0.002761   0.009025   0.000953  -0.000829
   99  C 11  Z    0.000721   0.000348  -0.003232  -0.002422   0.000641
  100  H 12  S    0.000193  -0.000953   0.000057   0.001154  -0.000145
  101  H 12  S    0.000763   0.002662  -0.000383   0.013172  -0.002116
  102  H 13  S    0.000410  -0.001554  -0.000062   0.001123   0.000062
  103  H 13  S    0.000500   0.001828  -0.001163   0.012801   0.001964
  104  H 14  S    0.000570   0.000335   0.000055  -0.001022  -0.001382
  105  H 14  S    0.001842   0.001912   0.004429  -0.000230  -0.000544
  106  H 15  S   -0.000019  -0.000162   0.000457   0.000179  -0.000054
  107  H 15  S   -0.000154  -0.001121  -0.000175   0.003773  -0.001746
  108  H 16  S   -0.000030   0.000875   0.000456  -0.000971  -0.000058
  109  H 16  S   -0.000210  -0.000285  -0.000236  -0.001687   0.001729
  110  H 17  S    0.000212  -0.001905  -0.001657   0.000615  -0.000045
  111  H 17  S   -0.002224  -0.000405  -0.000500   0.000309   0.001811
  112  H 18  S    0.000052   0.000471  -0.001708  -0.000065  -0.000176
  113  H 18  S   -0.000148   0.004866  -0.000354  -0.000282  -0.002022
  114  H 19  S   -0.000433  -0.000537   0.000029  -0.000311  -0.001439
  115  H 19  S    0.000094  -0.000430  -0.000524  -0.000463  -0.001051
  116  H 20  S   -0.000226  -0.000555   0.000238  -0.000206  -0.001213
  117  H 20  S    0.000159  -0.000192  -0.000547   0.000301   0.000649
  118  H 21  S   -0.000147  -0.000307  -0.000326  -0.000536  -0.001127
  119  H 21  S   -0.000127   0.000212   0.001012   0.000123   0.000573
  120  H 22  S    0.000144   0.000402  -0.000329   0.000169  -0.001166
  121  H 22  S    0.000107   0.001184   0.001362  -0.000717   0.000455
  122  H 23  S    0.000045   0.000237   0.000100   0.000066  -0.001198
  123  H 23  S   -0.000123  -0.000840  -0.000869   0.000617   0.000736
  124  H 24  S    0.000713  -0.000450  -0.000073  -0.000176  -0.001466
  125  H 24  S   -0.002239   0.003968  -0.000629   0.000168  -0.001184
  126  H 25  S    0.000159  -0.000162  -0.001076  -0.000434   0.000301
  127  H 25  S    0.000170   0.000200   0.000140  -0.000726  -0.000821
  128  H 26  S   -0.000491  -0.000295  -0.001046   0.000081   0.000270
  129  H 26  S   -0.001500   0.000144   0.000207   0.001056  -0.000827
  130  H 27  S   -0.000139  -0.000312  -0.001134  -0.000285  -0.000270
  131  H 27  S   -0.000354  -0.000663   0.000376   0.000435   0.001396

                      6          7          8          9         10
                  -11.3551   -11.3492   -11.3281   -11.3264   -11.3124
                     A          A          A          A          A   
    1  C  1  S    0.007168  -0.000073   0.000681   0.000380   0.001597
    2  C  1  S   -0.003746  -0.000954   0.000318  -0.000532  -0.000859
    3  C  1  X   -0.000869   0.000479  -0.000237  -0.000071  -0.000049
    4  C  1  Y   -0.002506   0.000758  -0.000714   0.000575   0.000610
    5  C  1  Z    0.001021   0.000572  -0.000207  -0.000044   0.001164
    6  C  1  S    0.010432   0.012261  -0.006544   0.012662   0.000935
    7  C  1  X    0.003752   0.004528  -0.003709  -0.001617  -0.000047
    8  C  1  Y    0.023584   0.005027   0.000688  -0.015529  -0.003500
    9  C  1  Z   -0.006505   0.011879  -0.001609   0.004480  -0.003745
   10  C  2  S    0.000674   0.001370   0.000036   0.000463   0.000130
   11  C  2  S   -0.000056  -0.003509   0.000815  -0.000711   0.000198
   12  C  2  X   -0.000760  -0.001240  -0.000140  -0.000058  -0.000261
   13  C  2  Y   -0.000248  -0.000350  -0.000381   0.001082   0.000186
   14  C  2  Z   -0.000084  -0.000796   0.000136  -0.000455   0.000047
   15  C  2  S   -0.013813   0.010414  -0.006520   0.002137  -0.001643
   16  C  2  X   -0.005808   0.008286  -0.001810   0.000840   0.000295
   17  C  2  Y   -0.002700   0.001897  -0.001568  -0.004129   0.000761
   18  C  2  Z   -0.000057   0.002620  -0.000715   0.003018   0.001043
   19  O  3  S   -0.000034  -0.000042  -0.000016   0.000029  -0.000019
   20  O  3  S   -0.000383  -0.000333  -0.000173   0.000245  -0.000160
   21  O  3  X   -0.000183   0.000081  -0.000054   0.000042  -0.000016
   22  O  3  Y   -0.000116   0.000069  -0.000090  -0.000064  -0.000016
   23  O  3  Z    0.000040   0.000306  -0.000021   0.000117   0.000017
   24  O  3  S    0.000485   0.002331   0.000533  -0.001095   0.000800
   25  O  3  X    0.000893  -0.000114   0.000362  -0.000581   0.000278
   26  O  3  Y    0.000604  -0.000210   0.000492   0.000743   0.000006
   27  O  3  Z   -0.000123  -0.001275   0.000151  -0.000769  -0.000212
   28  C  4  S   -0.000316  -0.000060   0.003884   0.001046   0.000731
   29  C  4  S   -0.002954   0.000818  -0.002484  -0.000723  -0.000271
   30  C  4  X    0.001749   0.000438  -0.000739  -0.000214  -0.000303
   31  C  4  Y   -0.000476   0.000385  -0.000180   0.000018   0.000349
   32  C  4  Z    0.000756  -0.000448  -0.001439  -0.000168   0.000366
   33  C  4  S    0.035266  -0.006294   0.007011   0.002364   0.000403
   34  C  4  X    0.013804  -0.002169   0.002091  -0.001515  -0.000219
   35  C  4  Y   -0.004715   0.001755  -0.000725  -0.001168  -0.000642
   36  C  4  Z    0.008393  -0.001913   0.007127   0.000962  -0.001301
   37  C  5  S    0.988799   0.015052   0.000248   0.004435   0.003338
   38  C  5  S    0.111336   0.001208  -0.001174  -0.001106  -0.000558
   39  C  5  X   -0.002402  -0.000103   0.000137   0.000307   0.000164
   40  C  5  Y   -0.002050  -0.000021   0.000262   0.000115   0.000635
   41  C  5  Z    0.002030  -0.000818   0.001112  -0.000204   0.000774
   42  C  5  S   -0.113882  -0.004064   0.015902   0.005802   0.000383
   43  C  5  X    0.018682  -0.002080   0.003540  -0.001826  -0.000135
   44  C  5  Y    0.014137   0.001857   0.004276  -0.002779  -0.001381
   45  C  5  Z   -0.017941  -0.002581   0.010074   0.002361  -0.002347
   46  C  6  S   -0.001232  -0.006495   0.987537   0.030540   0.005765
   47  C  6  S   -0.003093  -0.003608   0.105346   0.002862  -0.000354
   48  C  6  X   -0.000383  -0.000194  -0.000603   0.000066  -0.000005
   49  C  6  Y   -0.000833  -0.000707  -0.000999   0.000111   0.000211
   50  C  6  Z   -0.001809   0.000410  -0.000826   0.000128   0.000028
   51  C  6  S    0.034304   0.025400  -0.091427  -0.002647   0.002593
   52  C  6  X   -0.004985  -0.006624   0.004896  -0.000016   0.000341
   53  C  6  Y   -0.007945  -0.010573   0.009579  -0.000274  -0.001035
   54  C  6  Z   -0.013482   0.004010   0.004019   0.001041  -0.001638
   55  C  7  S   -0.014869   0.987867   0.005106   0.006714   0.002308
   56  C  7  S   -0.001192   0.105254  -0.002411  -0.000601  -0.000787
   57  C  7  X   -0.000040  -0.000235   0.000486   0.000280  -0.000197
   58  C  7  Y   -0.000173  -0.000436   0.000364   0.000855  -0.000036
   59  C  7  Z    0.001129  -0.001429  -0.000413  -0.000288   0.000086
   60  C  7  S   -0.012119  -0.091288   0.025461   0.004121   0.004171
   61  C  7  X   -0.000630  -0.001585   0.004756  -0.001446   0.000374
   62  C  7  Y   -0.000848  -0.000359   0.009557  -0.001794  -0.001683
   63  C  7  Z    0.006226   0.010577  -0.008438  -0.000451  -0.001789
   64  C  8  S   -0.001044   0.010064   0.004647   0.003106   0.000254
   65  C  8  S   -0.001763  -0.000313  -0.001024  -0.000269  -0.000568
   66  C  8  X    0.000030  -0.000070  -0.000184   0.000230   0.000147
   67  C  8  Y    0.002035  -0.000413  -0.000991   0.000840  -0.000077
   68  C  8  Z   -0.000270  -0.001234  -0.001007  -0.000376  -0.000100
   69  C  8  S    0.020249   0.001530   0.001204   0.000431   0.011197
   70  C  8  X   -0.000822   0.000843  -0.000102  -0.000355  -0.003739
   71  C  8  Y    0.013829   0.004164   0.003525  -0.003352  -0.004435
   72  C  8  Z   -0.002199   0.006765   0.007486   0.001071  -0.010986
   73  C  9  S   -0.003154  -0.000488  -0.002446   0.000882  -0.036829
   74  C  9  S   -0.001333   0.000116  -0.000396   0.000396  -0.006074
   75  C  9  X    0.000486   0.000402   0.000360  -0.000011   0.000458
   76  C  9  Y   -0.000603  -0.000254  -0.000462   0.000014   0.000378
   77  C  9  Z    0.000125  -0.000253  -0.000189   0.000135   0.001019
   78  C  9  S    0.001489  -0.002179  -0.000998  -0.001193   0.009088
   79  C  9  X   -0.000525   0.000437   0.000328   0.001170  -0.002218
   80  C  9  Y    0.000049  -0.000482   0.000159   0.000672  -0.001182
   81  C  9  Z    0.000492  -0.000102  -0.000409  -0.000670  -0.003791
   82  C 10  S   -0.003550  -0.002684  -0.006213   0.000463   0.986850
   83  C 10  S   -0.001304  -0.001458  -0.001848   0.000233   0.102130
   84  C 10  X    0.000078   0.000084   0.000004  -0.000146   0.000131
   85  C 10  Y   -0.000688   0.000108  -0.000175   0.000021   0.000116
   86  C 10  Z   -0.000429  -0.000156   0.000070   0.000009   0.000392
   87  C 10  S    0.000937   0.006294   0.006965  -0.000520  -0.080645
   88  C 10  X   -0.000708   0.000036   0.000642   0.000676  -0.001297
   89  C 10  Y   -0.000207   0.000791   0.002591   0.000491  -0.001533
   90  C 10  Z    0.000367   0.003725   0.002456  -0.001174  -0.003794
   91  C 11  S   -0.004874  -0.006860  -0.030723   0.987041  -0.000550
   92  C 11  S   -0.002480  -0.001756  -0.003858   0.102098   0.000260
   93  C 11  X   -0.000138  -0.000167  -0.000095  -0.000125   0.000054
   94  C 11  Y    0.000403  -0.000794  -0.000114   0.000472  -0.000143
   95  C 11  Z    0.000013  -0.000251  -0.000203  -0.000166   0.000169
   96  C 11  S    0.015493   0.001254   0.005105  -0.082879  -0.002148
   97  C 11  X    0.002942  -0.000486   0.001764  -0.000783  -0.000721
   98  C 11  Y    0.006325   0.000456   0.001801  -0.005438  -0.000355
   99  C 11  Z   -0.003293  -0.000408   0.001003   0.002106   0.001088
  100  H 12  S   -0.001498   0.000102   0.000081  -0.000193  -0.000111
  101  H 12  S    0.001202   0.000024   0.003636   0.000299  -0.001545
  102  H 13  S   -0.001663   0.000377  -0.000874  -0.000222  -0.000035
  103  H 13  S   -0.000334  -0.000684  -0.001343  -0.000078   0.000597
  104  H 14  S   -0.000259  -0.000115  -0.001138  -0.000063  -0.000132
  105  H 14  S    0.006048   0.000848  -0.000408   0.001551  -0.000784
  106  H 15  S   -0.001510  -0.001336   0.000820  -0.000057  -0.000220
  107  H 15  S    0.000970   0.000883   0.013102   0.000531  -0.000227
  108  H 16  S   -0.001657  -0.001520   0.000901  -0.000025  -0.000137
  109  H 16  S   -0.000397   0.000267   0.012996   0.000666   0.000620
  110  H 17  S    0.000540   0.000880  -0.001546  -0.000228  -0.000145
  111  H 17  S   -0.000656   0.012985   0.000371  -0.001373   0.000538
  112  H 18  S    0.000417   0.000894  -0.001278  -0.000495  -0.000290
  113  H 18  S   -0.000173   0.013463   0.000924  -0.000287  -0.000497
  114  H 19  S   -0.000035  -0.000007  -0.000115   0.000264  -0.000052
  115  H 19  S   -0.001156   0.000336   0.000279  -0.000136   0.001480
  116  H 20  S   -0.000269   0.000210   0.000039   0.000203  -0.000652
  117  H 20  S    0.000918  -0.000152   0.000416   0.000134  -0.002201
  118  H 21  S    0.000052   0.000072   0.000210  -0.000119  -0.000657
  119  H 21  S   -0.000587   0.000369  -0.000560  -0.000411  -0.002041
  120  H 22  S    0.000074  -0.000195  -0.000563  -0.000178   0.000453
  121  H 22  S   -0.000385   0.000508  -0.000138  -0.000401   0.014197
  122  H 23  S   -0.000255  -0.000457  -0.000200   0.000228   0.000444
  123  H 23  S    0.000870  -0.000391   0.000360  -0.000251   0.014439
  124  H 24  S    0.000007  -0.000501  -0.000278   0.000315   0.000029
  125  H 24  S   -0.001224   0.000439  -0.000492  -0.000436   0.014213
  126  H 25  S   -0.000782  -0.000341   0.000048   0.000360   0.000174
  127  H 25  S   -0.000401   0.000892   0.000240   0.014350   0.000159
  128  H 26  S   -0.000790   0.000126  -0.000405   0.000304   0.000182
  129  H 26  S   -0.000455  -0.000854  -0.001185   0.013892   0.000174
  130  H 27  S   -0.000439  -0.000153  -0.000275   0.000455  -0.000049
  131  H 27  S    0.000570  -0.000664  -0.000176   0.014118  -0.000142

                     11         12         13         14         15
                  -11.3060    -1.7838    -1.3875    -1.2376    -1.2064
                     A          A          A          A          A   
    1  C  1  S    0.001374  -0.010561  -0.114354   0.110599   0.059117
    2  C  1  S   -0.000682   0.005708   0.100393  -0.091682  -0.041318
    3  C  1  X   -0.001169  -0.007606   0.001263   0.008125   0.074432
    4  C  1  Y    0.000409   0.005023   0.038166   0.035824  -0.008135
    5  C  1  Z   -0.000047  -0.004663  -0.024433  -0.029133  -0.031028
    6  C  1  S   -0.000479  -0.004015   0.304948  -0.342356  -0.221229
    7  C  1  X    0.004489  -0.024739  -0.008531   0.017881   0.007389
    8  C  1  Y   -0.003091  -0.037522   0.057231  -0.048430  -0.023504
    9  C  1  Z    0.000790   0.025489  -0.018188   0.010246   0.012696
   10  C  2  S    0.000282  -0.104902  -0.068380  -0.025031   0.072358
   11  C  2  S   -0.001035   0.105098   0.085327   0.024776  -0.083814
   12  C  2  X   -0.000233  -0.139122   0.093478  -0.004545  -0.050341
   13  C  2  Y   -0.000022  -0.036119   0.015293   0.109413  -0.011203
   14  C  2  Z    0.000005   0.004747   0.005330  -0.080632  -0.013202
   15  C  2  S    0.004188   0.064926   0.100822   0.082002  -0.152784
   16  C  2  X    0.003351   0.145823   0.020595   0.034700  -0.044234
   17  C  2  Y   -0.001639   0.043871   0.016788   0.016477  -0.015432
   18  C  2  Z    0.001821  -0.008243  -0.010816  -0.004136  -0.005627
   19  O  3  S   -0.000020  -0.228699   0.036390   0.008894  -0.039229
   20  O  3  S   -0.000193   0.223176  -0.039236  -0.010366   0.042977
   21  O  3  X    0.000024   0.121385   0.012024  -0.004068  -0.050810
   22  O  3  Y   -0.000111   0.031794   0.000271   0.054816  -0.009215
   23  O  3  Z    0.000052  -0.003989   0.002174  -0.040502  -0.007982
   24  O  3  S    0.000860   0.769560  -0.124202  -0.026587   0.139133
   25  O  3  X   -0.000093   0.155992   0.006826  -0.004649  -0.039609
   26  O  3  Y    0.000614   0.039941  -0.003625   0.047447  -0.005866
   27  O  3  Z   -0.000379  -0.004590   0.004532  -0.035871  -0.006818
   28  C  4  S    0.001019  -0.009644  -0.080668  -0.138944   0.050843
   29  C  4  S   -0.001037   0.008995   0.083390   0.129177  -0.042911
   30  C  4  X   -0.000041  -0.005166   0.020402   0.002507   0.035735
   31  C  4  Y    0.000278  -0.006455  -0.034885  -0.017708   0.018758
   32  C  4  Z    0.000002   0.004321   0.030311   0.014158  -0.019877
   33  C  4  S    0.003694  -0.027711   0.170011   0.386597  -0.168334
   34  C  4  X    0.001256  -0.031760   0.000574  -0.016954  -0.000760
   35  C  4  Y   -0.001251   0.015922  -0.010734  -0.020388   0.009133
   36  C  4  Z   -0.000269  -0.017908  -0.000453   0.007847  -0.010003
   37  C  5  S    0.003129  -0.000974  -0.087751  -0.075536  -0.049061
   38  C  5  S   -0.000702   0.004233   0.082895   0.059029   0.042787
   39  C  5  X   -0.000871  -0.004123  -0.029238  -0.047336   0.039690
   40  C  5  Y    0.000487  -0.002477  -0.030098   0.018281  -0.036364
   41  C  5  Z   -0.000318   0.002101   0.018546  -0.014777  -0.000971
   42  C  5  S    0.000671   0.013462   0.189695   0.225986   0.129605
   43  C  5  X    0.002707  -0.003359  -0.027897  -0.028021  -0.018612
   44  C  5  Y   -0.000982   0.010992  -0.021733  -0.026019  -0.000495
   45  C  5  Z    0.000468  -0.024374   0.029890   0.029603   0.017713
   46  C  6  S    0.002636  -0.000637  -0.053545  -0.014237  -0.012883
   47  C  6  S   -0.000019   0.000330   0.058283   0.016843   0.013896
   48  C  6  X   -0.000407  -0.001232  -0.016543  -0.003465   0.016007
   49  C  6  Y    0.000257  -0.001167  -0.028792   0.013752  -0.001792
   50  C  6  Z    0.000205  -0.000732  -0.019183  -0.031597  -0.019502
   51  C  6  S    0.000419   0.011347   0.088398   0.014754   0.019268
   52  C  6  X    0.000818  -0.002441   0.002327   0.007115   0.004542
   53  C  6  Y   -0.000251  -0.003332  -0.000033   0.008869  -0.000044
   54  C  6  Z    0.000186  -0.006034   0.002642   0.013427   0.007992
   55  C  7  S    0.000624  -0.000724  -0.061941   0.054963   0.034715
   56  C  7  S    0.000075   0.006356   0.067802  -0.054378  -0.034141
   57  C  7  X   -0.000228  -0.002513  -0.002810   0.008837   0.025111
   58  C  7  Y    0.000242  -0.000386  -0.005967   0.034810   0.014699
   59  C  7  Z   -0.000025  -0.002847  -0.040673   0.009847   0.005568
   60  C  7  S    0.000185  -0.009461   0.100178  -0.108142  -0.079643
   61  C  7  X   -0.000515   0.015083   0.009166  -0.004442  -0.000794
   62  C  7  Y   -0.000155  -0.003065   0.006634  -0.004081  -0.000427
   63  C  7  Z    0.000813   0.002845   0.008057  -0.005750  -0.009113
   64  C  8  S    0.000270  -0.001093  -0.088679   0.027640  -0.123863
   65  C  8  S   -0.000601   0.004013   0.085585  -0.023040   0.101160
   66  C  8  X    0.000052  -0.006337  -0.032827   0.002536   0.051940
   67  C  8  Y   -0.000062   0.000887   0.022381   0.041463  -0.009832
   68  C  8  Z   -0.000203  -0.001379   0.018879  -0.029230  -0.030234
   69  C  8  S    0.012287   0.020140   0.172479  -0.072988   0.368748
   70  C  8  X    0.011148   0.026970   0.010677   0.002330  -0.029509
   71  C  8  Y   -0.002168   0.001082  -0.006698  -0.013719   0.011262
   72  C  8  Z    0.005474   0.032009  -0.011337   0.004591   0.006694
   73  C  9  S    0.986864   0.000537  -0.025175   0.024609  -0.098722
   74  C  9  S    0.102079   0.003055   0.030356  -0.022770   0.097922
   75  C  9  X   -0.000371   0.000623  -0.021303   0.013526  -0.036802
   76  C  9  Y    0.000021  -0.000233   0.008420   0.001714   0.011400
   77  C  9  Z   -0.000261   0.000131  -0.003291  -0.000480  -0.021293
   78  C  9  S   -0.080956  -0.026709   0.032847  -0.068755   0.252360
   79  C  9  X    0.003840   0.013874   0.009187   0.008780  -0.004711
   80  C  9  Y   -0.000859  -0.005481  -0.005164   0.001933   0.001925
   81  C  9  Z    0.001840   0.002422   0.004399  -0.001461  -0.009358
   82  C 10  S    0.036224  -0.000534  -0.028165   0.011374  -0.092419
   83  C 10  S    0.001454   0.000267   0.033630  -0.011916   0.093380
   84  C 10  X   -0.001002  -0.001330  -0.002876  -0.003308   0.016437
   85  C 10  Y    0.000111   0.000830   0.013633   0.005458   0.017478
   86  C 10  Z   -0.000566   0.001371   0.021630  -0.010581   0.032639
   87  C 10  S    0.003451   0.013830   0.041822  -0.021243   0.217792
   88  C 10  X    0.003572   0.002776  -0.002889   0.000989   0.007604
   89  C 10  Y    0.000064   0.005931  -0.006044   0.004929  -0.002833
   90  C 10  Z    0.002513   0.005919  -0.012230  -0.002410   0.001506
   91  C 11  S   -0.000880  -0.001911  -0.031036   0.088128   0.047195
   92  C 11  S    0.000299   0.002658   0.034217  -0.084995  -0.047433
   93  C 11  X   -0.000063   0.000584   0.005298  -0.007274   0.006287
   94  C 11  Y   -0.000122  -0.000090   0.025661  -0.040277  -0.022674
   95  C 11  Z   -0.000057   0.000828  -0.009863   0.011413   0.001720
   96  C 11  S   -0.002036  -0.024932   0.063745  -0.235789  -0.119253
   97  C 11  X   -0.001392  -0.010216   0.001867  -0.002082   0.004865
   98  C 11  Y   -0.000387  -0.008380  -0.002528  -0.014308  -0.002210
   99  C 11  Z    0.000673  -0.006552   0.001828   0.007912  -0.003961
  100  H 12  S   -0.000347   0.001622   0.028727   0.067116  -0.021363
  101  H 12  S   -0.000560  -0.006860  -0.011724  -0.005239   0.007672
  102  H 13  S   -0.000161   0.001295   0.029218   0.067471  -0.027471
  103  H 13  S    0.000652  -0.005234  -0.007341  -0.002277  -0.000754
  104  H 14  S   -0.000212  -0.001866   0.028150   0.033799   0.029536
  105  H 14  S   -0.000864  -0.011541   0.004144   0.015334   0.016137
  106  H 15  S   -0.000003   0.000093   0.017896   0.004188   0.010774
  107  H 15  S   -0.001410   0.000246  -0.007431  -0.008274   0.006755
  108  H 16  S   -0.000076  -0.000385   0.019328   0.011953   0.002995
  109  H 16  S    0.000551   0.001220  -0.003982   0.004519  -0.005165
  110  H 17  S   -0.000195   0.001785   0.024584  -0.026758  -0.024967
  111  H 17  S   -0.000051   0.010165  -0.005270  -0.000945  -0.004889
  112  H 18  S    0.000198  -0.000105   0.021833  -0.030732  -0.013789
  113  H 18  S   -0.001392  -0.006114  -0.008681  -0.005050   0.009447
  114  H 19  S    0.000019   0.001414   0.012120  -0.011822   0.044180
  115  H 19  S    0.014576  -0.000032   0.000628   0.000792  -0.002323
  116  H 20  S    0.000405   0.000966   0.009595  -0.012011   0.046381
  117  H 20  S    0.014308  -0.000757  -0.004222  -0.001876  -0.002405
  118  H 21  S    0.000476   0.000726   0.009978  -0.008884   0.048313
  119  H 21  S    0.014124   0.000201  -0.003521   0.002194  -0.000275
  120  H 22  S   -0.000599  -0.000514   0.010513  -0.004610   0.047018
  121  H 22  S   -0.001166  -0.001655  -0.005449   0.002309   0.002618
  122  H 23  S   -0.000668  -0.000173   0.010504  -0.008366   0.045490
  123  H 23  S   -0.000960   0.001065  -0.003870  -0.004281  -0.003150
  124  H 24  S   -0.000064  -0.000738   0.015828  -0.000603   0.038939
  125  H 24  S    0.002495   0.003882  -0.004329   0.000982   0.003981
  126  H 25  S    0.000237  -0.000177   0.012357  -0.038690  -0.021050
  127  H 25  S    0.000074  -0.001257  -0.003091   0.004831   0.004059
  128  H 26  S    0.000203   0.001809   0.011158  -0.038982  -0.019583
  129  H 26  S    0.000212   0.007770  -0.003397   0.000112   0.003913
  130  H 27  S   -0.000094   0.000519   0.012729  -0.041110  -0.026577
  131  H 27  S   -0.000245   0.004365  -0.005636   0.001241  -0.001046

                     16         17         18         19         20
                   -1.1909    -1.0941    -1.0816    -1.0628    -1.0245
                     A          A          A          A          A   
    1  C  1  S    0.032995   0.019194   0.001478   0.039547   0.041125
    2  C  1  S   -0.027016  -0.008514  -0.002690  -0.030910  -0.031979
    3  C  1  X    0.036658   0.006549   0.018096   0.027063  -0.080728
    4  C  1  Y    0.045890  -0.128204  -0.003595  -0.044303  -0.035359
    5  C  1  Z    0.059031   0.029152   0.022919   0.088762  -0.023942
    6  C  1  S   -0.100974  -0.087332  -0.000505  -0.150754  -0.171139
    7  C  1  X    0.020964   0.004631  -0.001327   0.003817  -0.044287
    8  C  1  Y    0.002305  -0.064045  -0.001091  -0.034108  -0.070238
    9  C  1  Z    0.001704   0.011763   0.007981   0.030959   0.019376
   10  C  2  S    0.061322   0.072485  -0.019696   0.019125  -0.087430
   11  C  2  S   -0.069294  -0.082589   0.027024  -0.019761   0.105206
   12  C  2  X   -0.038920  -0.017826  -0.022277  -0.057646  -0.134013
   13  C  2  Y   -0.005320   0.006173   0.048778   0.111561  -0.072895
   14  C  2  Z    0.021314  -0.021788  -0.026931  -0.076563   0.026471
   15  C  2  S   -0.138041  -0.193733   0.029223  -0.065703   0.253035
   16  C  2  X   -0.048290  -0.059624  -0.004864  -0.058710   0.085151
   17  C  2  Y   -0.008945  -0.018991   0.035946   0.054269  -0.006432
   18  C  2  Z    0.012879  -0.001931  -0.014991  -0.045173   0.016634
   19  O  3  S   -0.032707  -0.035938   0.014667  -0.000710   0.080103
   20  O  3  S    0.036243   0.039178  -0.015655   0.002870  -0.085829
   21  O  3  X   -0.046099  -0.093854   0.023929  -0.044406   0.324113
   22  O  3  Y   -0.008195  -0.029911   0.063006   0.131037   0.006528
   23  O  3  Z    0.011132  -0.004756  -0.030617  -0.091889   0.037326
   24  O  3  S    0.113409   0.131607  -0.055249  -0.008484  -0.297997
   25  O  3  X   -0.036618  -0.079971   0.021138  -0.042293   0.287367
   26  O  3  Y   -0.006203  -0.027034   0.052661   0.112513   0.004527
   27  O  3  Z    0.009145  -0.003884  -0.025726  -0.077900   0.032474
   28  C  4  S    0.048570  -0.033457  -0.033014  -0.061742   0.035868
   29  C  4  S   -0.040938   0.032304   0.029709   0.051367  -0.028985
   30  C  4  X    0.034229   0.052098  -0.046156  -0.081839  -0.016916
   31  C  4  Y    0.035731   0.043991  -0.001907   0.016026  -0.004982
   32  C  4  Z    0.007788  -0.020635   0.004575  -0.020942   0.022492
   33  C  4  S   -0.163619   0.105718   0.115792   0.256200  -0.167540
   34  C  4  X   -0.000798   0.010637  -0.022095  -0.023022  -0.022928
   35  C  4  Y    0.019719   0.009698   0.003067  -0.006550   0.023887
   36  C  4  Z   -0.005721  -0.004711   0.006274   0.008016  -0.009082
   37  C  5  S   -0.052575  -0.085270   0.031275   0.076992  -0.004097
   38  C  5  S    0.039977   0.070587  -0.024369  -0.059267   0.006376
   39  C  5  X    0.023973   0.000794   0.000756  -0.019670   0.035948
   40  C  5  Y    0.030176   0.034377  -0.001241   0.032375   0.048043
   41  C  5  Z    0.065459  -0.008765   0.001857  -0.004195   0.044089
   42  C  5  S    0.174482   0.273139  -0.108315  -0.282660   0.016656
   43  C  5  X   -0.023058  -0.017529   0.010063   0.030258   0.011992
   44  C  5  Y   -0.025679  -0.002224   0.007986   0.031211   0.020829
   45  C  5  Z    0.026750   0.017183  -0.010944  -0.025934  -0.009395
   46  C  6  S   -0.138912  -0.026067   0.026939  -0.023631  -0.093033
   47  C  6  S    0.128173   0.025560  -0.025247   0.021653   0.077162
   48  C  6  X   -0.013971   0.015565   0.004858  -0.015292   0.023556
   49  C  6  Y   -0.029966   0.025511  -0.006262  -0.003110   0.043966
   50  C  6  Z    0.002232  -0.050851   0.008601   0.065198  -0.006639
   51  C  6  S    0.356802   0.062561  -0.072485   0.077330   0.338164
   52  C  6  X   -0.005329   0.009073   0.004593  -0.005613  -0.008862
   53  C  6  Y   -0.015035   0.011905  -0.005865   0.000553  -0.003219
   54  C  6  Z   -0.007672  -0.003202  -0.003546   0.010091  -0.013980
   55  C  7  S   -0.110236   0.066693  -0.002446  -0.092068   0.049563
   56  C  7  S    0.097760  -0.061103   0.000638   0.077918  -0.037967
   57  C  7  X    0.027960   0.016940   0.001781   0.008395   0.014856
   58  C  7  Y    0.043658   0.003374  -0.017481   0.011315   0.060419
   59  C  7  Z   -0.014401   0.004899   0.004256   0.047407  -0.005138
   60  C  7  S    0.310793  -0.196568   0.016807   0.316807  -0.182582
   61  C  7  X   -0.007304   0.002138   0.009120  -0.004342   0.012459
   62  C  7  Y   -0.002884  -0.000442  -0.007138  -0.000471   0.011073
   63  C  7  Z   -0.031191  -0.002526  -0.004078  -0.007233   0.012790
   64  C  8  S    0.039327   0.010419  -0.002082   0.034375   0.032981
   65  C  8  S   -0.030383  -0.008878   0.002277  -0.026711  -0.023537
   66  C  8  X    0.018155   0.013265   0.091502   0.037323   0.039708
   67  C  8  Y    0.044925   0.030525  -0.008633  -0.074655  -0.017564
   68  C  8  Z    0.034691   0.000789   0.086530  -0.048064  -0.033320
   69  C  8  S   -0.133088  -0.040982   0.014521  -0.101037  -0.104367
   70  C  8  X    0.010290  -0.002935   0.034642   0.017730   0.038700
   71  C  8  Y   -0.012634   0.006501  -0.003209  -0.025677  -0.015350
   72  C  8  Z   -0.006617  -0.002172   0.029348  -0.014917   0.006259
   73  C  9  S    0.014293   0.008483  -0.158285  -0.022092  -0.031735
   74  C  9  S   -0.015672  -0.009273   0.145964   0.020574   0.030484
   75  C  9  X    0.007610   0.001883   0.009234   0.009638   0.021332
   76  C  9  Y    0.008945   0.004239   0.000469  -0.016376  -0.004426
   77  C  9  Z    0.012366   0.001461   0.014095  -0.004384  -0.003772
   78  C  9  S   -0.023879  -0.016436   0.481038   0.073241   0.092192
   79  C  9  X   -0.002969  -0.005441  -0.002446  -0.001251   0.012887
   80  C  9  Y    0.007633   0.002328  -0.002565  -0.005053  -0.000826
   81  C  9  Z    0.002116  -0.000100   0.000210   0.002372  -0.000445
   82  C 10  S    0.062334   0.033742   0.124100  -0.096349  -0.032456
   83  C 10  S   -0.058603  -0.031547  -0.112801   0.087157   0.027812
   84  C 10  X    0.003540   0.001950   0.020013   0.004246   0.005011
   85  C 10  Y   -0.007148   0.002777  -0.002690  -0.020513  -0.013211
   86  C 10  Z   -0.018608  -0.002244   0.014740  -0.022149  -0.016253
   87  C 10  S   -0.178808  -0.103459  -0.384043   0.308012   0.123584
   88  C 10  X    0.000554   0.000602   0.002953  -0.002321  -0.002366
   89  C 10  Y   -0.003356  -0.000434  -0.002472  -0.002503   0.001652
   90  C 10  Z   -0.010283   0.003881  -0.004561   0.002369   0.000309
   91  C 11  S    0.042662  -0.155947  -0.005751  -0.055168  -0.028647
   92  C 11  S   -0.040493   0.144759   0.005360   0.050917   0.026969
   93  C 11  X    0.001043  -0.002197   0.006689   0.006485  -0.020952
   94  C 11  Y   -0.010181  -0.016876  -0.000018  -0.015620  -0.018174
   95  C 11  Z    0.014954   0.003139   0.006426   0.018156  -0.004866
   96  C 11  S   -0.114297   0.476988   0.017364   0.179627   0.079044
   97  C 11  X   -0.002381  -0.010677   0.006178   0.008495  -0.015867
   98  C 11  Y   -0.002096   0.004979  -0.001020  -0.001640  -0.017402
   99  C 11  Z    0.004420  -0.002120   0.002765   0.005098  -0.004839
  100  H 12  S   -0.032299   0.023492   0.019547   0.053645  -0.029793
  101  H 12  S   -0.007932   0.004737  -0.000852   0.019445  -0.014819
  102  H 13  S   -0.017630   0.025502   0.027884   0.056571  -0.016691
  103  H 13  S    0.006290   0.007814   0.002230   0.017810  -0.008204
  104  H 14  S    0.023930   0.060082  -0.018934  -0.042868   0.011858
  105  H 14  S    0.011795   0.023269  -0.008742  -0.020410  -0.000799
  106  H 15  S    0.066785   0.016818  -0.011080   0.016492   0.068637
  107  H 15  S    0.002176   0.000181   0.003374   0.004398   0.024681
  108  H 16  S    0.066028   0.019234  -0.018209   0.022279   0.067752
  109  H 16  S    0.002479   0.003096  -0.001359   0.008237   0.021358
  110  H 17  S    0.050319  -0.045386  -0.000114   0.064247  -0.026516
  111  H 17  S    0.002096  -0.005529   0.002086   0.018791  -0.003313
  112  H 18  S    0.054138  -0.032316   0.007901   0.069730  -0.038482
  113  H 18  S    0.006930   0.001394   0.006575   0.023962  -0.016982
  114  H 19  S    0.001904  -0.004657   0.098537   0.012285   0.021053
  115  H 19  S    0.004593   0.000979   0.019655  -0.000197   0.004343
  116  H 20  S   -0.011123  -0.005723   0.089968   0.021098   0.022813
  117  H 20  S   -0.003151  -0.000732   0.009057   0.009816   0.006834
  118  H 21  S   -0.008904  -0.004616   0.088290   0.015517   0.026874
  119  H 21  S   -0.000557   0.001180   0.008759   0.005759   0.010387
  120  H 22  S   -0.027315  -0.017506  -0.068837   0.060780   0.024271
  121  H 22  S    0.001623   0.001864  -0.006722   0.014272   0.007343
  122  H 23  S   -0.029880  -0.019027  -0.066661   0.064669   0.025143
  123  H 23  S   -0.001175  -0.001664  -0.003492   0.015750   0.010525
  124  H 24  S   -0.035932  -0.021803  -0.083678   0.059394   0.020339
  125  H 24  S   -0.000414   0.002706  -0.025569   0.014307  -0.000483
  126  H 25  S   -0.024805   0.093115  -0.000794   0.031305   0.027453
  127  H 25  S   -0.004358   0.014074  -0.003861   0.005143   0.006352
  128  H 26  S   -0.017622   0.093192   0.008292   0.042540   0.012888
  129  H 26  S    0.003291   0.016865   0.004673   0.011196   0.001939
  130  H 27  S   -0.019770   0.090626   0.002745   0.034880   0.025099
  131  H 27  S    0.002232   0.010955  -0.000303   0.007301   0.002717

                     21         22         23         24         25
                   -0.9840    -0.9514    -0.9070    -0.8844    -0.8559
                     A          A          A          A          A   
    1  C  1  S   -0.013473  -0.034462  -0.006757  -0.009994  -0.107479
    2  C  1  S    0.004690   0.020885  -0.000131   0.011931   0.077984
    3  C  1  X    0.085935  -0.031389  -0.070686   0.119641   0.004671
    4  C  1  Y   -0.017456  -0.000046   0.048533  -0.040629  -0.075430
    5  C  1  Z   -0.026997  -0.096177   0.049083  -0.016139   0.073770
    6  C  1  S    0.071359   0.185332   0.061619   0.017167   0.551537
    7  C  1  X    0.026559   0.002416  -0.049745   0.069308  -0.010952
    8  C  1  Y    0.005951   0.055703   0.039460  -0.032002  -0.038206
    9  C  1  Z   -0.024280  -0.076369   0.026014  -0.009218   0.036242
   10  C  2  S   -0.020603  -0.009464  -0.016537   0.034401   0.035713
[...]
             15  C  2  S      0.74486     0.54145
             16  C  2  X      0.00763     0.39210
             17  C  2  Y      0.36044     0.45820
             18  C  2  Z      0.32161     0.39490
             19  O  3  S      1.98827     1.98283
             20  O  3  S      0.45551     0.61393
             21  O  3  X      0.72417     0.71125
             22  O  3  Y      0.62064     0.61311
             23  O  3  Z      0.67537     0.66721
             24  O  3  S      1.59732     1.03201
             25  O  3  X      0.75445     0.78382
             26  O  3  Y      0.65517     0.67693
             27  O  3  Z      0.75707     0.76838
             28  C  4  S      1.99002     1.97653
             29  C  4  S      0.34677     0.42519
             30  C  4  X      0.54184     0.53004
             31  C  4  Y      0.50719     0.48724
             32  C  4  Z      0.55028     0.52910
             33  C  4  S      1.14844     0.56899
             34  C  4  X      0.40846     0.53870
             35  C  4  Y      0.41643     0.53449
             36  C  4  Z      0.53720     0.57638
             37  C  5  S      1.99165     1.97639
             38  C  5  S      0.32340     0.41899
             39  C  5  X      0.49800     0.48632
             40  C  5  Y      0.52578     0.52402
             41  C  5  Z      0.54210     0.53330
             42  C  5  S      1.16669     0.55537
             43  C  5  X      0.38368     0.51459
             44  C  5  Y      0.39793     0.52314
             45  C  5  Z      0.46185     0.54471
             46  C  6  S      1.98954     1.97634
             47  C  6  S      0.34053     0.41429
             48  C  6  X      0.55443     0.53339
             49  C  6  Y      0.53436     0.51359
             50  C  6  Z      0.50288     0.49324
             51  C  6  S      1.10396     0.56634
             52  C  6  X      0.58043     0.59443
             53  C  6  Y      0.44627     0.55401
             54  C  6  Z      0.32819     0.51393
             55  C  7  S      1.98957     1.97638
             56  C  7  S      0.33988     0.41695
             57  C  7  X      0.54611     0.52629
             58  C  7  Y      0.51321     0.49957
             59  C  7  Z      0.51887     0.50547
             60  C  7  S      1.11200     0.56867
             61  C  7  X      0.57646     0.58925
             62  C  7  Y      0.38471     0.52900
             63  C  7  Z      0.39124     0.53319
             64  C  8  S      1.99152     1.97624
             65  C  8  S      0.32064     0.41394
             66  C  8  X      0.51091     0.51322
             67  C  8  Y      0.50866     0.50916
             68  C  8  Z      0.51386     0.51142
             69  C  8  S      1.11540     0.54387
             70  C  8  X      0.41276     0.52279
             71  C  8  Y      0.36488     0.51040
             72  C  8  Z      0.39353     0.52089
             73  C  9  S      1.98838     1.97635
             74  C  9  S      0.35090     0.41400
             75  C  9  X      0.51197     0.49394
             76  C  9  Y      0.55019     0.52093
             77  C  9  Z      0.55148     0.52338
             78  C  9  S      1.12467     0.57777
             79  C  9  X      0.35638     0.53281
             80  C  9  Y      0.55858     0.60459
             81  C  9  Z      0.55439     0.59878
             82  C 10  S      1.98839     1.97641
             83  C 10  S      0.34994     0.41560
             84  C 10  X      0.54168     0.51211
             85  C 10  Y      0.54609     0.52015
             86  C 10  Z      0.52441     0.50652
             87  C 10  S      1.12366     0.57915
             88  C 10  X      0.55527     0.60158
             89  C 10  Y      0.53370     0.59743
             90  C 10  Z      0.38707     0.54328
             91  C 11  S      1.98834     1.97629
             92  C 11  S      0.35107     0.41176
             93  C 11  X      0.55837     0.52837
             94  C 11  Y      0.51478     0.49724
             95  C 11  Z      0.55281     0.52316
             96  C 11  S      1.14391     0.57502
             97  C 11  X      0.58758     0.61387
             98  C 11  Y      0.31929     0.52006
             99  C 11  Z      0.55031     0.60329
            100  H 12  S      0.44638     0.45140
            101  H 12  S      0.21813     0.38667
            102  H 13  S      0.44803     0.45309
            103  H 13  S      0.22704     0.39221
            104  H 14  S      0.45748     0.46469
            105  H 14  S      0.26143     0.40890
            106  H 15  S      0.46189     0.47035
            107  H 15  S      0.26862     0.41237
            108  H 16  S      0.46398     0.47335
            109  H 16  S      0.28875     0.42206
            110  H 17  S      0.46275     0.47181
            111  H 17  S      0.28304     0.42014
            112  H 18  S      0.45628     0.46360
            113  H 18  S      0.25227     0.40449
            114  H 19  S      0.46788     0.46913
            115  H 19  S      0.30435     0.42999
            116  H 20  S      0.46253     0.46421
            117  H 20  S      0.30042     0.42670
            118  H 21  S      0.45932     0.46014
            119  H 21  S      0.29370     0.42219
            120  H 22  S      0.45910     0.46025
            121  H 22  S      0.28958     0.42142
            122  H 23  S      0.46128     0.46312
            123  H 23  S      0.29253     0.42341
            124  H 24  S      0.47231     0.47459
            125  H 24  S      0.33971     0.44667
            126  H 25  S      0.46179     0.46318
            127  H 25  S      0.29240     0.42387
            128  H 26  S      0.45751     0.45619
            129  H 26  S      0.27784     0.41527
            130  H 27  S      0.46152     0.46307
            131  H 27  S      0.29555     0.42356

          ----- MULLIKEN ATOMIC OVERLAP POPULATIONS -----
          (OFF-DIAGONAL ELEMENTS NEED TO BE MULTIPLIED BY 2)

             1           2           3           4           5

    1    6.3716872
    2    0.0687503   5.2442329
    3   -0.0403842   0.3360304   7.9720573
    4   -0.0588220   0.1144028  -0.0417662   5.7339116
    5   -0.2281745  -0.0586864   0.0019026   0.2018047   5.8403352
    6   -0.0625568   0.0147170  -0.0000153  -0.1276111   0.2242152
    7    0.1946539  -0.1096447  -0.0010094   0.0148455  -0.0726120
    8    0.1655798  -0.1103242   0.0005879  -0.1107302   0.2236306
    9   -0.0539181   0.0025120  -0.0000098   0.0039684  -0.0580839
   10   -0.0737573   0.0029169  -0.0001102  -0.0064915  -0.0605574
   11    0.2177457  -0.0775885   0.0005627   0.0020249   0.0029173
   12    0.0028294  -0.0388971  -0.0006615   0.3736929  -0.0292271
   13    0.0018523  -0.0395564  -0.0004002   0.3741796  -0.0296772
   14    0.0030582   0.0018532  -0.0000087  -0.0231976   0.4044407
   15    0.0035405  -0.0001415   0.0000004   0.0030811  -0.0355829
   16    0.0027353   0.0004455  -0.0000028  -0.0040433  -0.0412390
   17   -0.0471494  -0.0022516   0.0005283   0.0000852   0.0027413
   18   -0.0361899   0.0028996  -0.0000113  -0.0001691   0.0034265
   19   -0.0018706  -0.0000064   0.0000000  -0.0000264  -0.0012289
   20   -0.0025250  -0.0000202  -0.0000000  -0.0000890   0.0030621
   21    0.0034213  -0.0000704   0.0000000   0.0000021  -0.0020027
   22    0.0036119  -0.0001253   0.0000003   0.0003054  -0.0021653
   23   -0.0021240   0.0000123   0.0000057  -0.0000540   0.0030949
   24   -0.0026476  -0.0001008  -0.0002187  -0.0026492  -0.0011516
   25   -0.0484954  -0.0013157   0.0001288  -0.0000090   0.0000367
   26   -0.0404265   0.0035837   0.0000284  -0.0000444   0.0000137
   27   -0.0511578  -0.0023708   0.0007371   0.0000301  -0.0001604

             6           7           8           9          10

    6    5.5234393
    7    0.2137391   5.5671649
    8   -0.1079714  -0.0987651   5.9695023
    9   -0.0046742  -0.0030515   0.2562850   5.3482030
   10    0.0036409   0.0032788   0.2510115  -0.0877633   5.3782758
   11    0.0024640  -0.0452707  -0.0360952   0.0004949   0.0012874
   12    0.0025120   0.0000108  -0.0006833  -0.0000010   0.0004982
   13   -0.0017971  -0.0004530   0.0040306  -0.0000280   0.0000707
   14   -0.0214236   0.0025410  -0.0237333  -0.0002359  -0.0001915
   15    0.3959032  -0.0354232  -0.0006448   0.0003444  -0.0000260
   16    0.3930282  -0.0371910   0.0041034   0.0000820  -0.0000420
   17   -0.0329873   0.3886444   0.0040460   0.0000951  -0.0000451
   18   -0.0320367   0.3925741  -0.0007838   0.0008262   0.0000010
   19   -0.0020371  -0.0018279  -0.0392172   0.3810064   0.0027806
   20   -0.0000253   0.0000752  -0.0450418   0.3796454  -0.0018570
   21    0.0002016  -0.0000603  -0.0438944   0.3806838  -0.0015613
   22    0.0000136  -0.0000677  -0.0418682  -0.0009496   0.3807601
   23   -0.0000771  -0.0000232  -0.0425657  -0.0021809   0.3801712
   24   -0.0000443   0.0000283  -0.0426209   0.0031444   0.3770617
   25   -0.0000812   0.0024835  -0.0025300   0.0000107   0.0008604
   26    0.0000463  -0.0015723  -0.0017850   0.0005440   0.0000526
   27    0.0000050  -0.0010122   0.0026395  -0.0000158  -0.0000542

            11          12          13          14          15

   11    5.3509024
   12   -0.0000613   0.3649996
   13   -0.0000211  -0.0098344   0.3744670
   14   -0.0000120  -0.0014205  -0.0002872   0.3782953
   15   -0.0000480  -0.0000215  -0.0000012  -0.0016709   0.4204977
   16   -0.0000329   0.0000426   0.0024003  -0.0004373  -0.0176315
   17    0.0009257   0.0000009  -0.0000389  -0.0000260   0.0011843
   18   -0.0022020  -0.0000001   0.0000140  -0.0000446  -0.0034103
   19   -0.0000330  -0.0000007   0.0000001  -0.0000558   0.0004701
   20    0.0006456  -0.0000002   0.0000004  -0.0000110   0.0000043
   21   -0.0000098  -0.0000017   0.0000001   0.0007627   0.0000847
   22   -0.0000085   0.0000989  -0.0000070   0.0007909   0.0000001
   23    0.0006002  -0.0000117   0.0000001  -0.0000085  -0.0000002
   24    0.0000390   0.0006502   0.0001564  -0.0000630  -0.0000006
   25    0.3829096   0.0000040  -0.0000004  -0.0000004   0.0000006
   26    0.3816534   0.0000005   0.0000003  -0.0000002  -0.0000038
   27    0.3826645  -0.0000001  -0.0000006   0.0000004   0.0000006

            16          17          18          19          20

   16    0.4519793
   17   -0.0027794   0.4488932
   18    0.0012162  -0.0168462   0.3973066
   19    0.0000983   0.0000968   0.0007529   0.4784489
   20    0.0000002  -0.0000036   0.0000315  -0.0230718   0.4714328
   21   -0.0000060  -0.0000001  -0.0000204  -0.0219956  -0.0218686
   22   -0.0000004   0.0000005  -0.0000004  -0.0000214  -0.0000211
   23    0.0000005  -0.0000002   0.0000004   0.0000105   0.0019754
   24    0.0000001   0.0000004  -0.0000004  -0.0000446  -0.0000022
   25    0.0000006  -0.0000583   0.0000379  -0.0000018   0.0000151
   26    0.0000001  -0.0000389   0.0013281   0.0000094   0.0005996
   27   -0.0000005   0.0007694  -0.0001473  -0.0000027  -0.0000013

            21          22          23          24          25

   21    0.4578879
   22    0.0015052   0.4503156
   23   -0.0000264  -0.0208696   0.4601890
   24   -0.0000119  -0.0226157  -0.0249872   0.5280515
   25   -0.0000028   0.0000001   0.0006837   0.0000614   0.4622715
   26   -0.0000009  -0.0000029   0.0000002  -0.0000031  -0.0184747
   27    0.0000002   0.0000003  -0.0000039  -0.0000044  -0.0243377

            26          27

   26    0.4285631
   27   -0.0187242   0.4682133

          TOTAL MULLIKEN AND LOWDIN ATOMIC POPULATIONS
       ATOM         MULL.POP.    CHARGE          LOW.POP.     CHARGE
    1 C             6.289266   -0.289266         6.047444   -0.047444
    2 C             5.351256    0.648744         5.687412    0.312588
    3 O             8.227972   -0.227972         7.849470    0.150530
    4 C             6.446631   -0.446631         6.166670   -0.166670
    5 C             6.291072   -0.291072         6.076832   -0.076832
    6 C             6.380587   -0.380587         6.159554   -0.159554
    7 C             6.372056   -0.372056         6.144764   -0.144764
    8 C             6.132162   -0.132162         6.021929   -0.021929
    9 C             6.546934   -0.546934         6.242554   -0.242554
   10 C             6.550211   -0.550211         6.252242   -0.252242
   11 C             6.566454   -0.566454         6.249048   -0.249048
   12 H             0.664518    0.335482         0.838071    0.161929
   13 H             0.675069    0.324931         0.845301    0.154699
   14 H             0.718915    0.281085         0.873588    0.126412
   15 H             0.730506    0.269494         0.882717    0.117283
   16 H             0.752726    0.247274         0.895407    0.104593
   17 H             0.745786    0.254214         0.891946    0.108054
   18 H             0.708553    0.291447         0.868090    0.131910
   19 H             0.772232    0.227768         0.899126    0.100874
   20 H             0.762949    0.237051         0.890908    0.109092
   21 H             0.753016    0.246984         0.882331    0.117669
   22 H             0.748680    0.251320         0.881665    0.118335
   23 H             0.753811    0.246189         0.886535    0.113465
   24 H             0.812027    0.187973         0.921259    0.078741
   25 H             0.754197    0.245803         0.887048    0.112952
   26 H             0.735347    0.264653         0.871460    0.128540
   27 H             0.757066    0.242934         0.886631    0.113369

          -------------------------------
          BOND ORDER AND VALENCE ANALYSIS     BOND ORDER THRESHOLD=0.050
          -------------------------------

                   BOND                       BOND                       BOND
  ATOM PAIR DIST  ORDER      ATOM PAIR DIST  ORDER      ATOM PAIR DIST  ORDER
    1   2  1.536  0.777        1   7  1.568  0.832        1   8  1.575  0.804
    1  11  1.519  0.918        2   3  1.215  1.363        2   4  1.537  0.811
    4   5  1.544  0.870        4  12  1.095  0.857        4  13  1.096  0.866
    5   6  1.550  0.887        5   8  1.567  0.854        5  14  1.095  0.923
    6   7  1.560  0.892        6  15  1.094  0.914        6  16  1.095  0.918
    7  17  1.095  0.912        7  18  1.095  0.899        8   9  1.539  0.921
    8  10  1.542  0.912        9  19  1.092  0.919        9  20  1.096  0.912
    9  21  1.097  0.908       10  22  1.097  0.911       10  23  1.096  0.909
   10  24  1.094  0.928       11  25  1.095  0.909       11  26  1.096  0.905
   11  27  1.095  0.908

                       TOTAL       BONDED        FREE
      ATOM            VALENCE     VALENCE     VALENCE
    1 C                 3.286       3.262       0.024
    2 C                 2.965       2.933       0.032
    3 O                 2.211       1.473       0.738
    4 C                 3.393       3.373       0.020
    5 C                 3.441       3.441       0.000
    6 C                 3.541       3.541       0.000
    7 C                 3.489       3.488       0.000
    8 C                 3.399       3.399       0.000
    9 C                 3.606       3.606       0.000
   10 C                 3.608       3.608       0.000
   11 C                 3.592       3.592       0.000
   12 H                 0.860       0.859       0.000
   13 H                 0.866       0.866       0.000
   14 H                 0.907       0.907       0.000
   15 H                 0.897       0.897       0.000
   16 H                 0.904       0.904       0.000
   17 H                 0.899       0.899       0.000
   18 H                 0.888       0.888       0.000
   19 H                 0.909       0.909       0.000
   20 H                 0.906       0.906       0.000
   21 H                 0.903       0.903       0.000
   22 H                 0.902       0.902       0.000
   23 H                 0.903       0.903       0.000
   24 H                 0.921       0.921       0.000
   25 H                 0.901       0.901       0.000
   26 H                 0.899       0.899       0.000
   27 H                 0.902       0.902       0.000

          -----------------------------------------
          ATOMIC SPIN DENSITY AT THE NUCLEUS (A.U.)
          -----------------------------------------
                            SPIN DENS    ALPHA DENS     BETA DENS
    1  C            6.0     0.0393466      47.22759      47.18824
    2  C            6.0    -0.1156405      47.11046      47.22610
    3  O            8.0     0.2375120     117.25101     117.01349
    4  C            6.0     0.0445150      47.10564      47.06112
    5  C            6.0    -0.0041473      47.13966      47.14381
    6  C            6.0     0.0008714      47.04736      47.04648
    7  C            6.0    -0.0072665      47.05047      47.05774
    8  C            6.0    -0.0054423      47.13962      47.14506
    9  C            6.0     0.0040665      46.99746      46.99339
   10  C            6.0     0.0003916      47.00007      46.99968
   11  C            6.0    -0.0069377      46.98717      46.99410
   12  H            1.0    -0.0041828       0.17256       0.17675
   13  H            1.0    -0.0043725       0.17302       0.17740
   14  H            1.0     0.0030710       0.18043       0.17735
   15  H            1.0    -0.0002697       0.18119       0.18146
   16  H            1.0    -0.0001363       0.18218       0.18231
   17  H            1.0     0.0007689       0.18212       0.18135
   18  H            1.0     0.0021497       0.17999       0.17784
   19  H            1.0    -0.0002298       0.18324       0.18347
   20  H            1.0    -0.0002286       0.18097       0.18120
   21  H            1.0     0.0003866       0.17983       0.17945
   22  H            1.0    -0.0000796       0.17956       0.17964
   23  H            1.0    -0.0000463       0.18059       0.18064
   24  H            1.0     0.0000115       0.18522       0.18521
   25  H            1.0     0.0003272       0.18097       0.18064
   26  H            1.0     0.0013643       0.17931       0.17795
   27  H            1.0     0.0002149       0.18086       0.18064

          ---------------------
          ELECTROSTATIC MOMENTS
          ---------------------

 POINT   1           X           Y           Z (BOHR)    CHARGE
                -0.003537    0.012671    0.014830        1.00 (A.U.)
         DX          DY          DZ         /D/  (DEBYE)
    -1.111806    1.142839   -0.400208    1.643886
 ...... END OF PROPERTY EVALUATION ......
 CPU     0: STEP CPU TIME=     0.07 TOTAL CPU TIME=         10.1 (      0.2 MIN)
 TOTAL WALL CLOCK TIME=         18.2 SECONDS, CPU UTILIZATION IS    55.15%
               580000  WORDS OF DYNAMIC MEMORY USED
 EXECUTION OF GAMESS TERMINATED NORMALLY Mon May 25 18:15:03 2020
 DDI: 263640 bytes (0.3 MB / 0 MWords) used by master data server.
Note: The following floating-point exceptions are signalling:Note: The following floating-point exceptions are signalling:Note: The following floating-point exceptions are signalling: IEEE_DENORMAL IEEE_DENORMAL
Note: The following floating-point exceptions are signalling:
 ----------------------------------------
 CPU timing information for all processes
 ========================================
 0: 9.917 + 0.150 = 10.68
 1: 9.496 + 0.60 = 9.556
 2: 9.142 + 0.44 = 9.187
 3: 9.452 + 0.59 = 9.512
 4: 9.315 + 0.44 = 9.359
 5: 9.353 + 0.44 = 9.398
 ----------------------------------------
 IEEE_DENORMAL
 IEEE_DENORMALNote: The following floating-point exceptions are signalling: IEEE_DENORMALNote: The following floating-point exceptions are signalling: IEEE_DENORMAL



 ddikick.x: exited gracefully.
unset echo
----- accounting info -----
Files used on the master node pietdev were:
-rwxr-xr-x 1 piet piet     1210 mei 25 18:14 /home/piet/scr/camphor_fukui_base.F05*
-rw-r--r-- 1 piet piet 68812800 mei 25 18:15 /home/piet/scr/camphor_fukui_base.F10
ls: No match.
ls: No match.
ls: No match.
ma 25 mei 2020 18:15:06 CEST
0.165u 0.027s 0:21.48 0.8%	0+0k 0+8io 0pf+0w
