----- GAMESS execution script 'rungms' -----
This job is running on host pietdev
under operating system Linux at ma 25 mei 2020 18:13:15 CEST
Available scratch disk space (Kbyte units) at beginning of the job is
Filesystem     1K-blocks     Used Available Use% Mounted on
/dev/sda2      244568380 31071260 201004064  14% /
GAMESS temporary binary files will be written to /home/piet/scr
GAMESS supplementary output files will be written to /home/piet/gamess/scr
Copying input file camphor_charge_chelpg.inp to your run's scratch directory...
cp camphor_charge_chelpg.inp /home/piet/scr/camphor_charge_chelpg.F05
unset echo
 
Assuming a single but multicore node.
 
/home/piet/gamess/ddikick.x /home/piet/gamess/gamess.03.x camphor_charge_chelpg -ddi 1 6 pietdev:cpus=6 -scr /home/piet/scr

 Distributed Data Interface kickoff program.
 Initiating 6 compute processes on 1 nodes to run the following command:
 /home/piet/gamess/gamess.03.x camphor_charge_chelpg 

          ******************************************************
          *         GAMESS VERSION = 30 SEP 2019 (R2)          *
          *             FROM IOWA STATE UNIVERSITY             *
          * M.W.SCHMIDT, K.K.BALDRIDGE, J.A.BOATZ, S.T.ELBERT, *
          *   M.S.GORDON, J.H.JENSEN, S.KOSEKI, N.MATSUNAGA,   *
          *          K.A.NGUYEN, S.J.SU, T.L.WINDUS,           *
          *       TOGETHER WITH M.DUPUIS, J.A.MONTGOMERY       *
          *         J.COMPUT.CHEM.  14, 1347-1363(1993)        *
          **************** 64 BIT LINUX VERSION ****************

  SINCE 1993, STUDENTS AND POSTDOCS WORKING AT IOWA STATE UNIVERSITY
  AND ALSO IN THEIR VARIOUS JOBS AFTER LEAVING ISU HAVE MADE IMPORTANT
  CONTRIBUTIONS TO THE CODE:
     IVANA ADAMOVIC, CHRISTINE AIKENS, YURI ALEXEEV, POOJA ARORA,
     ANDREY ASADCHEV, ROB BELL, PRADIPTA BANDYOPADHYAY, JONATHAN BENTZ,
     COLLEEN BERTONI, BRETT BODE, KURT BRORSEN, CALEB CARLIN, GALINA CHABAN,
     WEI CHEN, CHEOL HO CHOI, PAUL DAY, ALBERT DEFUSCO, NUWAN DESILVA,
     TIM DUDLEY, DMITRI FEDOROV, ALEX FINDLATER, GRAHAM FLETCHER, 
     MARK FREITAG, KURT GLAESEMANN, EMILIE B GUIDEZ, ANASTASIA GUNINA, 
     DAN KEMP, SAROM SOK LEANG, GRANT MERRILL,
     NORIYUKI MINEZAWA, JONATHAN MULLIN,
     TAKESHI NAGATA, SEAN NEDD, HEATHER NETZLOFF, BOSILJKA NJEGIC, RYAN OLSON,
     MIKE PAK, BUU PHAM, DAVID POOLE,
     SPENCER PRUITT, LUKE ROSKOP, TOSAPORN SATTASATHUCHANA,
     JIM SHOEMAKER, LYUDMILA SLIPCHENKO,
     TONY SMITH, JIE SONG, TETSUYA TAKETSUGU, SIMON WEBB,
     JORGE LUIS GALVEZ VALLEJO, PENG XU, SOOHAENG YOO,
     FEDERICO ZAHARIEV

  ADDITIONAL CODE HAS BEEN PROVIDED BY COLLABORATORS IN OTHER GROUPS:
     IOWA STATE UNIVERSITY:
          JOE IVANIC, AARON WEST, LAIMUTIS BYTAUTAS, KLAUS RUEDENBERG
     UNIVERSITY OF TOKYO: KIMIHIKO HIRAO, TAKAHITO NAKAJIMA,
          TAKAO TSUNEDA, MUNEAKI KAMIYA, SUSUMU YANAGISAWA,
          KIYOSHI YAGI, MAHITO CHIBA, SEIKEN TOKURA, NAOAKI KAWAKAMI
     UNIVERSITY OF AARHUS: FRANK JENSEN
     UNIVERSITY OF IOWA: VISVALDAS KAIRYS, HUI LI
     NATIONAL INST. OF STANDARDS AND TECHNOLOGY: WALT STEVENS, DAVID GARMER
     UNIVERSITY OF PISA: BENEDETTA MENNUCCI, JACOPO TOMASI
     UNIVERSITY OF MEMPHIS: HENRY KURTZ, PRAKASHAN KORAMBATH
     UNIVERSITY OF ALBERTA: TOBY ZENG, MARIUSZ KLOBUKOWSKI
     UNIVERSITY OF NEW ENGLAND: MARK SPACKMAN
     MIE UNIVERSITY: HIROAKI UMEDA
     NAT. INST. OF ADVANCED INDUSTRIAL SCIENCE AND TECHNOLOGY: KAZUO KITAURA
     MICHIGAN STATE UNIVERSITY:
          KAROL KOWALSKI, MARTA WLOCH, JEFFREY GOUR, JESSE LUTZ,
          WEI LI, JUN SHEN, J. EMILIANO DEUSTUA, PIOTR PIECUCH
     UNIVERSITY OF MINNESOTA:
          ANDREW SAND, PRACHI SHARMA, YINAN SHU
     UNIVERSITY OF SILESIA: MONIKA MUSIAL, STANISLAW KUCHARSKI
     FACULTES UNIVERSITAIRES NOTRE-DAME DE LA PAIX:
          OLIVIER QUINET, BENOIT CHAMPAGNE
     UNIVERSITY OF CALIFORNIA - SANTA BARBARA: BERNARD KIRTMAN
     INSTITUTE FOR MOLECULAR SCIENCE:
          KAZUYA ISHIMURA, MICHIO KATOUDA, AND SHIGERU NAGASE
     UNIVERSITY OF NOTRE DAME: ANNA POMOGAEVA, DAN CHIPMAN
     KYUSHU UNIVERSITY:
          HARUYUKI NAKANO,
          FENG LONG GU, JACEK KORCHOWIEC, MARCIN MAKOWSKI, AND YURIKO AOKI,
          HIROTOSHI MORI AND EISAKU MIYOSHI
     PENNSYLVANIA STATE UNIVERSITY:
          TZVETELIN IORDANOV, CHET SWALINA, JONATHAN SKONE,
          SHARON HAMMES-SCHIFFER
     WASEDA UNIVERSITY:
          MASATO KOBAYASHI, TOMOKO AKAMA, TSUGUKI TOUMA,
          TAKESHI YOSHIKAWA, YASUHIRO IKABATA, JUNJI SEINO,
          YUYA NAKAJIMA, HIROMI NAKAI
     NANJING UNIVERSITY: SHUHUA LI
     UNIVERSITY OF NEBRASKA:
          PEIFENG SU, DEJUN SI, NANDUN THELLAMUREGE, YALI WANG, HUI LI
     UNIVERSITY OF ZURICH: ROBERTO PEVERATI, KIM BALDRIDGE
     N. COPERNICUS UNIVERSITY AND JACKSON STATE UNIVERSITY:
          MARIA BARYSZ
     UNIVERSITY OF COPENHAGEN: Jimmy Kromann, CASPER STEINMANN
     TOKYO INSTITUTE OF TECHNOLOGY: HIROYA NAKATA
     NAGOYA UNIVERSITY: YOSHIO NISHIMOTO, STEPHAN IRLE
     MOSCOW STATE UNIVERSITY: VLADIMIR MIRONOV
     A.N.NESMEYANOV INSTITUTE OF ORGANOELEMENT COMPOUNDS OF RUSSIAN ACADEMY OF SCIENCES:
          IGOR S. GERASIMOV
     JOHANNES KEPLER UNIVERSITY LINZ:
          CHRISTIAN FRIEDL


 PARALLEL VERSION RUNNING ON        6 PROCESSORS IN        1 NODES.

 EXECUTION OF GAMESS BEGUN Mon May 25 18:13:15 2020

            ECHO OF THE FIRST FEW INPUT CARDS -
 INPUT CARD> $BASIS GBASIS=N21 NGAUSS=3 $END                                                
 INPUT CARD> $CONTRL SCFTYP=RHF DFTTYP=B3LYP MAXIT=60 MULT=1 ICHARG=0 $END                  
 INPUT CARD> $SYSTEM MEMDDI=1000 MWORDS=30 $END                                             
 INPUT CARD> $SCF DIRSCF=.TRUE. $END                                                        
 INPUT CARD> $ELPOT  IEPOT=1 WHERE=PDC $END                                                 
 INPUT CARD> $PDC PTSEL=CHELPG CONSTR=CHARGE $END                                           
 INPUT CARD> $DATA                                                                          
 INPUT CARD>                                                                                
 INPUT CARD>C1                                                                              
 INPUT CARD>C 6.0000000 -0.23918 -0.52723 0.55111                                           
 INPUT CARD>C 6.0000000 -1.39823 0.17988 -0.16608                                           
 INPUT CARD>O 8.0000000 -2.57407 -0.12421 -0.12852                                          
 INPUT CARD>C 6.0000000 -0.78813 1.36672 -0.92809                                           
 INPUT CARD>C 6.0000000 0.70520 1.24838 -0.55360                                            
 INPUT CARD>C 6.0000000 0.82214 1.67410 0.93168                                             
 INPUT CARD>C 6.0000000 0.14429 0.48699 1.68402                                             
 INPUT CARD>C 6.0000000 0.91996 -0.30261 -0.49129                                           
 INPUT CARD>C 6.0000000 2.31480 -0.71496 0.01125                                            
 INPUT CARD>C 6.0000000 0.68902 -1.02131 -1.83571                                           
 INPUT CARD>C 6.0000000 -0.55725 -1.93268 1.03052                                           
 INPUT CARD>H 1.0000000 -0.98262 1.25124 -1.99958                                           
 INPUT CARD>H 1.0000000 -1.25629 2.30770 -0.61834                                           
 INPUT CARD>H 1.0000000 1.38217 1.77953 -1.23043                                            
 INPUT CARD>H 1.0000000 1.86506 1.80049 1.23704                                             
 INPUT CARD>H 1.0000000 0.31731 2.62824 1.11405                                             
 INPUT CARD>H 1.0000000 -0.73497 0.79001 2.26228                                            
 INPUT CARD>H 1.0000000 0.83111 0.00215 2.38561                                             
 INPUT CARD>H 1.0000000 2.58153 -0.29061 0.98197                                            
 INPUT CARD>H 1.0000000 2.38528 -1.80504 0.09937                                            
 INPUT CARD>H 1.0000000 3.07901 -0.39612 -0.70819                                           
 INPUT CARD>H 1.0000000 1.42042 -0.68047 -2.57836                                           
 INPUT CARD>H 1.0000000 0.82251 -2.10253 -1.71927                                           
 INPUT CARD>H 1.0000000 -0.30802 -0.86493 -2.25713                                          
 INPUT CARD>H 1.0000000 -0.79808 -2.59858 0.19540                                           
 INPUT CARD>H 1.0000000 0.28631 -2.36172 1.58277                                            
 INPUT CARD>H 1.0000000 -1.42890 -1.92076 1.69312                                           
 INPUT CARD> $END                                                                           
   30000000 WORDS OF MEMORY AVAILABLE

     BASIS OPTIONS
     -------------
     GBASIS=N21          IGAUSS=       3      POLAR=NONE    
     NDFUNC=       0     NFFUNC=       0     DIFFSP=       F
     NPFUNC=       0      DIFFS=       F     BASNAM=        


     RUN TITLE
     ---------
                                                                                 

 THE POINT GROUP OF THE MOLECULE IS C1      
 THE ORDER OF THE PRINCIPAL AXIS IS     0

 ATOM      ATOMIC                      COORDINATES (BOHR)
           CHARGE         X                   Y                   Z
 C           6.0    -0.4519846617       -0.9963202325        1.0414468891
 C           6.0    -2.6422715678        0.3399239107       -0.3138456920
 O           8.0    -4.8642869732       -0.2347228649       -0.2428675839
 C           6.0    -1.4893497427        2.5827263019       -1.7538357919
 C           6.0     1.3326347665        2.3590961286       -1.0461523068
 C           6.0     1.5536193235        3.1635902760        1.7606199082
 C           6.0     0.2726685628        0.9202776588        3.1823363578
 C           6.0     1.7384723197       -0.5718499811       -0.9284034805
 C           6.0     4.3743377164       -1.3510784922        0.0212594174
 C           6.0     1.3020590001       -1.9299960485       -3.4689888929
 C           6.0    -1.0530498067       -3.6522356220        1.9474004249
 H           1.0    -1.8568825501        2.3645007449       -3.7786582905
 H           1.0    -2.3740438611        4.3609206619       -1.1684931672
 H           1.0     2.6119225684        3.3628240869       -2.3251755471
 H           1.0     3.5244523507        3.4024327436        2.3376666359
 H           1.0     0.5996289532        4.9666534300        2.1052492366
 H           1.0    -1.3888919092        1.4929024276        4.2750893075
 H           1.0     1.5705701657        0.0040629109        4.5081492136
 H           1.0     4.8783843291       -0.5491732693        1.8556542282
 H           1.0     4.5075256040       -3.4110309969        0.1877820714
 H           1.0     5.8184852135       -0.7485582583       -1.3382850472
 H           1.0     2.6842045875       -1.2859018429       -4.8723938977
 H           1.0     1.5543185222       -3.9732055810       -3.2489491989
 H           1.0    -0.5820733987       -1.6344806986       -4.2653572187
 H           1.0    -1.5081525163       -4.9106041572        0.3692524580
 H           1.0     0.5410474475       -4.4630036597        2.9910016016
 H           1.0    -2.7002294639       -3.6297100882        3.1995328643

          INTERNUCLEAR DISTANCES (ANGS.)
          ------------------------------

                1 C          2 C          3 O          4 C          5 C     

   1 C       0.0000000    1.5355009 *  2.4649611 *  2.4650406 *  2.2945650 *
   2 C       1.5355009 *  0.0000000    1.2151054 *  1.5367077 *  2.3908747 *
   3 O       2.4649611 *  1.2151054 *  0.0000000    2.4600338 *  3.5802665  
   4 C       2.4650406 *  1.5367077 *  2.4600338 *  0.0000000    1.5441119 *
   5 C       2.2945650 *  2.3908747 *  3.5802665    1.5441119 *  0.0000000  
   6 C       2.4732746 *  2.8927173 *  3.9865004    2.4791524 *  1.5495061 *
   7 C       1.5681762 *  2.4282822 *  3.3239055    2.9097166 *  2.4292546 *
   8 C       1.5750103 *  2.3900969 *  3.5173391    2.4279679 *  1.5670272 *
   9 C       2.6171559 *  3.8234508    4.9264156    3.8527816    2.6008790 *
  10 C       2.6081756 *  2.9303813 *  3.7903882    2.9510055 *  2.6068296 *
  11 C       1.5186481 *  2.5694374 *  2.9464386 *  3.8438911    3.7712543  
  12 H       3.1971359    2.1638545 *  2.8152160 *  1.0951040 *  2.2225217 *
  13 H       3.2309370    2.1799780 *  2.8090308 *  1.0957017 *  2.2302002 *
  14 H       3.3352365    3.3796960    4.5266176    2.2298035 *  1.0947637 *
  15 H       3.2119474    3.9043801    5.0274347    3.4518635    2.2037451 *
  16 H       3.2532405    3.2521188    4.1809137    2.6426816 *  2.1989836 *
  17 H       2.2156335 *  2.5901940 *  3.1518267    3.2425115    3.1958368  
  18 H       2.1888705 *  3.3930321    4.2346272    3.9325052    3.1949801  
  19 H       2.8632210 *  4.1686772    5.2764655    4.2130370    2.8717729 *
  20 H       2.9537532 *  4.2808082    5.2414002    4.6028542    3.5457598  
  21 H       3.5515365    4.5465742    5.6892237    4.2556706    2.8919288 *
  22 H       3.5456081    3.8084229    4.7188019    3.4339585    2.8864606 *
  23 H       2.9603008 *  3.5430892    4.2403999    3.9058703    3.5498093  
  24 H       2.8293095 *  2.5792782 *  3.1960334    2.6414228 *  2.8973623 *
  25 H       2.1747160 *  2.8654298 *  3.0629351    4.1213994    4.1976128  
  26 H       2.1692892 *  3.5150934    4.0145658    4.6216993    4.2157286  
  27 H       2.1590615 *  2.8053972 *  2.8031016 *  4.2530992    4.4323337  

                6 C          7 C          8 C          9 C         10 C     

   1 C       2.4732746 *  1.5681762 *  1.5750103 *  2.6171559 *  2.6081756 *
   2 C       2.8927173 *  2.4282822 *  2.3900969 *  3.8234508    2.9303813 *
   3 O       3.9865004    3.3239055    3.5173391    4.9264156    3.7903882  
   4 C       2.4791524 *  2.9097166 *  2.4279679 *  3.8527816    2.9510055 *
   5 C       1.5495061 *  2.4292546 *  1.5670272 *  2.6008790 *  2.6068296 *
   6 C       0.0000000    1.5603609 *  2.4375797 *  2.9635845 *  3.8654112  
   7 C       1.5603609 *  0.0000000    2.4407183 *  2.9923163 *  3.8678416  
   8 C       2.4375797 *  2.4407183 *  0.0000000    1.5388819 *  1.5418587 *
   9 C       2.9635845 *  2.9923163 *  1.5388819 *  0.0000000    2.4795710 *
  10 C       3.8654112    3.8678416    1.5418587 *  2.4795710 *  0.0000000  
  11 C       3.8628161    2.6026954 *  2.6749174 *  3.2818325    3.2556195  
  12 H       3.4681774    3.9272017    2.8825682 *  4.3338618    2.8259011 *
  13 H       2.6690602 *  3.2523024    3.4008711    4.7207564    4.0433313  
  14 H       2.2359492 *  3.4200914    2.2572711 *  2.9383751 *  2.9481393 *
  15 H       1.0940298 *  2.2104576 *  2.8815566 *  2.8341341 *  4.3344455  
  16 H       1.0947581 *  2.2225556 *  3.3956126    4.0476067    4.7072782  
  17 H       2.2308525 *  1.0951273 *  3.3933405    4.0783781    4.7012923  
  18 H       2.2157188 *  1.0949977 *  2.8943612 *  2.8901848 *  4.3459409  
  19 H       2.6378149 *  2.6528616 *  2.2206877 *  1.0924812 *  3.4720077  
  20 H       3.9039162    3.5758290    2.1802151 *  1.0959046 *  2.6899936 *
  21 H       3.4739670    3.8878186    2.1719315 *  1.0969365 *  2.7155508 *
  22 H       4.2687609    4.5999298    2.1792429 *  2.7399243 *  1.0966526 *
  23 H       4.6141597    4.3298937    2.1810877 *  2.6733835 *  1.0956343 *
  24 H       4.2299461    4.1910542    2.2231351 *  3.4709111    1.0936811 *
  25 H       4.6285003    3.5531385    2.9486748 *  3.6430698    2.9706321 *
  26 H       4.1229692    2.8540445 *  2.9905135 *  3.0489777    3.6938976  
  27 H       4.3092912    2.8761554 *  3.5926592    4.2776080    4.2127469  

               11 C         12 H         13 H         14 H         15 H     

   1 C       1.5186481 *  3.1971359    3.2309370    3.3352365    3.2119474  
   2 C       2.5694374 *  2.1638545 *  2.1799780 *  3.3796960    3.9043801  
   3 O       2.9464386 *  2.8152160 *  2.8090308 *  4.5266176    5.0274347  
   4 C       3.8438911    1.0951040 *  1.0957017 *  2.2298035 *  3.4518635  
   5 C       3.7712543    2.2225217 *  2.2302002 *  1.0947637 *  2.2037451 *
   6 C       3.8628161    3.4681774    2.6690602 *  2.2359492 *  1.0940298 *
   7 C       2.6026954 *  3.9272017    3.2523024    3.4200914    2.2104576 *
   8 C       2.6749174 *  2.8825682 *  3.4008711    2.2572711 *  2.8815566 *
   9 C       3.2818325    4.3338618    4.7207564    2.9383751 *  2.8341341 *
  10 C       3.2556195    2.8259011 *  4.0433313    2.9481393 *  4.3344455  
  11 C       0.0000000    4.4158569    4.6030662    4.7595954    4.4549741  
  12 H       4.4158569    0.0000000    1.7603485 *  2.5422261 *  4.3458792  
  13 H       4.6030662    1.7603485 *  0.0000000    2.7595451 *  3.6664046  
  14 H       4.7595954    2.5422261 *  2.7595451 *  0.0000000    2.5143648 *
  15 H       4.4549741    4.3458792    3.6664046    2.5143648 *  0.0000000  
  16 H       4.6447630    3.6442611    2.3622316 *  2.7112399 *  1.7594961 *
  17 H       2.9936362 *  4.2938927    3.2974428    4.2024344    2.9719258 *
  18 H       2.7399598 *  4.9071105    4.3239467    4.0667545    2.3711374 *
  19 H       3.5426954    4.8959276    4.9031693    3.2586282    2.2251043 *
  20 H       3.0889829    5.0089110    5.5399251    3.9526877    3.8163816  
  21 H       4.3135271    4.5692802    5.1101411    2.8081050 *  3.1753252  
  22 H       4.3015373    3.1370513    4.4649317    2.8053482 *  4.5727611  
  23 H       3.0812224    3.8190105    4.9983582    3.9525402    5.0060208  
  24 H       3.4656671    2.2359769 *  3.6946488    3.3021241    4.9026487  
  25 H       1.0949189 *  4.4354375    4.9943681    5.0945391    5.2468224  
  26 H       1.0957412 *  5.2437482    5.3877623    5.1249346    4.4649718  
  27 H       1.0949678 *  4.8884336    4.8220862    5.4901189    4.9905794  

               16 H         17 H         18 H         19 H         20 H     

   1 C       3.2532405    2.2156335 *  2.1888705 *  2.8632210 *  2.9537532 *
   2 C       3.2521188    2.5901940 *  3.3930321    4.1686772    4.2808082  
   3 O       4.1809137    3.1518267    4.2346272    5.2764655    5.2414002  
   4 C       2.6426816 *  3.2425115    3.9325052    4.2130370    4.6028542  
   5 C       2.1989836 *  3.1958368    3.1949801    2.8717729 *  3.5457598  
   6 C       1.0947581 *  2.2308525 *  2.2157188 *  2.6378149 *  3.9039162  
   7 C       2.2225556 *  1.0951273 *  1.0949977 *  2.6528616 *  3.5758290  
   8 C       3.3956126    3.3933405    2.8943612 *  2.2206877 *  2.1802151 *
   9 C       4.0476067    4.0783781    2.8901848 *  1.0924812 *  1.0959046 *
  10 C       4.7072782    4.7012923    4.3459409    3.4720077    2.6899936 *
  11 C       4.6447630    2.9936362 *  2.7399598 *  3.5426954    3.0889829  
  12 H       3.6442611    4.2938927    4.9071105    4.8959276    5.0089110  
  13 H       2.3622316 *  3.2974428    4.3239467    4.9031693    5.5399251  
  14 H       2.7112399 *  4.2024344    4.0667545    3.2586282    3.9526877  
  15 H       1.7594961 *  2.9719258 *  2.3711374 *  2.2251043 *  3.8163816  
  16 H       0.0000000    2.4093183 *  2.9626346 *  3.6964608    4.9960031  
  17 H       2.4093183 *  0.0000000    1.7574243 *  3.7156568    4.5987416  
  18 H       2.9626346 *  1.7574243 *  0.0000000    2.2627160 *  3.3027675  
  19 H       3.6964608    3.7156568    2.2627160 *  0.0000000    1.7638013 *
  20 H       4.9960031    4.5987416    3.3027675    1.7638013 *  0.0000000  
  21 H       4.4826665    4.9776540    3.8449021    1.7650098 *  1.7659190 *
  22 H       5.0792032    5.4990738    5.0452210    3.7651185    3.0603677  
  23 H       5.5374285    5.1619059    4.6130025    3.6978241    2.4162371 *
  24 H       4.8947042    4.8317884    4.8584442    4.3784828    3.7001032  
  25 H       5.4228830    3.9697000    3.7702886    4.1673951    3.2821804  
  26 H       5.0120216    3.3820332    2.5552379 *  3.1493638    2.6298371 *
  27 H       4.9069311    2.8554782 *  3.0470921    4.3871029    4.1353838  

               21 H         22 H         23 H         24 H         25 H     

   1 C       3.5515365    3.5456081    2.9603008 *  2.8293095 *  2.1747160 *
   2 C       4.5465742    3.8084229    3.5430892    2.5792782 *  2.8654298 *
   3 O       5.6892237    4.7188019    4.2403999    3.1960334    3.0629351  
   4 C       4.2556706    3.4339585    3.9058703    2.6414228 *  4.1213994  
   5 C       2.8919288 *  2.8864606 *  3.5498093    2.8973623 *  4.1976128  
   6 C       3.4739670    4.2687609    4.6141597    4.2299461    4.6285003  
   7 C       3.8878186    4.5999298    4.3298937    4.1910542    3.5531385  
   8 C       2.1719315 *  2.1792429 *  2.1810877 *  2.2231351 *  2.9486748 *
   9 C       1.0969365 *  2.7399243 *  2.6733835 *  3.4709111    3.6430698  
  10 C       2.7155508 *  1.0966526 *  1.0956343 *  1.0936811 *  2.9706321 *
  11 C       4.3135271    4.3015373    3.0812224    3.4656671    1.0949189 *
  12 H       4.5692802    3.1370513    3.8190105    2.2359769 *  4.4354375  
  13 H       5.1101411    4.4649317    4.9983582    3.6946488    4.9943681  
  14 H       2.8081050 *  2.8053482 *  3.9525402    3.3021241    5.0945391  
  15 H       3.1753252    4.5727611    5.0060208    4.9026487    5.2468224  
  16 H       4.4826665    5.0792032    5.5374285    4.8947042    5.4228830  
  17 H       4.9776540    5.4990738    5.1619059    4.8317884    3.9697000  
  18 H       3.8449021    5.0452210    4.6130025    4.8584442    3.7702886  
  19 H       1.7650098 *  3.7651185    3.6978241    4.3784828    4.1673951  
  20 H       1.7659190 *  3.0603677    2.4162371 *  3.7001032    3.2821804  
  21 H       0.0000000    2.5158123 *  3.0043152    3.7537941    4.5496299  
  22 H       2.5158123 *  0.0000000    1.7657255 *  1.7676875 *  4.0366611  
  23 H       3.0043152    1.7657255 *  0.0000000    1.7604105 *  2.5570176 *
  24 H       3.7537941    1.7676875 *  1.7604105 *  0.0000000    3.0431241  
  25 H       4.5496299    4.0366611    2.5570176 *  3.0431241    0.0000000  
  26 H       4.1123296    4.6290182    3.3553179    4.1639453    1.7767385 *
  27 H       5.3302973    5.2822803    4.0922235    4.2397670    1.7608348 *

               26 H         27 H     

   1 C       2.1692892 *  2.1590615 *
   2 C       3.5150934    2.8053972 *
   3 O       4.0145658    2.8031016 *
   4 C       4.6216993    4.2530992  
   5 C       4.2157286    4.4323337  
   6 C       4.1229692    4.3092912  
   7 C       2.8540445 *  2.8761554 *
   8 C       2.9905135 *  3.5926592  
   9 C       3.0489777    4.2776080  
  10 C       3.6938976    4.2127469  
  11 C       1.0957412 *  1.0949678 *
  12 H       5.2437482    4.8884336  
  13 H       5.3877623    4.8220862  
  14 H       5.1249346    5.4901189  
  15 H       4.4649718    4.9905794  
  16 H       5.0120216    4.9069311  
  17 H       3.3820332    2.8554782 *
  18 H       2.5552379 *  3.0470921  
  19 H       3.1493638    4.3871029  
  20 H       2.6298371 *  4.1353838  
  21 H       4.1123296    5.3302973  
  22 H       4.6290182    5.2822803  
  23 H       3.3553179    4.0922235  
  24 H       4.1639453    4.2397670  
  25 H       1.7767385 *  1.7608348 *
  26 H       0.0000000    1.7744205 *
  27 H       1.7744205 *  0.0000000  

  * ... LESS THAN  3.000


     ATOMIC BASIS SET
     ----------------
 THE CONTRACTED PRIMITIVE FUNCTIONS HAVE BEEN UNNORMALIZED
 THE CONTRACTED BASIS FUNCTIONS ARE NOW NORMALIZED TO UNITY

  SHELL TYPE  PRIMITIVE        EXPONENT          CONTRACTION COEFFICIENT(S)

 C         

      1   S       1           172.2560000    0.061766907377
      1   S       2            25.9109000    0.358794042852
      1   S       3             5.5333500    0.700713083689

      2   L       4             3.6649800   -0.395895162119    0.236459946619
      2   L       5             0.7705450    1.215834355681    0.860618805716

      3   L       6             0.1958570    1.000000000000    1.000000000000

 C         

      4   S       7           172.2560000    0.061766907377
      4   S       8            25.9109000    0.358794042852
      4   S       9             5.5333500    0.700713083689

      5   L      10             3.6649800   -0.395895162119    0.236459946619
      5   L      11             0.7705450    1.215834355681    0.860618805716

      6   L      12             0.1958570    1.000000000000    1.000000000000

 O         

      7   S      13           322.0370000    0.059239393389
      7   S      14            48.4308000    0.351499960776
      7   S      15            10.4206000    0.707657921031

      8   L      16             7.4029400   -0.404453583190    0.244586106967
      8   L      17             1.5762000    1.221561761397    0.853955373466

      9   L      18             0.3736840    1.000000000000    1.000000000000

 C         

     10   S      19           172.2560000    0.061766907377
     10   S      20            25.9109000    0.358794042852
     10   S      21             5.5333500    0.700713083689

     11   L      22             3.6649800   -0.395895162119    0.236459946619
     11   L      23             0.7705450    1.215834355681    0.860618805716

     12   L      24             0.1958570    1.000000000000    1.000000000000

 C         

     13   S      25           172.2560000    0.061766907377
     13   S      26            25.9109000    0.358794042852
     13   S      27             5.5333500    0.700713083689

     14   L      28             3.6649800   -0.395895162119    0.236459946619
     14   L      29             0.7705450    1.215834355681    0.860618805716

     15   L      30             0.1958570    1.000000000000    1.000000000000

 C         

     16   S      31           172.2560000    0.061766907377
     16   S      32            25.9109000    0.358794042852
     16   S      33             5.5333500    0.700713083689

     17   L      34             3.6649800   -0.395895162119    0.236459946619
     17   L      35             0.7705450    1.215834355681    0.860618805716

     18   L      36             0.1958570    1.000000000000    1.000000000000

 C         

     19   S      37           172.2560000    0.061766907377
     19   S      38            25.9109000    0.358794042852
     19   S      39             5.5333500    0.700713083689

     20   L      40             3.6649800   -0.395895162119    0.236459946619
     20   L      41             0.7705450    1.215834355681    0.860618805716

     21   L      42             0.1958570    1.000000000000    1.000000000000

 C         

     22   S      43           172.2560000    0.061766907377
     22   S      44            25.9109000    0.358794042852
     22   S      45             5.5333500    0.700713083689

     23   L      46             3.6649800   -0.395895162119    0.236459946619
     23   L      47             0.7705450    1.215834355681    0.860618805716

     24   L      48             0.1958570    1.000000000000    1.000000000000

 C         

     25   S      49           172.2560000    0.061766907377
     25   S      50            25.9109000    0.358794042852
     25   S      51             5.5333500    0.700713083689

     26   L      52             3.6649800   -0.395895162119    0.236459946619
     26   L      53             0.7705450    1.215834355681    0.860618805716

     27   L      54             0.1958570    1.000000000000    1.000000000000

 C         

     28   S      55           172.2560000    0.061766907377
     28   S      56            25.9109000    0.358794042852
     28   S      57             5.5333500    0.700713083689

     29   L      58             3.6649800   -0.395895162119    0.236459946619
     29   L      59             0.7705450    1.215834355681    0.860618805716

     30   L      60             0.1958570    1.000000000000    1.000000000000

 C         

     31   S      61           172.2560000    0.061766907377
     31   S      62            25.9109000    0.358794042852
     31   S      63             5.5333500    0.700713083689

     32   L      64             3.6649800   -0.395895162119    0.236459946619
     32   L      65             0.7705450    1.215834355681    0.860618805716

     33   L      66             0.1958570    1.000000000000    1.000000000000

 H         

     34   S      67             5.4471780    0.156284978695
     34   S      68             0.8245472    0.904690876670

     35   S      69             0.1831916    1.000000000000

 H         

     36   S      70             5.4471780    0.156284978695
     36   S      71             0.8245472    0.904690876670

     37   S      72             0.1831916    1.000000000000

 H         

     38   S      73             5.4471780    0.156284978695
     38   S      74             0.8245472    0.904690876670

     39   S      75             0.1831916    1.000000000000

 H         

     40   S      76             5.4471780    0.156284978695
     40   S      77             0.8245472    0.904690876670

     41   S      78             0.1831916    1.000000000000

 H         

     42   S      79             5.4471780    0.156284978695
     42   S      80             0.8245472    0.904690876670

     43   S      81             0.1831916    1.000000000000

 H         

     44   S      82             5.4471780    0.156284978695
     44   S      83             0.8245472    0.904690876670

     45   S      84             0.1831916    1.000000000000

 H         

     46   S      85             5.4471780    0.156284978695
     46   S      86             0.8245472    0.904690876670

     47   S      87             0.1831916    1.000000000000

 H         

     48   S      88             5.4471780    0.156284978695
     48   S      89             0.8245472    0.904690876670

     49   S      90             0.1831916    1.000000000000

 H         

     50   S      91             5.4471780    0.156284978695
     50   S      92             0.8245472    0.904690876670

     51   S      93             0.1831916    1.000000000000

 H         

     52   S      94             5.4471780    0.156284978695
     52   S      95             0.8245472    0.904690876670

     53   S      96             0.1831916    1.000000000000

 H         

     54   S      97             5.4471780    0.156284978695
     54   S      98             0.8245472    0.904690876670

     55   S      99             0.1831916    1.000000000000

 H         

     56   S     100             5.4471780    0.156284978695
     56   S     101             0.8245472    0.904690876670

     57   S     102             0.1831916    1.000000000000

 H         

     58   S     103             5.4471780    0.156284978695
     58   S     104             0.8245472    0.904690876670

     59   S     105             0.1831916    1.000000000000

 H         

     60   S     106             5.4471780    0.156284978695
     60   S     107             0.8245472    0.904690876670

     61   S     108             0.1831916    1.000000000000

 H         

     62   S     109             5.4471780    0.156284978695
     62   S     110             0.8245472    0.904690876670

     63   S     111             0.1831916    1.000000000000

 H         

     64   S     112             5.4471780    0.156284978695
     64   S     113             0.8245472    0.904690876670

     65   S     114             0.1831916    1.000000000000

 TOTAL NUMBER OF BASIS SET SHELLS             =   65
 NUMBER OF CARTESIAN GAUSSIAN BASIS FUNCTIONS =  131
 NUMBER OF ELECTRONS                          =   84
 CHARGE OF MOLECULE                           =    0
 SPIN MULTIPLICITY                            =    1
 NUMBER OF OCCUPIED ORBITALS (ALPHA)          =   42
 NUMBER OF OCCUPIED ORBITALS (BETA )          =   42
 TOTAL NUMBER OF ATOMS                        =   27
 THE NUCLEAR REPULSION ENERGY IS      683.9170625134

 SELECTED MURRAY-HANDY-LAMING RADIAL GRID

 LEGACY BECKE'S FUZZY CELL METHOD

 SELECTED ORIGINAL BECKE'S PARTITION FUNCTION

     LEBEDEV GRID-BASED DFT OPTIONS
     ------------------------------
     DFTTYP=B3LYP   
     NRAD  =      96     NLEB  =     302
     NRAD0 =      24     NLEB0 =     110
     SWOFF =    5.00E-03 (PURE SCF -> DFT)
     SWITCH=    3.00E-04 (COARSE -> TIGHT GRID)
     THRESH=    0.00E+00 GTHRE=    1.00E+00

 GRIMME'S EMPIRICAL DISPERSION CORRECTION= F

     $CONTRL OPTIONS
     ---------------
 SCFTYP=RHF          RUNTYP=ENERGY       EXETYP=RUN     
 MPLEVL=       0     CITYP =NONE         CCTYP =NONE         VBTYP =NONE    
 DFTTYP=B3LYP        TDDFT =NONE    
 MULT  =       1     ICHARG=       0     NZVAR =       0     COORD =UNIQUE  
 PP    =NONE         RELWFN=NONE         LOCAL =NONE         NUMGRD=       F
 ISPHER=      -1     NOSYM =       0     MAXIT =      60     UNITS =ANGS    
 PLTORB=       F     MOLPLT=       F     AIMPAC=       F     FRIEND=        
 NPRINT=       7     IREST =       0     GEOM  =INPUT   
 NORMF =       0     NORMP =       0     ITOL  =      20     ICUT  =       9
 INTTYP=BEST         GRDTYP=BEST         QMTTOL= 1.0E-06

     $SYSTEM OPTIONS
     ---------------
  REPLICATED MEMORY=    30000000 WORDS (ON EVERY NODE).
 DISTRIBUTED MEMDDI=        1000 MILLION WORDS IN AGGREGATE,
 MEMDDI DISTRIBUTED OVER   6 PROCESSORS IS   166666666 WORDS/PROCESSOR.
 TOTAL MEMORY REQUESTED ON EACH PROCESSOR=   196666666 WORDS.
 TIMLIM=      525600.00 MINUTES, OR     365.0 DAYS.
 PARALL= T  BALTYP=  DLB     KDIAG=    0  COREFL= F
 MXSEQ2=     300 MXSEQ3=     150  mem10=         0

     INPUT FOR POTENTIAL-DERIVED CHARGES 
     -----------------------------------
     VDWSCL=    1.00   RMAX=    3.00   DELR=    0.80
     VDWINC=    0.20 PTDENS=    0.28
     LAYER =       4  NFREQ=      30 MAXPDC=   10000
     CONSTR=CHARGE    UNITS=ANGS      PTSEL=CHELPG  
     CENTER=  0.0000  0.0000  0.0000
     DPOLE =  0.0000  0.0000  0.0000
     QPOLE =  0.0000  0.0000  0.0000  0.0000  0.0000  0.0000


          ----------------
          PROPERTIES INPUT
          ----------------

     MOMENTS            FIELD           POTENTIAL          DENSITY
 IEMOM =       1   IEFLD =       0   IEPOT =       1   IEDEN =       0
 WHERE =COMASS     WHERE =NUCLEI     WHERE =PDC        WHERE =NUCLEI  
 OUTPUT=BOTH       OUTPUT=BOTH       OUTPUT=BOTH       OUTPUT=BOTH    
 IEMINT=       0   IEFINT=       0                     IEDINT=       0
                                                       MORB  =       0
          EXTRAPOLATION IN EFFECT
          DIIS IN EFFECT
 ORBITAL PRINTING OPTION: NPREO=     1   131     2     1

     -------------------------------
     INTEGRAL TRANSFORMATION OPTIONS
     -------------------------------
     NWORD  =            0
     CUTOFF = 1.0E-09     MPTRAN =       0
     DIRTRF =       T     AOINTS =DUP     

          ----------------------
          INTEGRAL INPUT OPTIONS
          ----------------------
 NOPK  =       1 NORDER=       0 SCHWRZ=       T

     ------------------------------------------
     THE POINT GROUP IS C1 , NAXIS= 0, ORDER= 1
     ------------------------------------------

     DIMENSIONS OF THE SYMMETRY SUBSPACES ARE
 A   =  131

 ..... DONE SETTING UP THE RUN .....
 CPU     0: STEP CPU TIME=     0.03 TOTAL CPU TIME=          0.0 (      0.0 MIN)
 TOTAL WALL CLOCK TIME=          0.0 SECONDS, CPU UTILIZATION IS   100.00%

          ********************
          1 ELECTRON INTEGRALS
          ********************
 ...... END OF ONE-ELECTRON INTEGRALS ......
 CPU     0: STEP CPU TIME=     0.00 TOTAL CPU TIME=          0.0 (      0.0 MIN)
 TOTAL WALL CLOCK TIME=          0.1 SECONDS, CPU UTILIZATION IS    60.00%

          -------------
          GUESS OPTIONS
          -------------
          GUESS =HUCKEL            NORB  =       0          NORDER=       0
          MIX   =       F          PRTMO =       F          PUNMO =       F
          TOLZ  = 1.0E-08          TOLE  = 1.0E-05
          SYMDEN=       F          PURIFY=       F

 INITIAL GUESS ORBITALS GENERATED BY HUCKEL   ROUTINE.
 HUCKEL GUESS REQUIRES    164328 WORDS.

 SYMMETRIES FOR INITIAL GUESS ORBITALS FOLLOW.   BOTH SET(S).
    42 ORBITALS ARE OCCUPIED (   11 CORE ORBITALS).
    12=A       13=A       14=A       15=A       16=A       17=A       18=A   
    19=A       20=A       21=A       22=A       23=A       24=A       25=A   
    26=A       27=A       28=A       29=A       30=A       31=A       32=A   
    33=A       34=A       35=A       36=A       37=A       38=A       39=A   
    40=A       41=A       42=A       43=A       44=A       45=A       46=A   
    47=A       48=A       49=A       50=A       51=A       52=A   
 ...... END OF INITIAL ORBITAL SELECTION ......
 CPU     0: STEP CPU TIME=     0.03 TOTAL CPU TIME=          0.1 (      0.0 MIN)
 TOTAL WALL CLOCK TIME=          0.1 SECONDS, CPU UTILIZATION IS    75.00%

                    ----------------------
                    AO INTEGRAL TECHNOLOGY
                    ----------------------
     S,P,L SHELL ROTATED AXIS INTEGRALS, REPROGRAMMED BY
        KAZUYA ISHIMURA (IMS) AND JOSE SIERRA (SYNSTAR).
     S,P,D,L SHELL ROTATED AXIS INTEGRALS PROGRAMMED BY
        KAZUYA ISHIMURA (INSTITUTE FOR MOLECULAR SCIENCE).
     S,P,D,F,G SHELL TO TOTAL QUARTET ANGULAR MOMENTUM SUM 5,
        ERIC PROGRAM BY GRAHAM FLETCHER (ELORET AND NASA ADVANCED
        SUPERCOMPUTING DIVISION, AMES RESEARCH CENTER).
     S,P,D,F,G,L SHELL GENERAL RYS QUADRATURE PROGRAMMED BY
        MICHEL DUPUIS (PACIFIC NORTHWEST NATIONAL LABORATORY).

          --------------------
          2 ELECTRON INTEGRALS
          --------------------

 DIRECT SCF METHOD SKIPS INTEGRAL STORAGE ON DISK.
 DIRECT TRANSFORMATION SKIPS AO INTEGRAL STORAGE ON DISK.
  ...... END OF TWO-ELECTRON INTEGRALS .....
 CPU     0: STEP CPU TIME=     0.02 TOTAL CPU TIME=          0.1 (      0.0 MIN)
 TOTAL WALL CLOCK TIME=          0.1 SECONDS, CPU UTILIZATION IS    80.00%

          --------------------------
             R-B3LYP SCF CALCULATION
          --------------------------

     NUCLEAR ENERGY =       683.9170625134
     MAXIT =   60     NPUNCH=    2
     EXTRAP=T  DAMP=F  SHIFT=F  RSTRCT=F  DIIS=T  DEM=F  SOSCF=F
         DENSITY MATRIX CONVERGENCE THRESHOLD=  2.00E-05
     COARSE -> FINE DFT GRID SWITCH THRESHOLD=  3.00E-04 (SWITCH IN $DFT)
                   HF -> DFT SWITCH THRESHOLD=  5.00E-03 (SWOFF IN $DFT)
     MEMORY REQUIRED FOR RHF ITERS=   1045879 WORDS.

 DIRECT SCF CALCULATION, SCHWRZ=T   FDIFF=T,  DIRTHR=  0.00E+00 NITDIR=10
 SCHWARZ INEQUALITY OVERHEAD:      8461 INTEGRALS, T=        0.00

 DFT CODE IS SWITCHING FROM THE FINE GRID NRAD= 96,  NLEB=  302
                      TO THE COARSE GRID NRAD0= 24, NLEB0=  110

     EXCHANGE FUNCTIONAL   =B88&HFX   
     CORRELATION FUNCTIONAL=LYP88&VWN5
     DFT THRESHOLD         =.511E-08
     GRID CHANGE THRESHOLD =.300E-03
 FOR AN EULER-MACLAURIN QUADRATURE USING  96 RADIAL POINTS:
 SMALLEST GAUSSIAN PRIMITIVE EXPONENT=        0.1831915800 OF TYPE -S-
 ON ATOM NUMBER  12 HAS RADIAL NORMALIZATION=  1.000000
  LARGEST GAUSSIAN PRIMITIVE EXPONENT=      322.0370000000 OF TYPE -S-
 ON ATOM NUMBER   3 HAS RADIAL NORMALIZATION=  1.000000
 DFT IS SWITCHED OFF, PERFORMING PURE SCF UNTIL SWOFF THRESHOLD IS REACHED.

                                                                                   NONZERO     BLOCKS
 ITER EX DEM     TOTAL ENERGY        E CHANGE  DENSITY CHANGE    DIIS ERROR      INTEGRALS    SKIPPED
          * * *   INITIATING DIIS PROCEDURE   * * *
   1  0  0     -459.2636421054  -459.2636421054   1.172570439   0.464485672       28354785     902071
   2  1  0     -460.1714614924    -0.9078193869   0.247225135   0.157532758       28255049     930404
   3  2  0     -460.2418183899    -0.0703568975   0.209707277   0.127577034       28035283     972097
   4  3  0     -460.3053114861    -0.0634930962   0.033238850   0.006757745       27593734    1034800
   5  4  0     -460.3059662010    -0.0006547149   0.006667798   0.002742383       26595633    1132644
   6  5  0     -460.3060526842    -0.0000864833   0.001453103   0.000934246       25750953    1191502
 CONVERGED TO SWOFF, SO DFT CALCULATION IS NOW SWITCHED ON.
          * * *   INITIATING DIIS PROCEDURE   * * *
   7  6  0     -463.0439081817    -2.7378554975   0.098511409   0.067668419       28370844     894448
   8  7  0     -463.0707040566    -0.0267958749   0.148059786   0.043719652       27980944     984120
   9  8  0     -463.0649777770     0.0057262796   0.100672160   0.070172268       27707271    1014280
  10  9  0     -463.0826376013    -0.0176598243   0.011498127   0.015896256       27347280    1058646
  11 10  0     -463.0835371569    -0.0008995557   0.003537170   0.001766378       26341221    1145884
  12 11  0     -463.0835519495    -0.0000147926   0.000889826   0.000292304       24905212    1257873
  13 12  0     -463.0835533987    -0.0000014492   0.000163489   0.000059760       23579461    1363696
 DFT CODE IS SWITCHING BACK TO THE FINE GRID
          * * *   INITIATING DIIS PROCEDURE   * * *
  14 13  0     -463.0897051680    -0.0061517693   0.004293920   0.001138398       28391599     887800
  15 14  0     -463.0897584090    -0.0000532409   0.000843610   0.000327052       26092935    1165855
  16 15  0     -463.0897581564     0.0000002525   0.000600826   0.000528839       24033797    1321822
  17 16  0     -463.0897592456    -0.0000010891   0.000282659   0.000173773       23060669    1400475
  18 17  0     -463.0897593271    -0.0000000815   0.000094692   0.000036115       21878118    1478368
  19 18  0     -463.0897593375    -0.0000000104   0.000014656   0.000003939       20538225    1557588
  20 19  0     -463.0897593369     0.0000000006   0.000004840   0.000001671       18175174    1678350

          -----------------
          DENSITY CONVERGED
          -----------------
     TIME TO FORM FOCK OPERATORS=      47.4 SECONDS (       2.4 SEC/ITER)
     FOCK TIME ON FIRST ITERATION=       0.5, LAST ITERATION=       5.7
     TIME TO SOLVE SCF EQUATIONS=       0.4 SECONDS (       0.0 SEC/ITER)

 FINAL R-B3LYP ENERGY IS     -463.0897593369 AFTER  20 ITERATIONS
 DFT EXCHANGE + CORRELATION ENERGY =       -55.2917496081
 TOTAL ELECTRON NUMBER             =        84.0005224643

          ------------
          EIGENVECTORS
          ------------

                      1          2          3          4          5
                  -19.0198   -10.1968   -10.1353   -10.1282   -10.1246
                     A          A          A          A          A   
    1  C  1  S   -0.000024  -0.002483  -0.029715   0.979971   0.119586
    2  C  1  S   -0.000130  -0.000303  -0.006162   0.124870   0.010121
    3  C  1  X   -0.001279  -0.001382   0.001182   0.000555  -0.000879
    4  C  1  Y   -0.001187  -0.000167   0.000728   0.002755  -0.002471
    5  C  1  Z    0.000326  -0.000128  -0.000965  -0.001006   0.001001
    6  C  1  S    0.007806   0.013182   0.029924  -0.142073  -0.003920
    7  C  1  X    0.008092  -0.003770   0.012147   0.000574   0.004720
    8  C  1  Y    0.015022   0.008597  -0.001902  -0.023642   0.023806
    9  C  1  Z   -0.007032  -0.011224  -0.011387   0.007239  -0.006989
   10  C  2  S    0.000450   0.986101   0.003131   0.001780   0.001910
   11  C  2  S    0.003067   0.111892  -0.001450  -0.001912  -0.000095
   12  C  2  X   -0.001280   0.001152  -0.000802   0.001187  -0.000721
   13  C  2  Y   -0.000019   0.000238   0.000222   0.000020  -0.000243
   14  C  2  Z   -0.000224   0.000271  -0.000125   0.000535  -0.000037
   15  C  2  S    0.016146  -0.074517   0.000460   0.037243  -0.012131
   16  C  2  X   -0.037579  -0.035531   0.002660   0.018734  -0.004649
   17  C  2  Y   -0.011237  -0.012149   0.000770  -0.011525  -0.004846
   18  C  2  Z    0.002143   0.002097   0.000382   0.011708   0.001575
   19  O  3  S    0.982933   0.000545  -0.000057   0.000024  -0.000033
   20  O  3  S    0.108814   0.002906  -0.000529   0.000067  -0.000413
   21  O  3  X    0.004601  -0.001050  -0.000053   0.000112  -0.000193
   22  O  3  Y    0.001174  -0.000360  -0.000042  -0.000409  -0.000186
   23  O  3  Z   -0.000124   0.000004  -0.000108   0.000236   0.000071
   24  O  3  S   -0.069590  -0.012886   0.002176  -0.000250   0.000478
   25  O  3  X   -0.018303  -0.006971   0.000603  -0.002089   0.000757
   26  O  3  Y   -0.004523  -0.001201   0.000169   0.002716   0.001058
   27  O  3  Z    0.000436   0.000219   0.000300  -0.002110  -0.000405
   28  C  4  S   -0.000042  -0.004782  -0.009788  -0.009102  -0.033143
   29  C  4  S   -0.000161  -0.003383  -0.002584  -0.001051  -0.007280
   30  C  4  X   -0.000770  -0.000661  -0.000717  -0.000349   0.001647
   31  C  4  Y   -0.000735  -0.000801   0.000735   0.000606  -0.000415
   32  C  4  Z    0.000400  -0.000145   0.000103  -0.000751   0.000721
   33  C  4  S    0.010363   0.030338   0.000608  -0.010453   0.041531
   34  C  4  X    0.007940   0.000907   0.000331  -0.009153   0.014489
   35  C  4  Y   -0.003446  -0.012823  -0.001679   0.002591  -0.005392
   36  C  4  Z    0.003621   0.012144  -0.002567  -0.003251   0.009118
   37  C  5  S   -0.000003  -0.001751  -0.018892  -0.122884   0.978848
   38  C  5  S   -0.000345  -0.000968  -0.004684  -0.020577   0.121376
   39  C  5  X    0.000794   0.001355   0.000144   0.000928  -0.002078
   40  C  5  Y    0.000348   0.000527  -0.001758   0.001414  -0.002088
   41  C  5  Z   -0.000501  -0.000083   0.000108  -0.000882   0.002126
   42  C  5  S   -0.003837  -0.005444   0.029086   0.034705  -0.125240
   43  C  5  X    0.002029   0.001233   0.002808  -0.011207   0.019626
   44  C  5  Y   -0.002829   0.001673  -0.014987  -0.007583   0.014455
   45  C  5  Z    0.005166   0.005535  -0.000285   0.010372  -0.018956
   46  C  6  S   -0.000010   0.000705  -0.009728  -0.000291  -0.028529
   47  C  6  S   -0.000170   0.001333  -0.002657   0.001300  -0.006503
   48  C  6  X    0.000103   0.000157  -0.000272   0.000529  -0.000401
   49  C  6  Y    0.000056   0.000546   0.000749   0.000857  -0.000742
   50  C  6  Z    0.000180  -0.000336   0.000675   0.000337  -0.001723
   51  C  6  S   -0.000248  -0.008583   0.001547  -0.017802   0.038655
   52  C  6  X   -0.000139   0.004786   0.001614   0.003165  -0.004943
   53  C  6  Y    0.000141   0.002106  -0.001391   0.006309  -0.008326
   54  C  6  Z    0.001211   0.002985  -0.000269   0.005363  -0.014600
   55  C  7  S   -0.000033  -0.005883  -0.010916  -0.025336  -0.024512
   56  C  7  S   -0.000346  -0.004932  -0.002637  -0.006555  -0.002850
   57  C  7  X    0.000008   0.001598  -0.000465  -0.000624  -0.000121
   58  C  7  Y    0.000190  -0.000331   0.000590  -0.000969  -0.000286
   59  C  7  Z    0.000231   0.001877   0.000704  -0.001890   0.001067
   60  C  7  S   -0.001837   0.010450   0.001874   0.041314  -0.008554
   61  C  7  X   -0.001810  -0.008282   0.001822  -0.002949  -0.001202
   62  C  7  Y    0.000159   0.003017  -0.001904  -0.008867  -0.002190
   63  C  7  Z    0.003120  -0.009476  -0.000504  -0.015660   0.005218
   64  C  8  S    0.000010  -0.003735   0.987062   0.025833   0.020396
   65  C  8  S   -0.000336  -0.002330   0.122452   0.001199   0.000516
   66  C  8  X    0.001352   0.002315  -0.000877  -0.001480  -0.000170
   67  C  8  Y    0.000025  -0.000466   0.000795  -0.000661   0.002027
   68  C  8  Z    0.000379   0.000582   0.000532   0.001278  -0.000094
   69  C  8  S   -0.006747  -0.001713  -0.128438   0.017689   0.021717
   70  C  8  X   -0.004139  -0.011678   0.006386  -0.011563  -0.001843
   71  C  8  Y   -0.001958   0.004255  -0.004935  -0.007075   0.014469
   72  C  8  Z   -0.009263  -0.007827  -0.003980   0.011887  -0.001446
   73  C  9  S   -0.000139  -0.001575  -0.008912  -0.006497  -0.010826
   74  C  9  S   -0.000701  -0.001858  -0.003445  -0.001504  -0.002477
   75  C  9  X   -0.000281  -0.000203  -0.000879   0.000812   0.000604
   76  C  9  Y    0.000128   0.000115   0.000215  -0.000019  -0.000678
   77  C  9  Z   -0.000000  -0.000168  -0.000448  -0.000243   0.000105
   78  C  9  S    0.005662   0.011325   0.024973   0.001084   0.002818
   79  C  9  X   -0.002790  -0.005506  -0.012459  -0.000093  -0.000819
   80  C  9  Y    0.001276   0.001191   0.004859   0.000822   0.000334
   81  C  9  Z   -0.000142  -0.000649  -0.002181  -0.000382   0.000540
   82  C 10  S    0.000044  -0.000055  -0.008776  -0.007568  -0.010683
   83  C 10  S    0.000070   0.000475  -0.003453  -0.001871  -0.002381
   84  C 10  X    0.000189   0.000520   0.000278   0.000362   0.000133
   85  C 10  Y   -0.000119  -0.000282   0.000438  -0.000028  -0.000748
   86  C 10  Z   -0.000113  -0.000950   0.000956  -0.000834  -0.000541
   87  C 10  S   -0.003103  -0.006713   0.025477   0.002129   0.002191
   88  C 10  X   -0.001265   0.000971  -0.000388   0.000014  -0.000881
   89  C 10  Y   -0.001493  -0.002394   0.007418   0.000646  -0.000045
   90  C 10  Z   -0.002411   0.001196   0.011539   0.000694   0.000661
   91  C 11  S   -0.000091  -0.001417  -0.003448  -0.010601  -0.009132
   92  C 11  S   -0.000194  -0.001358  -0.000677  -0.003088  -0.003438
   93  C 11  X   -0.000329   0.000191  -0.000628  -0.000023  -0.000179
   94  C 11  Y    0.000829  -0.000182  -0.000529   0.000385   0.000503
   95  C 11  Z   -0.000581   0.000154   0.000623  -0.000069   0.000017
   96  C 11  S    0.009192   0.006000  -0.002682   0.017216   0.019573
   97  C 11  X    0.002413   0.000558  -0.000522   0.001773   0.003514
   98  C 11  Y    0.003280   0.003132  -0.001331   0.009384   0.008153
   99  C 11  Z    0.000797   0.000391   0.000879  -0.003185  -0.003998
  100  H 12  S    0.000211  -0.001014  -0.000153   0.000262  -0.001666
  101  H 12  S    0.000844   0.003061  -0.002614  -0.000500   0.000710
  102  H 13  S    0.000449  -0.001699   0.000079   0.000154  -0.001841
  103  H 13  S    0.000552   0.002078   0.002016  -0.001007  -0.000837
  104  H 14  S    0.000629   0.000416  -0.001515   0.000083  -0.000656
  105  H 14  S    0.002025   0.002314  -0.000889   0.004063   0.007551
  106  H 15  S   -0.000022  -0.000177  -0.000048   0.000750  -0.001615
  107  H 15  S   -0.000173  -0.001277  -0.002114  -0.000319   0.000500
  108  H 16  S   -0.000033   0.001018  -0.000034   0.000721  -0.001721
  109  H 16  S   -0.000231  -0.000321   0.001910  -0.000238  -0.000730
  110  H 17  S    0.000233  -0.002196  -0.000012  -0.001871   0.000403
  111  H 17  S   -0.002458  -0.000611   0.002036  -0.000665  -0.000893
  112  H 18  S    0.000058   0.000537  -0.000133  -0.001991   0.000275
  113  H 18  S   -0.000159   0.005559  -0.002246  -0.000820  -0.000423
  114  H 19  S   -0.000479  -0.000610  -0.001582  -0.000037  -0.000074
  115  H 19  S    0.000105  -0.000485  -0.001213  -0.000649  -0.001566
  116  H 20  S   -0.000251  -0.000628  -0.001339   0.000237  -0.000293
  117  H 20  S    0.000175  -0.000216   0.000664  -0.000829   0.000892
  118  H 21  S   -0.000161  -0.000362  -0.001241  -0.000400  -0.000008
  119  H 21  S   -0.000139   0.000193   0.000557   0.001257  -0.000611
  120  H 22  S    0.000159   0.000465  -0.001288  -0.000406   0.000026
  121  H 22  S    0.000120   0.001368   0.000425   0.001479  -0.000327
  122  H 23  S    0.000049   0.000282  -0.001319   0.000128  -0.000290
  123  H 23  S   -0.000137  -0.000958   0.000753  -0.001134   0.000764
  124  H 24  S    0.000788  -0.000501  -0.001604  -0.000125  -0.000025
  125  H 24  S   -0.002474   0.004541  -0.001338  -0.000703  -0.001624
  126  H 25  S    0.000176  -0.000181   0.000390  -0.001064  -0.000978
  127  H 25  S    0.000187   0.000184  -0.000932   0.000062  -0.000503
  128  H 26  S   -0.000542  -0.000327   0.000350  -0.001084  -0.001003
  129  H 26  S   -0.001660   0.000137  -0.000958   0.000151  -0.000576
  130  H 27  S   -0.000154  -0.000355  -0.000257  -0.001184  -0.000620
  131  H 27  S   -0.000390  -0.000817   0.001533   0.000346   0.000650

                      6          7          8          9         10
                  -10.1199   -10.1169   -10.1160   -10.1078   -10.1073
                     A          A          A          A          A   
    1  C  1  S    0.026391   0.008203   0.010990   0.002473   0.011514
    2  C  1  S    0.002147   0.000136   0.000923  -0.000128  -0.000088
    3  C  1  X    0.000511   0.000570   0.000015   0.000706  -0.001085
    4  C  1  Y    0.000804  -0.000243  -0.000999   0.000310   0.000768
    5  C  1  Z    0.000455   0.000351  -0.000014   0.001104   0.000684
    6  C  1  S    0.010324   0.000405  -0.006302   0.000981  -0.000504
    7  C  1  X    0.005424  -0.001233  -0.004499  -0.002857   0.004309
    8  C  1  Y    0.005230   0.001217   0.002473  -0.001266  -0.005090
    9  C  1  Z    0.013541   0.003640   0.001070  -0.003956  -0.001715
   10  C  2  S    0.004960   0.003445   0.002024  -0.000433   0.001260
   11  C  2  S   -0.003631  -0.002323  -0.000551   0.000779  -0.000824
   12  C  2  X   -0.001319   0.000328  -0.000187  -0.000098  -0.000395
   13  C  2  Y   -0.000379  -0.000140  -0.000558   0.000179   0.000094
   14  C  2  Z   -0.000883   0.000012   0.000064   0.000037   0.000024
   15  C  2  S    0.013275   0.029202   0.006930  -0.004115   0.003418
   16  C  2  X    0.009841   0.006145   0.001565  -0.001758   0.003516
   17  C  2  Y    0.002125   0.016088   0.005717   0.001729  -0.000932
   18  C  2  Z    0.003106  -0.009471  -0.004995  -0.000140   0.002341
   19  O  3  S   -0.000042   0.000040  -0.000005  -0.000005  -0.000030
   20  O  3  S   -0.000346   0.000186  -0.000165  -0.000037  -0.000287
   21  O  3  X    0.000088  -0.000106  -0.000115  -0.000031   0.000007
   22  O  3  Y    0.000079   0.000289   0.000027   0.000055  -0.000114
   23  O  3  Z    0.000347  -0.000140  -0.000052  -0.000015   0.000062
   24  O  3  S    0.002497  -0.001110   0.000360   0.000244   0.001315
   25  O  3  X   -0.000240  -0.000526   0.000181   0.000329   0.000078
   26  O  3  Y   -0.000245  -0.002840  -0.000724  -0.000374   0.000562
   27  O  3  Z   -0.001445   0.001547   0.000748   0.000028  -0.000491
   28  C  4  S    0.012703   0.886936   0.431014  -0.001222   0.016227
   29  C  4  S    0.002693   0.106699   0.048238   0.000250   0.000567
   30  C  4  X    0.000566   0.000936  -0.000347  -0.000253  -0.000226
   31  C  4  Y    0.000443  -0.000602  -0.000479   0.000149   0.000477
   32  C  4  Z   -0.000368   0.001364  -0.001164   0.000328   0.000228
   33  C  4  S   -0.009176  -0.100344  -0.038997  -0.001841   0.002406
   34  C  4  X   -0.002819  -0.002824   0.001404  -0.001011   0.001067
   35  C  4  Y    0.002211   0.010772   0.004291   0.000194  -0.001444
   36  C  4  Z   -0.002942  -0.011163   0.003587  -0.001016  -0.001101
   37  C  5  S    0.018638   0.014488   0.039289   0.002056   0.014432
   38  C  5  S    0.001726   0.001175   0.002893   0.000042   0.000092
   39  C  5  X   -0.000112  -0.000934  -0.000374   0.000708  -0.000722
   40  C  5  Y   -0.000014  -0.000116   0.000091   0.000272   0.000811
   41  C  5  Z   -0.001011  -0.000602   0.000771   0.000922   0.000212
   42  C  5  S   -0.005726   0.006571   0.018466  -0.000081   0.000663
   43  C  5  X   -0.003049  -0.011294  -0.000679  -0.001835   0.002425
   44  C  5  Y    0.001550  -0.001205   0.005324  -0.000662  -0.001884
   45  C  5  Z   -0.003728  -0.010581   0.006486  -0.002474  -0.001178
   46  C  6  S   -0.098911  -0.429709   0.882277   0.006481   0.014175
   47  C  6  S   -0.014975  -0.053434   0.102290   0.000043   0.000667
   48  C  6  X   -0.000029   0.001641   0.000243   0.000251  -0.000360
   49  C  6  Y   -0.000492   0.000579  -0.000762   0.000030   0.000375
   50  C  6  Z    0.000399   0.001248  -0.000290  -0.000105   0.000218
   51  C  6  S    0.037478   0.050940  -0.085301   0.001929   0.001660
   52  C  6  X   -0.007839  -0.009058   0.000582  -0.000213   0.000853
   53  C  6  Y   -0.012599  -0.005766   0.007381  -0.000812  -0.000940
   54  C  6  Z    0.004179  -0.005718   0.002181  -0.001612  -0.000968
   55  C  7  S    0.981251  -0.054531   0.081097   0.006050   0.007298
   56  C  7  S    0.115892  -0.004132   0.006891  -0.000263   0.000137
   57  C  7  X   -0.000129  -0.000325   0.000318  -0.000041  -0.000341
   58  C  7  Y   -0.000360  -0.000411   0.000016  -0.000188   0.000200
   59  C  7  Z   -0.001209   0.000569  -0.000206   0.000091   0.000033
   60  C  7  S   -0.104206  -0.012999   0.014108   0.003425   0.002675
   61  C  7  X   -0.002480  -0.000499   0.005370   0.000685  -0.000219
   62  C  7  Y   -0.001657  -0.005532   0.008968  -0.001449  -0.001272
   63  C  7  Z    0.012028   0.005790  -0.006202  -0.002173  -0.000436
   64  C  8  S    0.010722   0.004249   0.014187   0.001854   0.012773
   65  C  8  S   -0.000196  -0.000126  -0.000720   0.000059   0.000402
   66  C  8  X   -0.000081   0.001165   0.000320   0.000270  -0.000021
   67  C  8  Y   -0.000394  -0.000184  -0.001268   0.000022   0.000027
   68  C  8  Z   -0.001237   0.001009  -0.000931   0.000270  -0.000191
   69  C  8  S    0.002018   0.000184   0.001721   0.002306   0.016895
   70  C  8  X    0.000493  -0.007821  -0.003908  -0.010475   0.007731
   71  C  8  Y    0.004286  -0.000096   0.005296  -0.002672  -0.004684
   72  C  8  Z    0.007173  -0.004782   0.007897  -0.013484  -0.001770
   73  C  9  S   -0.002032  -0.009576  -0.013672  -0.588615   0.791134
   74  C  9  S   -0.000073  -0.002385  -0.002361  -0.069412   0.088950
   75  C  9  X    0.000440  -0.000148   0.000441   0.000466   0.000214
   76  C  9  Y   -0.000252   0.000067  -0.000596   0.000394   0.000173
   77  C  9  Z   -0.000278   0.000086  -0.000229   0.001070   0.000455
   78  C  9  S   -0.002043   0.008241   0.003148   0.060300  -0.069066
   79  C  9  X    0.000382  -0.003194  -0.001139  -0.004429   0.001753
   80  C  9  Y   -0.000476   0.001821   0.001081  -0.000597  -0.001409
   81  C  9  Z   -0.000070  -0.000970  -0.000969  -0.004721  -0.000839
   82  C 10  S   -0.008764  -0.001474  -0.017776   0.791790   0.587620
   83  C 10  S   -0.002238   0.000199  -0.003524   0.092030   0.065039
   84  C 10  X    0.000113   0.000341   0.000185   0.000863  -0.000753
   85  C 10  Y    0.000119  -0.000470  -0.000456  -0.000090   0.000073
   86  C 10  Z   -0.000219  -0.000233  -0.000063   0.000546  -0.000402
   87  C 10  S    0.006982  -0.003935   0.008545  -0.077150  -0.047881
   88  C 10  X   -0.000025  -0.000054   0.000756  -0.003569   0.002449
   89  C 10  Y    0.000677  -0.000586   0.003090  -0.001349  -0.000709
   90  C 10  Z    0.003984  -0.001740   0.002751  -0.004965   0.000210
   91  C 11  S   -0.011063  -0.003811  -0.009877  -0.001543   0.005269
   92  C 11  S   -0.002444  -0.000867  -0.002398  -0.000144   0.001088
   93  C 11  X   -0.000170   0.000317  -0.000001   0.000087  -0.000029
   94  C 11  Y   -0.000857  -0.000180  -0.000289  -0.000060  -0.000214
   95  C 11  Z   -0.000256   0.000409  -0.000088   0.000192   0.000061
   96  C 11  S    0.002208   0.000857   0.005118  -0.000495  -0.003470
   97  C 11  X   -0.000653  -0.001714   0.001436   0.000228  -0.001724
   98  C 11  Y    0.000708   0.000209   0.002531  -0.000050  -0.000433
   99  C 11  Z   -0.000720  -0.003016  -0.000368   0.000572   0.001253
  100  H 12  S    0.000115   0.000724   0.000396   0.000123  -0.000393
  101  H 12  S   -0.000112   0.011717   0.010216  -0.001096  -0.001260
  102  H 13  S    0.000506   0.001132  -0.000552   0.000066  -0.000187
  103  H 13  S   -0.000455   0.013792   0.004849   0.000111   0.001204
  104  H 14  S   -0.000040  -0.000521  -0.001694   0.000004  -0.000339
  105  H 14  S    0.001175  -0.000056  -0.000127  -0.000165  -0.001191
  106  H 15  S   -0.001509   0.000009   0.000348  -0.000212  -0.000154
  107  H 15  S   -0.000328  -0.002608   0.015305   0.000742  -0.001275
  108  H 16  S   -0.001726  -0.001186  -0.000141  -0.000086  -0.000198
  109  H 16  S   -0.001069  -0.008064   0.012358   0.000278   0.001032
  110  H 17  S    0.000683   0.001366  -0.001168  -0.000015  -0.000293
  111  H 17  S    0.014523  -0.000609   0.001649   0.000607   0.000387
  112  H 18  S    0.000667   0.000551  -0.001250  -0.000404  -0.000025
  113  H 18  S    0.015127  -0.001552   0.001996   0.000497  -0.001561
  114  H 19  S   -0.000005  -0.000279  -0.000269   0.000175  -0.000369
  115  H 19  S    0.000269  -0.000801  -0.000197  -0.007906   0.014459
  116  H 20  S    0.000234  -0.000268  -0.000061  -0.000628  -0.000383
  117  H 20  S   -0.000228  -0.000007   0.000450  -0.011189   0.011894
  118  H 21  S    0.000042  -0.000658  -0.000049  -0.000679  -0.000328
  119  H 21  S    0.000494   0.000221  -0.000650  -0.010927   0.011823
  120  H 22  S   -0.000168   0.000458  -0.000508   0.000470  -0.000530
  121  H 22  S    0.000519  -0.000738  -0.000617   0.013966   0.007986
  122  H 23  S   -0.000488   0.000167  -0.000228   0.000506  -0.000596
  123  H 23  S   -0.000582   0.000464   0.000496   0.014043   0.008338
  124  H 24  S   -0.000543  -0.000026  -0.000412  -0.000238  -0.000299
  125  H 24  S    0.000421   0.000266  -0.000670   0.011532   0.011301
  126  H 25  S   -0.000434  -0.000458  -0.000228   0.000014   0.000312
  127  H 25  S    0.000849  -0.001197   0.000242   0.000064   0.000255
  128  H 26  S    0.000155   0.000261  -0.000389   0.000033   0.000291
  129  H 26  S   -0.000946   0.001426  -0.000490   0.000001   0.000393
  130  H 27  S   -0.000181  -0.000153  -0.000439   0.000009  -0.000151
  131  H 27  S   -0.000823   0.000341   0.000342   0.000004  -0.000183

                     11         12         13         14         15
                  -10.1040    -1.0440    -0.8822    -0.7641    -0.7589
                     A          A          A          A          A   
    1  C  1  S    0.011623  -0.020705  -0.101028  -0.030396  -0.112413
    2  C  1  S    0.000691   0.014912   0.090332   0.028031   0.090939
    3  C  1  X   -0.000001  -0.013121   0.017435   0.020056  -0.023476
    4  C  1  Y    0.000935   0.007199   0.035794  -0.051179  -0.026651
    5  C  1  Z   -0.000138  -0.007159  -0.019076  -0.022007   0.058509
    6  C  1  S    0.012593   0.015554   0.246945   0.069243   0.344177
    7  C  1  X   -0.001701  -0.018114  -0.001673  -0.017444  -0.004263
    8  C  1  Y   -0.017510  -0.028434   0.054295   0.005978   0.046709
    9  C  1  Z    0.005214   0.024596  -0.018100   0.009528  -0.017323
   10  C  2  S    0.001308  -0.129035  -0.035648   0.019900  -0.000704
   11  C  2  S   -0.000769   0.129424   0.045131  -0.020476   0.004792
   12  C  2  X   -0.000046  -0.158826   0.096187  -0.021551   0.020205
   13  C  2  Y    0.001205  -0.041193   0.017829  -0.048471  -0.055723
   14  C  2  Z   -0.000499   0.005499   0.004096   0.013318   0.056585
   15  C  2  S    0.003164   0.164000   0.035917  -0.049798  -0.028680
   16  C  2  X    0.001283   0.117804   0.000997  -0.020813  -0.025091
   17  C  2  Y   -0.004597   0.036455   0.011505  -0.005214   0.007157
   18  C  2  Z    0.003473  -0.007330  -0.010644  -0.012679  -0.003336
   19  O  3  S    0.000032  -0.208095   0.041108  -0.011123   0.007576
   20  O  3  S    0.000277   0.192706  -0.040756   0.011691  -0.007068
   21  O  3  X    0.000050   0.147115  -0.018437   0.003728   0.001794
   22  O  3  Y   -0.000076   0.038127  -0.005798  -0.008830  -0.014103
   23  O  3  Z    0.000137  -0.004500   0.001533   0.002562   0.013537
   24  O  3  S   -0.001221   0.670625  -0.132126   0.034156  -0.030172
   25  O  3  X   -0.000686   0.146529  -0.014462   0.002865   0.002269
   26  O  3  Y    0.000835   0.036977  -0.007556  -0.008504  -0.016093
   27  O  3  Z   -0.000888  -0.003926   0.004057   0.004278   0.014441
   28  C  4  S    0.007142  -0.018372  -0.065582   0.075105   0.082347
   29  C  4  S   -0.000007   0.017875   0.067832  -0.070084  -0.077532
   30  C  4  X   -0.000206  -0.008141   0.028532  -0.010274  -0.020348
   31  C  4  Y    0.000030  -0.011591  -0.025888  -0.000774   0.005721
   32  C  4  Z   -0.000157   0.007636   0.025207  -0.021954   0.002651
   33  C  4  S    0.001740  -0.014487   0.125994  -0.192185  -0.205068
   34  C  4  X   -0.001834  -0.028991   0.004237   0.005388   0.013024
   35  C  4  Y   -0.001185   0.016999  -0.008018   0.002986   0.009055
   36  C  4  Z    0.000822  -0.019418  -0.001080  -0.002745   0.002502
   37  C  5  S    0.007636  -0.005419  -0.098654   0.055261   0.080083
   38  C  5  S   -0.000877   0.007895   0.091147  -0.042578  -0.066189
   39  C  5  X    0.000343  -0.007092  -0.023381   0.038461   0.018248
   40  C  5  Y    0.000126  -0.004319  -0.033404  -0.044303   0.005555
   41  C  5  Z   -0.000268   0.002727   0.024625  -0.029367   0.026863
   42  C  5  S    0.005979   0.022896   0.216165  -0.178766  -0.230805
   43  C  5  X   -0.002274  -0.005193  -0.031891   0.023101   0.027197
   44  C  5  Y   -0.003243   0.007554  -0.024832   0.028869   0.014438
   45  C  5  Z    0.002338  -0.020569   0.036053  -0.024002  -0.022018
   46  C  6  S    0.005552  -0.002922  -0.068009   0.082175  -0.007802
   47  C  6  S    0.000178   0.002436   0.070754  -0.078045   0.004267
   48  C  6  X    0.000113  -0.002423  -0.016537   0.019691  -0.009657
   49  C  6  Y    0.000162  -0.002616  -0.033777   0.006931  -0.020379
   50  C  6  Z    0.000169  -0.001471  -0.021829   0.010647   0.041557
   51  C  6  S   -0.000256   0.015003   0.120389  -0.199466   0.040362
   52  C  6  X   -0.000244  -0.003011   0.003315   0.001405  -0.007228
   53  C  6  Y   -0.000604  -0.003548  -0.001649  -0.000424  -0.010876
   54  C  6  Z    0.001052  -0.005805   0.003336   0.000579  -0.009948
   55  C  7  S    0.010794  -0.004291  -0.069239   0.047009  -0.093476
   56  C  7  S   -0.000153   0.010460   0.071462  -0.042243   0.089810
   57  C  7  X    0.000292  -0.004274   0.003272  -0.004966  -0.013004
   58  C  7  Y    0.000926  -0.001033  -0.002068  -0.034840  -0.030991
   59  C  7  Z   -0.000333  -0.005940  -0.042316   0.011480  -0.010504
   60  C  7  S    0.003853  -0.006854   0.127004  -0.133691   0.218458
   61  C  7  X   -0.001792   0.015701   0.005866   0.005501   0.001860
   62  C  7  Y   -0.002425  -0.002507   0.004933   0.000450  -0.002874
   63  C  7  Z   -0.000368   0.006607   0.000729   0.010678   0.005304
   64  C  8  S    0.004145  -0.005392  -0.102450  -0.103093   0.046256
   65  C  8  S   -0.000184   0.008255   0.096618   0.085435  -0.038350
   66  C  8  X    0.000250  -0.009448  -0.026188   0.034564  -0.025653
   67  C  8  Y    0.000968   0.002082   0.024995  -0.063547  -0.023407
   68  C  8  Z   -0.000378  -0.000063   0.019251  -0.024281   0.052453
   69  C  8  S    0.000633   0.024289   0.204776   0.304670  -0.140341
   70  C  8  X   -0.000695   0.027044   0.002501  -0.012885   0.011788
   71  C  8  Y   -0.003855  -0.001239  -0.004871   0.014167   0.003398
   72  C  8  Z    0.001172   0.026987  -0.011831   0.005426  -0.005456
   73  C  9  S   -0.005410  -0.000143  -0.037424  -0.097311   0.032343
   74  C  9  S   -0.000292   0.003825   0.040278   0.095830  -0.033749
   75  C  9  X   -0.000009  -0.000435  -0.026208  -0.030619   0.006606
   76  C  9  Y    0.000020   0.000085   0.010702  -0.002305  -0.006174
   77  C  9  Z    0.000156   0.000139  -0.004960  -0.020881   0.016431
   78  C  9  S   -0.000670  -0.025313   0.068568   0.246135  -0.075088
   79  C  9  X    0.001265   0.014711   0.004856  -0.003205  -0.009262
   80  C  9  Y    0.000794  -0.005209  -0.002907  -0.007626  -0.002890
   81  C  9  Z   -0.000769   0.002595   0.002747  -0.007474   0.009949
   82  C 10  S   -0.002265  -0.001923  -0.037153  -0.100971   0.054551
   83  C 10  S   -0.000026   0.001754   0.041136   0.099389  -0.053712
   84  C 10  X   -0.000153  -0.001893  -0.000489   0.014692  -0.006682
   85  C 10  Y    0.000017   0.001501   0.015345   0.007023  -0.015620
   86  C 10  Z   -0.000002   0.002452   0.024446   0.033009  -0.009138
   87  C 10  S   -0.000502   0.014677   0.061524   0.254141  -0.140155
   88  C 10  X    0.000731   0.001760  -0.001839   0.007350  -0.008100
   89  C 10  Y    0.000513   0.005049  -0.006027  -0.005885  -0.006143
   90  C 10  Z   -0.001377   0.004376  -0.010714   0.006674   0.002849
   91  C 11  S    0.986128  -0.005311  -0.029676  -0.043360  -0.108357
   92  C 11  S    0.112712   0.005902   0.030511   0.040256   0.105259
   93  C 11  X   -0.000103  -0.000057   0.006829   0.007710   0.006253
   94  C 11  Y    0.000151   0.003192   0.022656   0.010215   0.040473
   95  C 11  Z   -0.000029  -0.000724  -0.008430  -0.010505  -0.004829
   96  C 11  S   -0.093410  -0.014211   0.071328   0.119121   0.292407
   97  C 11  X   -0.000940  -0.011236   0.004615   0.009828   0.002448
   98  C 11  Y   -0.005793  -0.005933   0.002206   0.005668   0.014107
   99  C 11  Z    0.002163  -0.007891   0.001085  -0.010627   0.001171
  100  H 12  S   -0.000215   0.005210   0.023238  -0.030751  -0.043710
  101  H 12  S    0.000341  -0.007579  -0.006978   0.009187  -0.005755
  102  H 13  S   -0.000224   0.005014   0.023834  -0.040377  -0.038856
  103  H 13  S    0.000022  -0.005376  -0.002744  -0.006923  -0.001061
  104  H 14  S   -0.000052  -0.000374   0.033689  -0.021059  -0.042345
  105  H 14  S    0.001847  -0.010979   0.010514  -0.008240  -0.022020
  106  H 15  S   -0.000093   0.000669   0.024627  -0.035036   0.003316
  107  H 15  S    0.000275  -0.000053  -0.006007   0.007227   0.001646
  108  H 16  S   -0.000071   0.000292   0.025226  -0.043806   0.000257
  109  H 16  S    0.000361   0.001059  -0.003556  -0.008150  -0.001743
  110  H 17  S   -0.000225   0.003637   0.025720  -0.023535   0.048862
  111  H 17  S   -0.001501   0.009805  -0.005172  -0.001827   0.006319
  112  H 18  S   -0.000540   0.000947   0.025637  -0.016840   0.050140
  113  H 18  S   -0.000293  -0.008276  -0.004401   0.007083   0.004486
  114  H 19  S    0.000299   0.001562   0.017830   0.041355  -0.011489
  115  H 19  S   -0.000286   0.000156   0.001709  -0.002744   0.002531
  116  H 20  S    0.000234   0.001173   0.014559   0.051363  -0.015518
  117  H 20  S    0.000033  -0.000743  -0.003917   0.005283   0.002128
  118  H 21  S   -0.000151   0.000882   0.015010   0.049137  -0.020101
  119  H 21  S   -0.000534  -0.000450  -0.003058   0.002609  -0.002595
  120  H 22  S   -0.000188  -0.000013   0.015003   0.050286  -0.029309
  121  H 22  S   -0.000473  -0.002048  -0.003871   0.003154  -0.003767
  122  H 23  S    0.000270   0.000266   0.014803   0.053190  -0.024617
  123  H 23  S   -0.000336   0.000828  -0.003708   0.004986   0.003657
  124  H 24  S    0.000359   0.000904   0.018353   0.044329  -0.028665
  125  H 24  S   -0.000545   0.002683  -0.002008   0.000367  -0.004179
  126  H 25  S   -0.000024   0.001045   0.011702   0.022299   0.049204
  127  H 25  S    0.016148  -0.001276  -0.001672   0.004002  -0.002437
  128  H 26  S   -0.000075   0.002625   0.011344   0.021013   0.052209
  129  H 26  S    0.015752   0.007709  -0.002445   0.002848   0.002237
  130  H 27  S    0.000105   0.001767   0.011617   0.018530   0.053888
  131  H 27  S    0.015889   0.004906  -0.005371   0.001104   0.002391

                     16         17         18         19         20
                   -0.7321    -0.6773    -0.6619    -0.6360    -0.5785
                     A          A          A          A          A   
    1  C  1  S    0.056124   0.002608   0.042677   0.054151  -0.032402
    2  C  1  S   -0.046155  -0.002620  -0.031400  -0.045594   0.023436
    3  C  1  X    0.053101  -0.002983  -0.003094  -0.021212  -0.085959
    4  C  1  Y    0.026330   0.025877  -0.116974  -0.037123   0.006539
    5  C  1  Z    0.036888  -0.002966   0.015984   0.074114  -0.099137
    6  C  1  S   -0.175520  -0.008057  -0.152322  -0.183739   0.138460
    7  C  1  X    0.003815  -0.002022  -0.002773  -0.003827  -0.028342
    8  C  1  Y   -0.019486   0.008418  -0.066307  -0.039339   0.024414
    9  C  1  Z    0.013986  -0.004567   0.014770   0.024980  -0.041614
   10  C  2  S    0.064112   0.008169   0.056317  -0.004118  -0.081833
   11  C  2  S   -0.068793  -0.011359  -0.061945   0.005195   0.083744
   12  C  2  X   -0.095870  -0.006060  -0.070298  -0.025534   0.086948
   13  C  2  Y   -0.030953  -0.023090  -0.025299   0.082124  -0.023059
   14  C  2  Z    0.021792   0.013323  -0.009292  -0.047809   0.019529
   15  C  2  S   -0.126972  -0.006329  -0.124429   0.003740   0.248134
   16  C  2  X   -0.048851  -0.003055  -0.039176  -0.019841   0.095586
   17  C  2  Y   -0.007865  -0.009184  -0.018626   0.014192   0.009930
   18  C  2  Z    0.006132  -0.001014  -0.000463  -0.006299   0.001699
   19  O  3  S   -0.043381  -0.006161  -0.025929   0.013012   0.042310
   20  O  3  S    0.044942   0.006692   0.026601  -0.011364  -0.043189
   21  O  3  X    0.002485   0.000761  -0.007914  -0.003164   0.040328
   22  O  3  Y    0.000475  -0.005304  -0.008716   0.025584  -0.006978
   23  O  3  Z    0.003936   0.002609  -0.000935  -0.014509   0.006310
   24  O  3  S    0.139661   0.018494   0.087756  -0.054932  -0.145442
   25  O  3  X    0.000750  -0.000812  -0.008251  -0.007047   0.035638
   26  O  3  Y   -0.000199  -0.003523  -0.008688   0.020903  -0.006293
   27  O  3  Z    0.003126   0.002773  -0.000389  -0.012265   0.004437
   28  C  4  S    0.101940   0.043306   0.011776  -0.101108   0.026489
   29  C  4  S   -0.091500  -0.040814  -0.007935   0.088038  -0.021961
   30  C  4  X    0.015568   0.004819   0.050590  -0.069641  -0.050693
   31  C  4  Y    0.035142  -0.004161   0.041718   0.028655  -0.045415
   32  C  4  Z   -0.004925  -0.002435  -0.015939  -0.020465   0.061799
   33  C  4  S   -0.300756  -0.127810  -0.057190   0.365024  -0.100937
   34  C  4  X   -0.011546   0.008274   0.004000  -0.014771  -0.015360
   35  C  4  Y    0.024433  -0.005416   0.020307  -0.003513  -0.007828
   36  C  4  Z   -0.010118  -0.000914  -0.014438   0.012878   0.025466
   37  C  5  S   -0.016963   0.018574  -0.089405   0.069912   0.067361
   38  C  5  S    0.013493  -0.016160   0.077550  -0.058017  -0.057215
   39  C  5  X    0.064272   0.005460   0.031970  -0.044275  -0.010415
   40  C  5  Y    0.009733  -0.003885   0.046740   0.063582   0.030852
   41  C  5  Z    0.058612   0.007887   0.007478  -0.013609   0.096093
   42  C  5  S    0.053422  -0.058272   0.284020  -0.245585  -0.249029
   43  C  5  X   -0.000945   0.001820  -0.005035   0.020681   0.004573
   44  C  5  Y   -0.002018   0.000003   0.007041   0.035720   0.017000
   45  C  5  Z    0.008024  -0.004476   0.008458  -0.029277   0.021663
   46  C  6  S   -0.114125  -0.034067  -0.070086  -0.027220  -0.106201
   47  C  6  S    0.104889   0.031782   0.064904   0.024472   0.091303
   48  C  6  X    0.007508  -0.010452   0.027892  -0.017494   0.024633
   49  C  6  Y   -0.021113  -0.005343   0.039896   0.018658   0.079728
   50  C  6  Z    0.014020   0.027511  -0.052199   0.063576   0.013491
   51  C  6  S    0.308913   0.101306   0.208283   0.094513   0.411686
   52  C  6  X    0.000838  -0.006532   0.009791  -0.010144  -0.010641
   53  C  6  Y   -0.016277   0.002583   0.013660   0.007340   0.011014
   54  C  6  Z   -0.004179   0.007061  -0.007840   0.014655  -0.007338
   55  C  7  S   -0.074918  -0.048354   0.074147  -0.067657   0.096164
   56  C  7  S    0.067359   0.045612  -0.068278   0.058716  -0.081213
   57  C  7  X    0.037825   0.000602   0.026882   0.001637   0.005734
   58  C  7  Y    0.042453   0.020393   0.028121   0.024206   0.071071
   59  C  7  Z   -0.000401   0.005616   0.003507   0.057482  -0.074456
   60  C  7  S    0.211601   0.139299  -0.224398   0.230150  -0.379955
   61  C  7  X    0.006851  -0.006761   0.002909  -0.005107   0.002573
   62  C  7  Y   -0.001889   0.007070  -0.000096   0.003313   0.029853
   63  C  7  Z   -0.019145   0.004688   0.001789   0.008935  -0.002458
   64  C  8  S   -0.020110  -0.000127   0.009267   0.072558   0.033571
   65  C  8  S    0.016987   0.000070  -0.008637  -0.060904  -0.027128
   66  C  8  X    0.069509  -0.068394   0.011572   0.063756  -0.024392
   67  C  8  Y    0.007711  -0.021113   0.025595  -0.075366  -0.058578
   68  C  8  Z    0.021361  -0.083428  -0.033548  -0.042305   0.017190
   69  C  8  S    0.063706   0.001585  -0.031687  -0.230422  -0.122196
   70  C  8  X    0.010775  -0.016487   0.005333   0.030109  -0.007441
   71  C  8  Y   -0.000961  -0.003232  -0.001523  -0.033346  -0.026990
   72  C  8  Z    0.012427  -0.018422  -0.005260  -0.019117   0.001874
   73  C  9  S   -0.075158   0.133030   0.036090  -0.067192  -0.029267
   74  C  9  S    0.071785  -0.124378  -0.034214   0.062406   0.026442
   75  C  9  X   -0.007354  -0.016987  -0.002476   0.042904   0.033246
   76  C  9  Y    0.011107  -0.002877   0.007141  -0.028306  -0.024432
   77  C  9  Z    0.000620  -0.017478  -0.007232   0.002614   0.011628
   78  C  9  S    0.209820  -0.402428  -0.110594   0.219944   0.105150
   79  C  9  X   -0.001272  -0.005839  -0.004164   0.009932   0.016072
   80  C  9  Y    0.006451   0.000198   0.008073  -0.012163  -0.008485
   81  C  9  Z   -0.004133  -0.004699  -0.000979   0.001386   0.002237
   82  C 10  S    0.010519  -0.150173  -0.017825  -0.065985  -0.013086
   83  C 10  S   -0.007871   0.140657   0.015983   0.060915   0.011621
   84  C 10  X    0.018340  -0.014029   0.002129   0.008999  -0.014098
   85  C 10  Y   -0.002928  -0.006300   0.001152  -0.031678  -0.031404
   86  C 10  Z    0.001204  -0.020735  -0.009140  -0.038779  -0.006615
   87  C 10  S   -0.040369   0.454719   0.054464   0.217535   0.052777
   88  C 10  X    0.008663  -0.001651  -0.001560   0.002949  -0.010432
   89  C 10  Y   -0.003747  -0.003319   0.002430  -0.007834  -0.020624
   90  C 10  Z   -0.004748  -0.006873   0.002710  -0.009152   0.001288
   91  C 11  S    0.064004   0.038519  -0.140875  -0.047246   0.011195
   92  C 11  S   -0.062311  -0.036969   0.134694   0.045419  -0.010504
   93  C 11  X    0.003629  -0.002517  -0.005485  -0.003631  -0.018451
   94  C 11  Y   -0.015412   0.003267  -0.033764  -0.022517   0.011497
   95  C 11  Z    0.012576  -0.002483   0.005357   0.020390  -0.038214
   96  C 11  S   -0.177418  -0.112570   0.419914   0.146801  -0.036675
   97  C 11  X   -0.000614  -0.000581  -0.006946   0.005732  -0.011421
   98  C 11  Y   -0.002743   0.003263  -0.015644  -0.009125  -0.000212
   99  C 11  Z   -0.001345  -0.001430   0.002644   0.011465  -0.026658
  100  H 12  S   -0.055668  -0.022723  -0.004542   0.077415  -0.040095
  101  H 12  S   -0.008270   0.003107  -0.001090   0.030467  -0.024135
  102  H 13  S   -0.046342  -0.027807  -0.001121   0.084322  -0.015828
  103  H 13  S   -0.001716  -0.001556   0.003863   0.031197  -0.005770
  104  H 14  S    0.012266  -0.012236   0.069236  -0.038303  -0.070629
  105  H 14  S    0.007356  -0.004528   0.027846  -0.020539  -0.038006
  106  H 15  S    0.065680   0.016962   0.048466   0.020553   0.088450
  107  H 15  S    0.015783  -0.001615   0.010657   0.008929   0.042843
  108  H 16  S    0.054440   0.021261   0.047759   0.033979   0.098560
  109  H 16  S    0.004173   0.001095   0.010854   0.018507   0.043690
  110  H 17  S    0.033050   0.031550  -0.050400   0.057114  -0.073381
  111  H 17  S    0.003752   0.003758  -0.009404   0.022229  -0.029401
  112  H 18  S    0.042298   0.024676  -0.040616   0.055615  -0.099646
  113  H 18  S    0.011323  -0.000992  -0.005003   0.024966  -0.049724
  114  H 19  S    0.047148  -0.085048  -0.023658   0.045137   0.023484
  115  H 19  S    0.010188  -0.017970  -0.005257   0.013523   0.007908
  116  H 20  S    0.036377  -0.076341  -0.022986   0.055854   0.032899
  117  H 20  S    0.000575  -0.009379  -0.000272   0.022142   0.017047
  118  H 21  S    0.039132  -0.076725  -0.019284   0.050389   0.022670
  119  H 21  S    0.003539  -0.010044   0.001631   0.018021   0.006006
  120  H 22  S   -0.000776   0.087604   0.013902   0.050219   0.001416
  121  H 22  S    0.002425   0.011151   0.008041   0.018534  -0.002976
  122  H 23  S   -0.002552   0.086698   0.010902   0.054054   0.022304
  123  H 23  S   -0.000508   0.009604   0.004729   0.022470   0.012421
  124  H 24  S   -0.016153   0.095471   0.008627   0.044727   0.016455
  125  H 24  S   -0.004565   0.020521   0.005625   0.012956   0.003081
[...]
    702    5.01244    6.07515   -5.47336        -8.687378       8.694278       0.006900
    703    5.01244    6.07515   -3.96157        -9.470073       9.478517       0.008444
    704    5.01244    6.07515   -2.44979       -10.160390      10.168729       0.008338
    705    5.01244    6.07515   -0.93801       -10.626298      10.632381       0.006083
    706    5.01244    6.07515    0.57377       -10.774070      10.779497       0.005427
    707    5.01244    6.07515    2.08555       -10.536917      10.544325       0.007408
    708    5.01244    6.07515    3.59733        -9.916941       9.924250       0.007309
    709    5.01244    6.07515    5.10911        -9.091409       9.097091       0.005682
    710    5.01244    6.07515    6.62089        -8.244816       8.249375       0.004559
    711    5.01244    7.58693   -3.96157        -8.436144       8.441959       0.005815
    712    5.01244    7.58693   -2.44979        -8.914264       8.919994       0.005730
    713    5.01244    7.58693   -0.93801        -9.227081       9.232163       0.005082
    714    5.01244    7.58693    0.57377        -9.313009       9.317690       0.004682
    715    5.01244    7.58693    2.08555        -9.138858       9.143632       0.004774
    716    5.01244    7.58693    3.59733        -8.724471       8.729249       0.004777
    717    5.01244    7.58693    5.10911        -8.156311       8.160689       0.004378
    718    6.52422   -7.53088   -2.44979        -8.304191       8.308599       0.004408
    719    6.52422   -7.53088   -0.93801        -8.509793       8.515006       0.005213
    720    6.52422   -7.53088    0.57377        -8.517121       8.522698       0.005577
    721    6.52422   -7.53088    2.08555        -8.322820       8.327976       0.005157
    722    6.52422   -6.01910   -3.96157        -8.823065       8.826948       0.003883
    723    6.52422   -6.01910   -2.44979        -9.337274       9.342024       0.004750
    724    6.52422   -6.01910   -0.93801        -9.648975       9.655845       0.006870
    725    6.52422   -6.01910    0.57377        -9.657571       9.665804       0.008233
    726    6.52422   -6.01910    2.08555        -9.349450       9.356091       0.006641
    727    6.52422   -6.01910    3.59733        -8.832162       8.837503       0.005341
    728    6.52422   -4.50732   -6.98514        -8.090885       8.094700       0.003814
    729    6.52422   -4.50732   -5.47336        -8.923269       8.927125       0.003857
    730    6.52422   -4.50732   -3.96157        -9.757223       9.760741       0.003518
    731    6.52422   -4.50732   -2.44979       -10.506985      10.510315       0.003331
    732    6.52422   -4.50732    2.08555       -10.524312      10.531298       0.006987
    733    6.52422   -4.50732    3.59733        -9.747564       9.752952       0.005388
    734    6.52422   -4.50732    5.10911        -8.919914       8.925304       0.005390
    735    6.52422   -2.99554   -8.49692        -7.647179       7.651471       0.004292
    736    6.52422   -2.99554   -6.98514        -8.544863       8.549967       0.005104
    737    6.52422   -2.99554   -5.47336        -9.550510       9.555783       0.005273
    738    6.52422   -2.99554   -3.96157       -10.619216      10.623803       0.004587
    739    6.52422   -2.99554    2.08555       -11.739733      11.745648       0.005916
    740    6.52422   -2.99554    3.59733       -10.617592      10.623404       0.005812
    741    6.52422   -2.99554    5.10911        -9.547971       9.554563       0.006592
    742    6.52422   -2.99554    6.62089        -8.579144       8.585087       0.005943
    743    6.52422   -1.48376   -8.49692        -7.846328       7.851529       0.005200
    744    6.52422   -1.48376   -6.98514        -8.821647       8.828376       0.006728
    745    6.52422   -1.48376   -5.47336        -9.940110       9.948022       0.007912
    746    6.52422   -1.48376   -3.96157       -11.183865      11.194728       0.010863
    747    6.52422   -1.48376    5.10911        -9.995742      10.004900       0.009158
    748    6.52422   -1.48376    6.62089        -8.901570       8.908733       0.007163
    749    6.52422    0.02802   -8.49692        -7.885634       7.891249       0.005615
    750    6.52422    0.02802   -6.98514        -8.866700       8.874066       0.007366
    751    6.52422    0.02802   -5.47336        -9.991579      10.000696       0.009117
    752    6.52422    0.02802   -3.96157       -11.239414      11.253125       0.013711
    753    6.52422    0.02802    5.10911       -10.158950      10.169937       0.010986
    754    6.52422    0.02802    6.62089        -9.027496       9.035342       0.007846
    755    6.52422    1.53981   -6.98514        -8.691715       8.698687       0.006972
    756    6.52422    1.53981   -5.47336        -9.732388       9.740859       0.008471
    757    6.52422    1.53981   -3.96157       -10.843747      10.853894       0.010147
    758    6.52422    1.53981    0.57377       -12.732892      12.737609       0.004716
    759    6.52422    1.53981    3.59733       -11.142507      11.156334       0.013827
    760    6.52422    1.53981    5.10911       -10.009684      10.019993       0.010308
    761    6.52422    1.53981    6.62089        -8.932035       8.939565       0.007530
    762    6.52422    3.05159   -5.47336        -9.259282       9.267026       0.007745
    763    6.52422    3.05159   -3.96157       -10.197099      10.205905       0.008806
    764    6.52422    3.05159   -2.44979       -11.039385      11.047664       0.008279
    765    6.52422    3.05159   -0.93801       -11.595842      11.602048       0.006207
    766    6.52422    3.05159    0.57377       -11.709833      11.716876       0.007043
    767    6.52422    3.05159    2.08555       -11.338336      11.350588       0.012253
    768    6.52422    3.05159    3.59733       -10.561553      10.574130       0.012576
    769    6.52422    3.05159    5.10911        -9.596345       9.605533       0.009188
    770    6.52422    3.05159    6.62089        -8.632911       8.639601       0.006690
    771    6.52422    4.56337   -5.47336        -8.658050       8.665025       0.006975
    772    6.52422    4.56337   -3.96157        -9.417583       9.425610       0.008026
    773    6.52422    4.56337   -2.44979       -10.076711      10.084557       0.007846
    774    6.52422    4.56337   -0.93801       -10.508542      10.515249       0.006707
    775    6.52422    4.56337    0.57377       -10.617552      10.625040       0.007488
    776    6.52422    4.56337    2.08555       -10.360006      10.370544       0.010537
    777    6.52422    4.56337    3.59733        -9.767002       9.777241       0.010239
    778    6.52422    4.56337    5.10911        -8.988178       8.995774       0.007596
    779    6.52422    4.56337    6.62089        -8.178223       8.183899       0.005676
    780    6.52422    6.07515   -3.96157        -8.592712       8.599305       0.006593
    781    6.52422    6.07515   -2.44979        -9.091528       9.098100       0.006572
    782    6.52422    6.07515   -0.93801        -9.414237       9.420252       0.006015
    783    6.52422    6.07515    0.57377        -9.496455       9.502551       0.006096
    784    6.52422    6.07515    2.08555        -9.307453       9.314347       0.006894
    785    6.52422    6.07515    3.59733        -8.870767       8.877575       0.006808
    786    6.52422    6.07515    5.10911        -8.277884       8.283629       0.005744
    787    6.52422    7.58693    0.57377        -8.453927       8.458860       0.004932
    788    6.52422    7.58693    2.08555        -8.314327       8.319336       0.005009
    789    6.52422    7.58693    3.59733        -7.997625       8.002513       0.004888
    790    8.03600   -7.53088   -0.93801        -7.730043       7.734152       0.004109
    791    8.03600   -7.53088    0.57377        -7.735493       7.739798       0.004306
    792    8.03600   -6.01910   -2.44979        -8.330453       8.334441       0.003988
    793    8.03600   -6.01910   -0.93801        -8.550846       8.555380       0.004534
    794    8.03600   -6.01910    0.57377        -8.556644       8.561554       0.004910
    795    8.03600   -6.01910    2.08555        -8.344366       8.349095       0.004729
    796    8.03600   -6.01910    3.59733        -7.970693       7.975077       0.004384
    797    8.03600   -4.50732   -3.96157        -8.612169       8.616173       0.004003
    798    8.03600   -4.50732   -2.44979        -9.122211       9.126060       0.003850
    799    8.03600   -4.50732   -0.93801        -9.436847       9.440755       0.003908
    800    8.03600   -4.50732    0.57377        -9.445079       9.449443       0.004365
    801    8.03600   -4.50732    2.08555        -9.138861       9.143362       0.004501
    802    8.03600   -4.50732    3.59733        -8.631165       8.635804       0.004638
    803    8.03600   -2.99554   -5.47336        -8.454666       8.459665       0.004999
    804    8.03600   -2.99554   -3.96157        -9.187399       9.192743       0.005344
    805    8.03600   -2.99554   -2.44979        -9.851390       9.856559       0.005169
    806    8.03600   -2.99554   -0.93801       -10.287091      10.290712       0.003621
    807    8.03600   -2.99554    0.57377       -10.295120      10.298033       0.002913
    808    8.03600   -2.99554    2.08555        -9.874377       9.878178       0.003801
    809    8.03600   -2.99554    3.59733        -9.218393       9.223475       0.005082
    810    8.03600   -2.99554    5.10911        -8.494229       8.499638       0.005409
    811    8.03600   -1.48376   -5.47336        -8.729254       8.735702       0.006448
    812    8.03600   -1.48376   -3.96157        -9.554002       9.562410       0.008408
    813    8.03600   -1.48376    0.57377       -10.869912      10.873925       0.004013
    814    8.03600   -1.48376    2.08555       -10.372310      10.377168       0.004858
    815    8.03600   -1.48376    3.59733        -9.617569       9.624318       0.006749
    816    8.03600   -1.48376    5.10911        -8.803641       8.810267       0.006626
    817    8.03600    0.02802   -5.47336        -8.779588       8.786843       0.007254
    818    8.03600    0.02802   -3.96157        -9.609743       9.619622       0.009879
    819    8.03600    0.02802    0.57377       -10.917315      10.922256       0.004941
    820    8.03600    0.02802    2.08555       -10.459090      10.465737       0.006647
    821    8.03600    0.02802    3.59733        -9.725601       9.734006       0.008405
    822    8.03600    0.02802    5.10911        -8.906602       8.914162       0.007560
    823    8.03600    1.53981   -5.47336        -8.611081       8.618090       0.007010
    824    8.03600    1.53981   -3.96157        -9.369716       9.378158       0.008442
    825    8.03600    1.53981   -2.44979       -10.042183      10.051809       0.009626
    826    8.03600    1.53981   -0.93801       -10.471859      10.479632       0.007773
    827    8.03600    1.53981    0.57377       -10.512927      10.518446       0.005519
    828    8.03600    1.53981    2.08555       -10.163134      10.170363       0.007229
    829    8.03600    1.53981    3.59733        -9.538675       9.547095       0.008420
    830    8.03600    1.53981    5.10911        -8.789497       8.797061       0.007565
    831    8.03600    3.05159   -3.96157        -8.931163       8.938279       0.007116
    832    8.03600    3.05159   -2.44979        -9.488514       9.495674       0.007160
    833    8.03600    3.05159   -0.93801        -9.838877       9.845322       0.006444
    834    8.03600    3.05159    0.57377        -9.894344       9.900723       0.006378
    835    8.03600    3.05159    2.08555        -9.638177       9.645694       0.007517
    836    8.03600    3.05159    3.59733        -9.131696       9.139631       0.007935
    837    8.03600    3.05159    5.10911        -8.483692       8.490704       0.007012
    838    8.03600    4.56337   -2.44979        -8.831578       8.837874       0.006296
    839    8.03600    4.56337    0.57377        -9.170582       9.176886       0.006304
    840    8.03600    4.56337    2.08555        -8.980094       8.987057       0.006963
    841    8.03600    4.56337    3.59733        -8.577471       8.584443       0.006972
    842    8.03600    4.56337    5.10911        -8.039348       8.045467       0.006119
    843    8.03600    6.07515    0.57377        -8.403074       8.408601       0.005527
    844    8.03600    6.07515    2.08555        -8.259068       8.264824       0.005756
    845    8.03600    6.07515    3.59733        -7.945509       7.951147       0.005638
    846    9.54778   -4.50732   -2.44979        -7.977476       7.981384       0.003907
    847    9.54778   -4.50732   -0.93801        -8.176376       8.180207       0.003830
    848    9.54778   -4.50732    0.57377        -8.182351       8.186186       0.003835
    849    9.54778   -4.50732    2.08555        -7.994192       7.998133       0.003941
    850    9.54778   -2.99554   -3.96157        -8.021623       8.026402       0.004779
    851    9.54778   -2.99554   -2.44979        -8.435325       8.440099       0.004774
    852    9.54778   -2.99554   -0.93801        -8.681169       8.685382       0.004213
    853    9.54778   -2.99554    0.57377        -8.688507       8.692319       0.003813
    854    9.54778   -2.99554    2.08555        -8.457509       8.461551       0.004043
    855    9.54778   -2.99554    3.59733        -8.056924       8.061340       0.004416
    856    9.54778   -1.48376   -5.47336        -7.717233       7.722456       0.005224
    857    9.54778   -1.48376   -3.96157        -8.263202       8.269235       0.006033
    858    9.54778   -1.48376   -2.44979        -8.724828       8.731290       0.006461
    859    9.54778   -1.48376   -0.93801        -9.003518       9.009006       0.005489
    860    9.54778   -1.48376    0.57377        -9.013087       9.017404       0.004316
    861    9.54778   -1.48376    2.08555        -8.757086       8.761597       0.004512
    862    9.54778   -1.48376    3.59733        -8.316306       8.321362       0.005056
    863    9.54778    0.02802   -5.47336        -7.759270       7.764964       0.005694
    864    9.54778    0.02802   -3.96157        -8.310692       8.317403       0.006711
    865    9.54778    0.02802   -2.44979        -8.775501       8.782869       0.007369
    866    9.54778    0.02802   -0.93801        -9.056632       9.063051       0.006418
    867    9.54778    0.02802    0.57377        -9.072626       9.077693       0.005067
    868    9.54778    0.02802    2.08555        -8.825712       8.830929       0.005218
    869    9.54778    0.02802    3.59733        -8.389057       8.394753       0.005696
    870    9.54778    1.53981   -3.96157        -8.166364       8.172757       0.006394
    871    9.54778    1.53981   -2.44979        -8.594457       8.601191       0.006735
    872    9.54778    1.53981   -0.93801        -8.852409       8.858566       0.006157
    873    9.54778    1.53981    0.57377        -8.877232       8.882734       0.005502
    874    9.54778    1.53981    2.08555        -8.665431       8.671124       0.005694
    875    9.54778    1.53981    3.59733        -8.270174       8.276129       0.005955
    876    9.54778    3.05159   -2.44979        -8.247714       8.253622       0.005908
    877    9.54778    3.05159   -0.93801        -8.472924       8.478626       0.005701
    878    9.54778    3.05159    0.57377        -8.503257       8.508831       0.005574
    879   11.05956   -1.48376   -2.44979        -7.546522       7.551267       0.004745
    880   11.05956   -1.48376   -0.93801        -7.715716       7.720216       0.004501
    881   11.05956   -1.48376    0.57377        -7.724946       7.729140       0.004194
    882   11.05956    0.02802   -2.44979        -7.588301       7.593445       0.005144
    883   11.05956    0.02802   -0.93801        -7.760788       7.765695       0.004907
    884   11.05956    0.02802    0.57377        -7.773309       7.777882       0.004572

 NET CHARGES:
 -------------------------------------
 ATOM                CHARGE    E.S.D.
 -------------------------------------
 C                   0.0725    0.3557
 C                   0.5754    0.1651
 O                  -0.4802    0.0124
 C                  -0.3844    0.4448
 C                  -0.0080    0.3871
 C                  -0.1871    0.3694
 C                  -0.0925    0.3458
 C                   0.3214    0.3304
 C                  -0.4753    0.4848
 C                  -0.4704    0.4850
 C                  -0.3985    0.4468
 H                   0.1129    0.0321
 H                   0.1223    0.0294
 H                   0.0460    0.0322
 H                   0.0586    0.0264
 H                   0.0690    0.0254
 H                   0.0474    0.0254
 H                   0.0472    0.0254
 H                   0.1302    0.0445
 H                   0.1222    0.0335
 H                   0.1105    0.0351
 H                   0.1185    0.0354
 H                   0.1184    0.0319
 H                   0.1123    0.0399
 H                   0.1039    0.0306
 H                   0.1011    0.0313
 H                   0.1065    0.0303
 -------------------------------------

 RMS DEVIATION IS            0.589 KCAL/MOLE
 RELATIVE RMS DEVIATION IS   9.086 %

 MULTIPOLE MOMENTS:
 ---------------------------------------------------------
 STATUS  ACTUAL VALUE       QUANTITY        FITTED VALUE 
 ---------------------------------------------------------
 FIXED       0.0000       TOTAL CHARGE        -0.0000
             2.7438 D    DIPOLE MOMENT         2.7666 D
 FREE        2.6900 D          DX              2.7137 D
 FREE        0.5406 D          DY              0.5384 D
 FREE       -0.0071 D          DZ             -0.0121 D
 FREE        0.0000 BU         QXX           -10.4069 BU
 FREE        0.0000 BU         QYY             4.9431 BU
 FREE        0.0000 BU         QZZ             5.4638 BU
 FREE        0.0000 BU         QXY            -2.2528 BU
 FREE        0.0000 BU         QXZ            -0.2674 BU
 FREE        0.0000 BU         QYZ            -0.3450 BU
 ---------------------------------------------------------
 ...... END OF PROPERTY EVALUATION ......
 CPU     0: STEP CPU TIME=     0.50 TOTAL CPU TIME=         49.9 (      0.8 MIN)
 TOTAL WALL CLOCK TIME=         76.1 SECONDS, CPU UTILIZATION IS    65.65%
              1046272  WORDS OF DYNAMIC MEMORY USED
 EXECUTION OF GAMESS TERMINATED NORMALLY Mon May 25 18:14:31 2020
 DDI: 263640 bytes (0.3 MB / 0 MWords) used by master data server.
Note: The following floating-point exceptions are signalling: IEEE_UNDERFLOW_FLAGNote: The following floating-point exceptions are signalling: IEEE_UNDERFLOW_FLAGNote: The following floating-point exceptions are signalling: IEEE_UNDERFLOW_FLAGNote: The following floating-point exceptions are signalling: IEEE_DENORMAL

 ----------------------------------------
 CPU timing information for all processes
 ========================================
 0: 49.585 + 0.358 = 49.944
 1: 49.521 + 0.130 = 49.651
 2: 47.492 + 0.117 = 47.609
 3: 49.517 + 0.125 = 49.642
 4: 48.669 + 0.109 = 48.779
 5: 48.585 + 0.77 = 48.662
 ----------------------------------------
 IEEE_DENORMAL
 IEEE_DENORMAL
 IEEE_UNDERFLOW_FLAG IEEE_DENORMALNote: The following floating-point exceptions are signalling:Note: The following floating-point exceptions are signalling: IEEE_UNDERFLOW_FLAG
 IEEE_UNDERFLOW_FLAG IEEE_DENORMAL IEEE_DENORMAL

 ddikick.x: exited gracefully.
unset echo
----- accounting info -----
Files used on the master node pietdev were:
-rwxr-xr-x 1 piet piet     1255 mei 25 18:13 /home/piet/scr/camphor_charge_chelpg.F05*
-rw-r--r-- 1 piet piet 45875200 mei 25 18:14 /home/piet/scr/camphor_charge_chelpg.F10
ls: No match.
ls: No match.
ls: No match.
ma 25 mei 2020 18:14:34 CEST
0.128u 0.025s 1:19.22 0.1%	0+0k 0+8io 0pf+0w
