----- GAMESS execution script 'rungms' -----
This job is running on host pietdev
under operating system Linux at ma 25 mei 2020 19:39:31 CEST
Available scratch disk space (Kbyte units) at beginning of the job is
Filesystem     1K-blocks     Used Available Use% Mounted on
/dev/sda2      244568380 31071584 201003740  14% /
GAMESS temporary binary files will be written to /home/piet/scr
GAMESS supplementary output files will be written to /home/piet/gamess/scr
Copying input file rosmaricine_fukui_base.inp to your run's scratch directory...
cp rosmaricine_fukui_base.inp /home/piet/scr/rosmaricine_fukui_base.F05
unset echo
 
Assuming a single but multicore node.
 
/home/piet/gamess/ddikick.x /home/piet/gamess/gamess.03.x rosmaricine_fukui_base -ddi 1 6 pietdev:cpus=6 -scr /home/piet/scr

 Distributed Data Interface kickoff program.
 Initiating 6 compute processes on 1 nodes to run the following command:
 /home/piet/gamess/gamess.03.x rosmaricine_fukui_base 

          ******************************************************
          *         GAMESS VERSION = 30 SEP 2019 (R2)          *
          *             FROM IOWA STATE UNIVERSITY             *
          * M.W.SCHMIDT, K.K.BALDRIDGE, J.A.BOATZ, S.T.ELBERT, *
          *   M.S.GORDON, J.H.JENSEN, S.KOSEKI, N.MATSUNAGA,   *
          *          K.A.NGUYEN, S.J.SU, T.L.WINDUS,           *
          *       TOGETHER WITH M.DUPUIS, J.A.MONTGOMERY       *
          *         J.COMPUT.CHEM.  14, 1347-1363(1993)        *
          **************** 64 BIT LINUX VERSION ****************

  SINCE 1993, STUDENTS AND POSTDOCS WORKING AT IOWA STATE UNIVERSITY
  AND ALSO IN THEIR VARIOUS JOBS AFTER LEAVING ISU HAVE MADE IMPORTANT
  CONTRIBUTIONS TO THE CODE:
     IVANA ADAMOVIC, CHRISTINE AIKENS, YURI ALEXEEV, POOJA ARORA,
     ANDREY ASADCHEV, ROB BELL, PRADIPTA BANDYOPADHYAY, JONATHAN BENTZ,
     COLLEEN BERTONI, BRETT BODE, KURT BRORSEN, CALEB CARLIN, GALINA CHABAN,
     WEI CHEN, CHEOL HO CHOI, PAUL DAY, ALBERT DEFUSCO, NUWAN DESILVA,
     TIM DUDLEY, DMITRI FEDOROV, ALEX FINDLATER, GRAHAM FLETCHER, 
     MARK FREITAG, KURT GLAESEMANN, EMILIE B GUIDEZ, ANASTASIA GUNINA, 
     DAN KEMP, SAROM SOK LEANG, GRANT MERRILL,
     NORIYUKI MINEZAWA, JONATHAN MULLIN,
     TAKESHI NAGATA, SEAN NEDD, HEATHER NETZLOFF, BOSILJKA NJEGIC, RYAN OLSON,
     MIKE PAK, BUU PHAM, DAVID POOLE,
     SPENCER PRUITT, LUKE ROSKOP, TOSAPORN SATTASATHUCHANA,
     JIM SHOEMAKER, LYUDMILA SLIPCHENKO,
     TONY SMITH, JIE SONG, TETSUYA TAKETSUGU, SIMON WEBB,
     JORGE LUIS GALVEZ VALLEJO, PENG XU, SOOHAENG YOO,
     FEDERICO ZAHARIEV

  ADDITIONAL CODE HAS BEEN PROVIDED BY COLLABORATORS IN OTHER GROUPS:
     IOWA STATE UNIVERSITY:
          JOE IVANIC, AARON WEST, LAIMUTIS BYTAUTAS, KLAUS RUEDENBERG
     UNIVERSITY OF TOKYO: KIMIHIKO HIRAO, TAKAHITO NAKAJIMA,
          TAKAO TSUNEDA, MUNEAKI KAMIYA, SUSUMU YANAGISAWA,
          KIYOSHI YAGI, MAHITO CHIBA, SEIKEN TOKURA, NAOAKI KAWAKAMI
     UNIVERSITY OF AARHUS: FRANK JENSEN
     UNIVERSITY OF IOWA: VISVALDAS KAIRYS, HUI LI
     NATIONAL INST. OF STANDARDS AND TECHNOLOGY: WALT STEVENS, DAVID GARMER
     UNIVERSITY OF PISA: BENEDETTA MENNUCCI, JACOPO TOMASI
     UNIVERSITY OF MEMPHIS: HENRY KURTZ, PRAKASHAN KORAMBATH
     UNIVERSITY OF ALBERTA: TOBY ZENG, MARIUSZ KLOBUKOWSKI
     UNIVERSITY OF NEW ENGLAND: MARK SPACKMAN
     MIE UNIVERSITY: HIROAKI UMEDA
     NAT. INST. OF ADVANCED INDUSTRIAL SCIENCE AND TECHNOLOGY: KAZUO KITAURA
     MICHIGAN STATE UNIVERSITY:
          KAROL KOWALSKI, MARTA WLOCH, JEFFREY GOUR, JESSE LUTZ,
          WEI LI, JUN SHEN, J. EMILIANO DEUSTUA, PIOTR PIECUCH
     UNIVERSITY OF MINNESOTA:
          ANDREW SAND, PRACHI SHARMA, YINAN SHU
     UNIVERSITY OF SILESIA: MONIKA MUSIAL, STANISLAW KUCHARSKI
     FACULTES UNIVERSITAIRES NOTRE-DAME DE LA PAIX:
          OLIVIER QUINET, BENOIT CHAMPAGNE
     UNIVERSITY OF CALIFORNIA - SANTA BARBARA: BERNARD KIRTMAN
     INSTITUTE FOR MOLECULAR SCIENCE:
          KAZUYA ISHIMURA, MICHIO KATOUDA, AND SHIGERU NAGASE
     UNIVERSITY OF NOTRE DAME: ANNA POMOGAEVA, DAN CHIPMAN
     KYUSHU UNIVERSITY:
          HARUYUKI NAKANO,
          FENG LONG GU, JACEK KORCHOWIEC, MARCIN MAKOWSKI, AND YURIKO AOKI,
          HIROTOSHI MORI AND EISAKU MIYOSHI
     PENNSYLVANIA STATE UNIVERSITY:
          TZVETELIN IORDANOV, CHET SWALINA, JONATHAN SKONE,
          SHARON HAMMES-SCHIFFER
     WASEDA UNIVERSITY:
          MASATO KOBAYASHI, TOMOKO AKAMA, TSUGUKI TOUMA,
          TAKESHI YOSHIKAWA, YASUHIRO IKABATA, JUNJI SEINO,
          YUYA NAKAJIMA, HIROMI NAKAI
     NANJING UNIVERSITY: SHUHUA LI
     UNIVERSITY OF NEBRASKA:
          PEIFENG SU, DEJUN SI, NANDUN THELLAMUREGE, YALI WANG, HUI LI
     UNIVERSITY OF ZURICH: ROBERTO PEVERATI, KIM BALDRIDGE
     N. COPERNICUS UNIVERSITY AND JACKSON STATE UNIVERSITY:
          MARIA BARYSZ
     UNIVERSITY OF COPENHAGEN: Jimmy Kromann, CASPER STEINMANN
     TOKYO INSTITUTE OF TECHNOLOGY: HIROYA NAKATA
     NAGOYA UNIVERSITY: YOSHIO NISHIMOTO, STEPHAN IRLE
     MOSCOW STATE UNIVERSITY: VLADIMIR MIRONOV
     A.N.NESMEYANOV INSTITUTE OF ORGANOELEMENT COMPOUNDS OF RUSSIAN ACADEMY OF SCIENCES:
          IGOR S. GERASIMOV
     JOHANNES KEPLER UNIVERSITY LINZ:
          CHRISTIAN FRIEDL


 PARALLEL VERSION RUNNING ON        6 PROCESSORS IN        1 NODES.

 EXECUTION OF GAMESS BEGUN Mon May 25 19:39:32 2020

            ECHO OF THE FIRST FEW INPUT CARDS -
 INPUT CARD> $BASIS GBASIS=N21 NGAUSS=3 $END                                                
 INPUT CARD> $CONTRL SCFTYP=UHF MAXIT=60 MULT=2 ICHARG=1 $END                               
 INPUT CARD> $SYSTEM MEMDDI=1000 MWORDS=30 $END                                             
 INPUT CARD> $SCF DIRSCF=.TRUE. $END                                                        
 INPUT CARD> $STATPT OPTTOL=0.0001 NSTEP=999 $END                                           
 INPUT CARD> $DATA                                                                          
 INPUT CARD>                                                                                
 INPUT CARD>C1                                                                              
 INPUT CARD>C 6.0000000 4.74689 5.89464 -1.55306                                            
 INPUT CARD>C 6.0000000 4.79858 7.22714 -0.78281                                            
 INPUT CARD>C 6.0000000 4.04532 7.13945 0.55382                                             
 INPUT CARD>C 6.0000000 2.58457 6.70120 0.33912                                             
 INPUT CARD>C 6.0000000 2.60187 5.36744 -0.45279                                            
 INPUT CARD>C 6.0000000 1.18016 4.88511 -0.13076                                            
 INPUT CARD>C 6.0000000 0.04290 5.67468 -0.78644                                            
 INPUT CARD>N 7.0000000 -0.26001 5.07852 -2.10266                                           
 INPUT CARD>C 6.0000000 -2.24794 9.74314 -3.22335                                           
 INPUT CARD>C 6.0000000 -1.42622 10.36518 -2.08284                                          
 INPUT CARD>C 6.0000000 -2.35498 10.94300 -0.99228                                          
 INPUT CARD>C 6.0000000 2.67802 6.24593 -2.95504                                            
 INPUT CARD>C 6.0000000 3.30503 5.37723 -1.84408                                            
 INPUT CARD>C 6.0000000 3.38613 3.92652 -2.36351                                            
 INPUT CARD>O 8.0000000 0.92156 11.28001 -0.78970                                           
 INPUT CARD>C 6.0000000 0.73357 9.92827 -0.84078                                            
 INPUT CARD>C 6.0000000 -0.40524 9.41359 -1.47340                                           
 INPUT CARD>C 6.0000000 -0.56409 8.02609 -1.43112                                           
 INPUT CARD>C 6.0000000 0.37468 7.16283 -0.85626                                            
 INPUT CARD>C 6.0000000 1.55984 7.68359 -0.27770                                            
 INPUT CARD>C 6.0000000 1.67127 9.08248 -0.22611                                            
 INPUT CARD>O 8.0000000 2.71244 9.77455 0.38651                                             
 INPUT CARD>O 8.0000000 1.99764 6.66106 2.74492                                             
 INPUT CARD>C 6.0000000 1.90176 6.21377 1.62677                                             
 INPUT CARD>O 8.0000000 1.10464 5.15143 1.31658                                             
 INPUT CARD>H 1.0000000 5.28271 5.99346 -2.50536                                            
 INPUT CARD>H 1.0000000 5.28662 5.13251 -0.97116                                            
 INPUT CARD>H 1.0000000 5.84497 7.49293 -0.58943                                            
 INPUT CARD>H 1.0000000 4.38399 8.04034 -1.39039                                            
 INPUT CARD>H 1.0000000 4.51288 6.36352 1.17429                                             
 INPUT CARD>H 1.0000000 4.14880 8.06431 1.11947                                             
 INPUT CARD>H 1.0000000 3.23875 4.69747 0.14497                                             
 INPUT CARD>H 1.0000000 1.02740 3.81054 -0.24912                                            
 INPUT CARD>H 1.0000000 -0.81815 5.57635 -0.10431                                           
 INPUT CARD>H 1.0000000 -0.86821 4.27086 -1.98954                                           
 INPUT CARD>H 1.0000000 -0.74841 5.73746 -2.70145                                           
 INPUT CARD>H 1.0000000 -2.91040 8.94658 -2.86402                                           
 INPUT CARD>H 1.0000000 -2.88495 10.50829 -3.68015                                          
 INPUT CARD>H 1.0000000 -1.60436 9.32668 -4.00578                                           
 INPUT CARD>H 1.0000000 -0.85889 11.20472 -2.50335                                          
 INPUT CARD>H 1.0000000 -1.78023 11.43646 -0.20317                                          
 INPUT CARD>H 1.0000000 -3.04233 11.68018 -1.42370                                          
   30000000 WORDS OF MEMORY AVAILABLE

     BASIS OPTIONS
     -------------
     GBASIS=N21          IGAUSS=       3      POLAR=NONE    
     NDFUNC=       0     NFFUNC=       0     DIFFSP=       F
     NPFUNC=       0      DIFFS=       F     BASNAM=        


     RUN TITLE
     ---------
                                                                                 

 THE POINT GROUP OF THE MOLECULE IS C1      
 THE ORDER OF THE PRINCIPAL AXIS IS     0

 ATOM      ATOMIC                      COORDINATES (BOHR)
           CHARGE         X                   Y                   Z
 C           6.0     8.9703213939       11.1392543963       -2.9348578425
 C           6.0     9.0680013302       13.6573142749       -1.4792964004
 C           6.0     7.6445463327       13.4916042030        1.0465680465
 C           6.0     4.8841290961       12.6634317889        0.6408438770
 C           6.0     4.9168213557       10.1429908555       -0.8556490300
 C           6.0     2.2301790217        9.2315193199       -0.2471005702
 C           6.0     0.0810692449       10.7235902680       -1.4861561058
 N           7.0    -0.4913476541        9.5970112232       -3.9734512453
 C           6.0    -4.2479906368       18.4118648600       -6.0912482625
 C           6.0    -2.6951649982       19.5873500134       -3.9359968763
 C           6.0    -4.4502669066       20.6792714836       -1.8751373031
 C           6.0     5.0607239896       11.8030962385       -5.5842158828
 C           6.0     6.2456010812       10.1614912730       -3.4848058994
 C           6.0     6.3988578588        7.4200468853       -4.4663862692
 O           8.0     1.7414958812       21.3161280388       -1.4923166125
 C           6.0     1.3862462928       18.7617098321       -1.5888438160
 C           6.0    -0.7657925593       17.7891056608       -2.7843222703
 C           6.0    -1.0659755324       15.1671108528       -2.7044246555
 C           6.0     0.7080425331       13.5357859966       -1.6180967742
 C           6.0     2.9476701847       14.5198797020       -0.5247769068
 C           6.0     3.1582423515       17.1633984890       -0.4272859431
 O           8.0     5.1257683581       18.4712211533        0.7303979915
 O           8.0     3.7749922221       12.5875781878        5.1871466582
 C           6.0     3.5938052944       11.7423226507        3.0741495450
 O           8.0     2.0874669151        9.7347911449        2.4879754409
 H           1.0     9.9828743726       11.3259971184       -4.7344439006
 H           1.0     9.9902632012        9.6990375292       -1.8352262902
 H           1.0    11.0453917065       14.1595845452       -1.1138611889
 H           1.0     8.2845398329       15.1940394481       -2.6274561161
 H           1.0     8.5281066155       12.0253091174        2.2190863301
 H           1.0     7.8400951779       15.2393361800        2.1154915515
 H           1.0     6.1203500427        8.8769311355        0.2739535764
 H           1.0     1.9415044798        7.2008764653       -0.4707685381
 H           1.0    -1.5460793169       10.5377735116       -0.1971173178
 H           1.0    -1.6406789998        8.0707551319       -3.7596854416
 H           1.0    -1.4142898265       10.8422272655       -5.1050002695
 H           1.0    -5.4998585147       16.9065847272       -5.4122130234
 H           1.0    -5.4517649883       19.8577886995       -6.9544750937
 H           1.0    -3.0318007857       17.6248695752       -7.5698265671
 H           1.0    -1.6230667536       21.1738505691       -4.7306455514
 H           1.0    -3.3641468951       21.6117756695       -0.3839356289
 H           1.0    -5.7491700642       22.0723396873       -2.6904028887
 H           1.0    -5.5836678622       19.1769204261       -1.0074318213
 H           1.0     4.9257408623       13.7970595117       -5.0715899141
 H           1.0     6.2533489578       11.6704374742       -7.2749348267
 H           1.0     3.1755522415       11.1284640609       -6.0726344615
 H           1.0     7.2379150946        6.1492439531       -3.0587482782
 H           1.0     4.5215095763        6.7037651469       -4.9611354301
 H           1.0     7.5762138409        7.3325714693       -6.1688782061
 H           1.0     3.2849295817       21.6107552175       -0.5416332626
 H           1.0    -2.7793711882       14.3611049245       -3.4981851594
 H           1.0     5.3532157780       17.8646380085        2.4388047707

          INTERNUCLEAR DISTANCES (ANGS.)
          ------------------------------

                1 C          2 C          3 C          4 C          5 C     

   1 C       0.0000000    1.5399718 *  2.5457211 *  2.9843780 *  2.4677206 *
   2 C       1.5399718 *  0.0000000    1.5367726 *  2.5371598 *  2.8970558 *
   3 C       2.5457211 *  1.5367726 *  0.0000000    1.5401135 *  2.4973648 *
   4 C       2.9843780 *  2.5371598 *  1.5401135 *  0.0000000    1.5512371 *
   5 C       2.4677206 *  2.8970558 *  2.4973648 *  1.5512371 *  0.0000000  
   6 C       3.9703465    4.3592702    3.7094259    2.3433603 *  1.5354494 *
   7 C       4.7711226    5.0026630    4.4677974    2.9632271 *  2.5988548 *
   8 N       5.1026620    5.6522478    5.4626170    4.0849743    3.3160071  
   9 C       8.1564985    7.8701929    7.7878968    6.7303599    7.0953090  
  10 C       7.6402671    7.0912275    6.8771404    5.9478632    6.6226866  
  11 C       8.7313785    8.0638027    7.6040291    6.6456488    7.4798583  
  12 C       2.5237226 *  3.1903183    3.8703987    3.3267843    2.6530734 *
  13 C       1.5592838 *  2.6036806 *  3.0664920    2.6529835 *  1.5589156 *
  14 C       2.5262607 *  3.9227184    4.3895632    3.9554464    2.5183656 *
  15 O       6.6496675    5.6086618    5.3579063    5.0005338    6.1559267  
  16 C       5.7344792    4.8809600    4.5486387    3.9028638    4.9439105  
  17 C       6.2396954    5.6865825    5.3934050    4.4250709    5.1435090  
  18 C       5.7240245    5.4604813    5.0963495    3.8474853    4.2483941  
  19 C       4.6054377    4.4249770    3.9322348    2.5545351 *  2.8890463 *
  20 C       3.8709395    3.3095195    2.6767751 *  1.5477818 *  2.5457875 *
  21 C       4.6241279    3.6786233    3.1654020    2.6122971 *  3.8365248  
  22 O       4.7910980    3.4940789    2.9577548 *  3.0763740    4.4876797  
  23 O       5.1593030    4.5398888    3.0369013    2.4766856 *  3.5019846  
  24 C       4.2787764    3.9018663    2.5696215 *  1.5368344 *  2.3518074 *
  25 O       4.6960813    4.7287634    3.6306508    2.3552936 *  2.3278806 *
  26 H       1.0971526 *  2.1733676 *  3.4932806    3.9839581    3.4339260  
  27 H       1.1003446 *  2.1589659 *  2.8096615 *  3.3880225    2.7444092 *
  28 H       2.1653853 *  1.0968009 *  2.1611823 *  3.4812713    3.8799582  
  29 H       2.1822434 *  1.0965093 *  2.1693899 *  2.8323865 *  3.3465564  
  30 H       2.7772373 *  2.1581715 *  1.0980267 *  2.1283600 *  2.7002822 *
  31 H       3.4939371    2.1775530 *  1.0890519 *  2.2167161 *  3.4839779  
  32 H       2.5672959 *  3.1133705    2.6040315 *  2.1167380 *  1.1008147 *
  33 H       4.4585130    5.1166179    4.5644491    3.3356738    2.2235950 *
  34 H       5.7593277    5.8934816    5.1507045    3.6111523    3.4440700  
  35 H       5.8614439    6.5044829    6.2321959    4.8219187    3.9503852  
  36 H       5.6162111    6.0555284    5.9617284    4.6133086    4.0518838  
  37 H       8.3466786    8.1680035    7.9579765    6.7451117    7.0006710  
  38 H       9.1681656    8.8429157    8.7922823    7.7822949    8.1822604  
  39 H       7.6245072    7.4694876    7.5824014    6.5816742    6.7817173  
  40 H       7.7797667    7.1265958    7.0656906    6.3418250    7.0891109  
  41 H       8.6681756    7.8316728    7.2783488    6.4628357    7.4898674  
  42 H       9.7036671    9.0399212    8.6465945    7.7174983    8.5235172  
  43 H       8.8570053    8.2890193    7.6963439    6.5821890    7.3304935  
  44 H       2.7995519 *  2.9024021 *  3.5465561    3.0819177    2.9523374 *
  45 H       2.7241253 *  3.5679017    4.5674922    4.2834064    3.5626887  
  46 H       3.4871579    4.1739573    4.6205200    3.7547784    2.9567758 *
  47 H       2.7959787 *  4.1739643    4.4567038    4.1553703    2.7081851 *
  48 H       3.4930225    4.7668748    5.0734996    4.3325138    2.8418131 *
  49 H       2.7442450 *  4.2406872    5.0202446    4.7930054    3.4781573  
  50 H       6.4312680    5.2273594    4.9485643    4.8502866    6.1318674  
  51 H       6.4540739    6.3706319    6.0351469    4.6957703    4.8501877  
  52 H       4.9412374    3.6221679    2.7144236 *  2.9227285 *  4.4484800  

                6 C          7 C          8 N          9 C         10 C     

   1 C       3.9703465    4.7711226    5.1026620    8.1564985    7.6402671  
   2 C       4.3592702    5.0026630    5.6522478    7.8701929    7.0912275  
   3 C       3.7094259    4.4677974    5.4626170    7.7878968    6.8771404  
   4 C       2.3433603 *  2.9632271 *  4.0849743    6.7303599    5.9478632  
   5 C       1.5354494 *  2.5988548 *  3.3160071    7.0953090    6.6226866  
   6 C       0.0000000    1.5318934 *  2.4494666 *  6.7019727    6.3745588  
   7 C       1.5318934 *  0.0000000    1.4763456 *  5.2667680    5.0832821  
   8 N       2.4494666 *  1.4763456 *  0.0000000    5.1929271    5.4137983  
   9 C       6.7019727    5.2667680    5.1929271    0.0000000    1.5371794 *
  10 C       6.3745588    5.0832821    5.4137983    1.5371794 *  0.0000000  
  11 C       7.0666444    5.7920112    6.3256595    2.5355068 *  1.5446010 *
  12 C       3.4744745    3.4602037    3.2743577    6.0471109    5.8799438  
  13 C       2.7735753 *  3.4421753    3.5868651    7.1971544    6.8790536  
  14 C       3.2818243    4.0890586    3.8326862    8.1434107    8.0432475  
  15 O       6.4339585    5.6737799    6.4481354    4.2813960    2.8321716 *
  16 C       5.1124391    4.3096410    5.1087785    3.8210358    2.5294854 *
  17 C       4.9822993    3.8278181    4.3829091    2.5625127 *  1.5229382 *
  18 C       3.8208768    2.5126039 *  3.0383547    2.9992832 *  2.5766934 *
  19 C       2.5225298 *  1.5262841 *  2.5101180 *  4.3748429    3.8733428  
  20 C       2.8279389 *  2.5681983 *  3.6645222    5.2361998    4.4006829  
  21 C       4.2270788    3.8182011    4.8252438    4.9779641    3.8323896  
  22 O       5.1499586    5.0310227    6.0896736    6.1349365    4.8554135  
  23 O       3.4773276    4.1550520    5.5767776    7.9463459    6.9821622  
  24 C       2.3183951 *  3.0934707    4.4576552    7.2938417    6.4862055  
  25 O       1.4735748 *  2.4132500 *  3.6822259    7.2756139    6.7189655  
  26 H       4.8680675    5.5237592    5.6321424    8.4431214    8.0187406  
  27 H       4.1988680    5.2749094    5.6611228    9.1159126    8.5836408  
  28 H       5.3639123    6.0834910    6.7372117    8.8031910    7.9592900  
  29 H       4.6697613    4.9805788    5.5539574    7.0881426    6.2962615  
  30 H       3.8724507    4.9294710    5.9304389    8.7446987    7.8673431  
  31 H       4.5258382    5.1187146    6.2237183    7.9118164    6.8285899  
  32 H       2.0854325 *  3.4692825    4.1759264    8.1797391    7.6712463  
  33 H       1.0918083 *  2.1755392 *  2.5885920 *  7.4006513    7.2350595  
  34 H       2.1146525 *  1.1028949 *  2.1337192 *  5.3976707    5.2170128  
  35 H       2.8334053 *  2.0611360 *  1.0173584 *  5.7768322    6.1205242  
  36 H       3.3248052    2.0730114 *  1.0155225 *  4.3088794    4.7178276  
  37 H       6.3795713    4.8727455    4.7503815    1.0965761 *  2.1966926 *
  38 H       7.7938079    6.3489880    6.2338742    1.0954006 *  2.1678960 *
  39 H       6.5189628    5.1395252    4.8452044    1.0953679 *  2.1926957 *
  40 H       7.0515515    5.8602344    6.1684306    2.1410455 *  1.0970503 *
  41 H       7.1895298    6.0714179    6.8075350    3.4939337    2.1922872 *
  42 H       8.1039553    6.7816499    7.1961244    2.7607824 *  2.1852922 *
  43 H       6.7050184    5.3907870    5.9518600    2.8108495 *  2.1875188 *
  44 H       3.7933523    3.5801644    3.6735408    5.4608805    5.1003256  
  45 H       4.4753716    4.5058912    4.1224851    6.6332340    6.5648253  
  46 H       3.2804284    2.9356478 *  2.3782425 *  5.5033737    5.5647534  
  47 H       3.4491319    4.5711277    4.5047030    9.0347459    8.8551190  
  48 H       3.0793325    3.6644134    3.1070921    7.7639678    7.8332187  
  49 H       4.3396904    5.0091620    4.5838217    8.5747712    8.5436577  
  50 H       6.5763923    6.0262859    6.9070847    5.2325975    3.7930384  
  51 H       4.1659995    2.6702167 *  2.8080081 *  2.6611605 *  2.7756549 *
  52 H       5.0618282    5.1358938    6.3419548    6.8024377    5.5090952  

               11 C         12 C         13 C         14 C         15 O     

   1 C       8.7313785    2.5237226 *  1.5592838 *  2.5262607 *  6.6496675  
   2 C       8.0638027    3.1903183    2.6036806 *  3.9227184    5.6086618  
   3 C       7.6040291    3.8703987    3.0664920    4.3895632    5.3579063  
   4 C       6.6456488    3.3267843    2.6529835 *  3.9554464    5.0005338  
   5 C       7.4798583    2.6530734 *  1.5589156 *  2.5183656 *  6.1559267  
   6 C       7.0666444    3.4744745    2.7735753 *  3.2818243    6.4339585  
   7 C       5.7920112    3.4602037    3.4421753    4.0890586    5.6737799  
   8 N       6.3256595    3.2743577    3.5868651    3.8326862    6.4481354  
   9 C       2.5355068 *  6.0471109    7.1971544    8.1434107    4.2813960  
  10 C       1.5446010 *  5.8799438    6.8790536    8.0432475    2.8321716 *
  11 C       0.0000000    7.1586299    7.9836754    9.1690571    3.3000498  
  12 C       7.1586299    0.0000000    1.5433773 *  2.4961952 *  5.7546338  
  13 C       7.9836754    1.5433773 *  0.0000000    1.5430309 *  6.4525544  
  14 C       9.1690571    2.4961952 *  1.5430309 *  0.0000000    7.9135832  
  15 O       3.3000498    5.7546338    6.4525544    7.9135832    0.0000000  
  16 C       3.2545000    4.6701830    5.3226856    6.7361550    1.3657051 *
  17 C       2.5242935 *  4.6621689    5.4950623    6.7286492    2.3898468 *
  18 C       3.4508306    4.0003224    4.7071313    5.7688875    3.6340846  
  19 C       4.6646790    3.2482239    3.5708692    4.6705820    4.1538752  
  20 C       5.1439473    3.2381078    3.2891535    4.6692091    3.6883305  
  21 C       4.5010266    4.0628340    4.3607197    5.8389337    2.3893172 *
  22 O       5.3800634    4.8598663    4.9661975    6.4973782    2.6186124 *
  23 O       7.1586992    5.7554143    4.9412963    5.9583278    5.9149122  
  24 C       6.8807612    4.6472139    3.8361133    4.8329289    5.6979739  
  25 O       7.1303638    4.6819005    3.8577809    4.4998515    6.4830106  
  26 H       9.2261404    2.6552520 *  2.1744537 *  2.8088037 *  7.0647526  
  27 H       9.5998068    3.4612538    2.1791228 *  2.6466796 *  7.5417792  
  28 H       8.9053047    4.1449598    3.5357642    4.6810826    6.2146640  
  29 H       7.3483089    2.9288855 *  2.9089765 *  4.3435242    4.7796142  
  30 H       8.5342348    4.5201665    3.3973853    4.4412344    6.3973987  
  31 H       7.4192654    4.6980136    4.0883952    5.4620620    4.9397100  
  32 H       8.4610755    3.5103003    2.1030422 *  2.6284133 *  7.0407961  
  33 H       7.9287305    3.9972083    3.1915534    3.1698113    7.4897537  
  34 H       5.6525454    4.5605048    4.4796274    5.0499400    6.0023402  
  35 H       6.9081448    4.1723901    4.3198548    4.2846041    7.3328764  
  36 H       5.7096389    3.4732222    4.1587528    4.5263814    6.0961831  
  37 H       2.7924174 *  6.2074337    7.2396206    8.0683209    4.9428349  
  38 H       2.7738937 *  7.0455754    8.2471075    9.1858414    4.8414638  
  39 H       3.5010146    5.3790198    6.6613221    7.5341734    4.5319908  
  40 H       2.1424554 *  6.1076472    7.1925313    8.4268586    2.4723000 *
  41 H       1.0938624 *  7.3749836    8.0787823    9.3678996    2.7691449 *
  42 H       1.0963611 *  8.0373179    8.9550476   10.1157098    4.0341686  
  43 H       1.0966321 *  7.2677311    7.9789497    9.0699400    4.0463671  
  44 H       6.3829322    1.0918115 *  2.2122692 *  3.4782139    4.7179054  
  45 H       7.9356175    1.0971317 *  2.1587614 *  2.6969843 *  6.4123278  
  46 H       6.8382729    1.0906128 *  2.1855144 *  2.7354979 *  5.9593988  
  47 H       9.8877761    3.4734428    2.1987516 *  1.0973766 *  8.5768957  
  48 H       8.9387254    2.7334532 *  2.1887676 *  1.0950610 *  8.0824325  
  49 H       9.7748485    2.7320674 *  2.1804133 *  1.0963421 *  8.3913233  
  50 H       4.1828159    5.9109658    6.4488772    7.9636594    0.9718426 *
  51 H       3.5634265    4.5014924    5.2675617    6.1109225    4.5161517  
  52 H       5.8602774    5.3233417    5.1638586    6.6488024    3.3639619  

               16 C         17 C         18 C         19 C         20 C     

   1 C       5.7344792    6.2396954    5.7240245    4.6054377    3.8709395  
   2 C       4.8809600    5.6865825    5.4604813    4.4249770    3.3095195  
   3 C       4.5486387    5.3934050    5.0963495    3.9322348    2.6767751 *
   4 C       3.9028638    4.4250709    3.8474853    2.5545351 *  1.5477818 *
   5 C       4.9439105    5.1435090    4.2483941    2.8890463 *  2.5457875 *
   6 C       5.1124391    4.9822993    3.8208768    2.5225298 *  2.8279389 *
   7 C       4.3096410    3.8278181    2.5126039 *  1.5262841 *  2.5681983 *
   8 N       5.1087785    4.3829091    3.0383547    2.5101180 *  3.6645222  
   9 C       3.8210358    2.5625127 *  2.9992832 *  4.3748429    5.2361998  
  10 C       2.5294854 *  1.5229382 *  2.5766934 *  3.8733428    4.4006829  
  11 C       3.2545000    2.5242935 *  3.4508306    4.6646790    5.1439473  
  12 C       4.6701830    4.6621689    4.0003224    3.2482239    3.2381078  
  13 C       5.3226856    5.4950623    4.7071313    3.5708692    3.2891535  
  14 C       6.7361550    6.7286492    5.7688875    4.6705820    4.6692091  
  15 O       1.3657051 *  2.3898468 *  3.6340846    4.1538752    3.6883305  
  16 C       0.0000000    1.4007112 *  2.3771225 *  2.7886735 *  2.4573094 *
  17 C       1.4007112 *  0.0000000    1.3972033 *  2.4607027 *  2.8782178 *
  18 C       2.3771225 *  1.3972033 *  0.0000000    1.3989178 *  2.4410577 *
  19 C       2.7886735 *  2.4607027 *  1.3989178 *  0.0000000    1.4179305 *
  20 C       2.4573094 *  2.8782178 *  2.4410577 *  1.4179305 *  0.0000000  
  21 C       1.4044434 *  2.4448435 *  2.7504260 *  2.4006855 *  1.4042690 *
  22 O       2.3336232 *  3.6482168    4.1347963    3.7189623    2.4782606 *
  23 O       5.0129611    5.5807237    5.0857721    3.9817420    3.2207869  
  24 C       4.6098786    5.0171856    4.3261543    3.0656363    2.4298737 *
  25 O       5.2545309    5.3131661    4.3125613    3.0495582    3.0266764  
  26 H       6.2408518    6.7167705    6.2825669    5.3080802    4.6560466  
  27 H       6.6141195    7.1398292    6.5433306    5.3162539    4.5692215  
  28 H       5.6674922    6.5981409    6.4860428    5.4867328    4.3006820  
  29 H       4.1463137    4.9829138    4.9482681    4.1388266    3.0563332  
  30 H       5.5723544    6.3640470    5.9437299    4.6783255    3.5456036  
  31 H       4.3566871    5.4113595    5.3589460    4.3543262    2.9664365 *
  32 H       5.8829328    6.1757244    5.2938986    3.9093936    3.4517099  
  33 H       6.1532933    5.9114709    4.6584146    3.4687909    3.9095812  
  34 H       4.6786142    4.0950352    2.7975342 *  2.1225435 *  3.1820372  
  35 H       5.9909629    5.1892594    3.8086841    3.3455328    4.5246601  
  36 H       4.8188428    3.8909901    2.6240311 *  2.5879986 *  3.8716927  
  37 H       4.2820244    2.9030586 *  2.8992542 *  4.2431845    5.3166945  
  38 H       4.6359608    3.4952933    4.0750269    5.4581723    6.2699086  
  39 H       3.9805844    2.8032821 *  3.0663611    4.3032920    5.1585353  
  40 H       2.6323739 *  2.1153586 *  3.3675322    4.5355788    4.8168589  
  41 H       3.0000623    2.7560996 *  3.8232815    4.8305359    5.0245055  
  42 H       4.2031423    3.4776636    4.4152126    5.6924860    6.2020977  
  43 H       3.7076464    2.8148694 *  3.3202616    4.4833816    5.1497597  
  44 H       3.7157625    3.8728248    3.4853936    2.8879631 *  2.6516343 *
  45 H       5.4560834    5.4705782    4.9270011    4.3065329    4.2535933  
  46 H       4.7793945    4.4498534    3.5752205    2.9806685 *  3.4430028  
  47 H       7.3985895    7.4766028    6.4897515    5.2725739    5.1549240  
  48 H       6.8302057    6.6004941    5.4978678    4.5025163    4.8282862  
  49 H       7.2926235    7.3015607    6.4392388    5.4574894    5.4208184  
  50 H       1.8946251 *  3.1769596    4.2705815    4.5214240    3.7565824  
  51 H       3.3619742    2.1374627 *  1.0864804 *  2.1415626 *  3.4157713  
  52 H       3.0289811    4.2574612    4.5808377    3.9873091    2.6856397 *

               21 C         22 O         23 O         24 C         25 O     

   1 C       4.6241279    4.7910980    5.1593030    4.2787764    4.6960813  
   2 C       3.6786233    3.4940789    4.5398888    3.9018663    4.7287634  
   3 C       3.1654020    2.9577548 *  3.0369013    2.5696215 *  3.6306508  
   4 C       2.6122971 *  3.0763740    2.4766856 *  1.5368344 *  2.3552936 *
   5 C       3.8365248    4.4876797    3.5019846    2.3518074 *  2.3278806 *
   6 C       4.2270788    5.1499586    3.4773276    2.3183951 *  1.4735748 *
   7 C       3.8182011    5.0310227    4.1550520    3.0934707    2.4132500 *
   8 N       4.8252438    6.0896736    5.5767776    4.4576552    3.6822259  
   9 C       4.9779641    6.1349365    7.9463459    7.2938417    7.2756139  
  10 C       3.8323896    4.8554135    6.9821622    6.4862055    6.7189655  
  11 C       4.5010266    5.3800634    7.1586992    6.8807612    7.1303638  
  12 C       4.0628340    4.8598663    5.7554143    4.6472139    4.6819005  
  13 C       4.3607197    4.9661975    4.9412963    3.8361133    3.8577809  
  14 C       5.8389337    6.4973782    5.9583278    4.8329289    4.4998515  
  15 O       2.3893172 *  2.6186124 *  5.9149122    5.6979739    6.4830106  
  16 C       1.4044434 *  2.3336232 *  5.0129611    4.6098786    5.2545309  
  17 C       2.4448435 *  3.6482168    5.5807237    5.0171856    5.3131661  
  18 C       2.7504260 *  4.1347963    5.0857721    4.3261543    4.3125613  
  19 C       2.4006855 *  3.7189623    3.9817420    3.0656363    3.0495582  
  20 C       1.4042690 *  2.4782606 *  3.2207869    2.4298737 *  3.0266764  
  21 C       0.0000000    1.3922281 *  3.8466624    3.4228332    4.2607647  
  22 O       1.3922281 *  0.0000000    3.9707501    3.8567604    4.9822976  
  23 O       3.8466624    3.9707501    0.0000000    1.2081063 *  2.2619874 *
  24 C       3.4228332    3.8567604    1.2081063 *  0.0000000    1.3638858 *
  25 O       4.2607647    4.9822976    2.2619874 *  1.3638858 *  0.0000000  
  26 H       5.2706284    5.4097913    6.2291905    5.3435810    5.7247278  
  27 H       5.4063036    5.4788873    5.1926010    4.4017770    4.7668720  
  28 H       4.4808975    3.9963725    5.1586671    4.7007125    5.6201624  
  29 H       3.1305676    2.9931484 *  4.9696950    4.3128967    5.1407805  
  30 H       4.1747588    3.9366619    2.9802418 *  2.6542628 *  3.6201531  
  31 H       2.9975674 *  2.3505917 *  3.0395210    2.9548334 *  4.2178943  
  32 H       4.6715101    5.1099985    3.4865140    2.5064794 *  2.4765248 *
  33 H       5.3111627    6.2299920    4.2463049    3.1715900    2.0628545 *
  34 H       4.3017432    5.5073454    4.1501061    3.2864651    2.4282930 *
  35 H       5.7192946    6.9826407    6.0283716    4.9523056    3.9494266  
  36 H       4.8136595    6.1490711    6.1690172    5.0974269    4.4633833  
  37 H       5.2885478    6.5473513    7.7956825    7.1268737    6.9282845  
  38 H       5.8925773    6.9575048    8.9399322    8.3377991    8.3414680  
  39 H       5.0075234    6.1747519    8.1025850    7.3286224    7.2868999  
  40 H       4.0114130    4.8115564    7.5065936    7.0419217    7.4222392  
  41 H       4.1778703    4.8263600    6.7652037    6.6469709    7.0805167  
  42 H       5.5136460    6.3265839    8.2444076    7.9769061    8.2055512  
  43 H       4.7570602    5.7534512    6.8869680    6.6127799    6.6981798  
  44 H       3.1762032    3.9440877    5.5001031    4.5010893    4.7832721  
  45 H       4.9256881    5.5904627    6.7412877    5.6545725    5.7096169  
  46 H       4.3730246    5.3965878    6.0166083    4.8562045    4.6256962  
  47 H       6.3694989    6.9128034    5.8314941    4.7969998    4.4321370  
  48 H       6.0755959    6.9245770    6.2201218    5.0428538    4.4463781  
  49 H       6.4622382    7.0536412    6.9203696    5.8146695    5.5711613  
  50 H       2.3551721 *  2.0401430 *  5.6618703    5.5640478    6.5166404  
  51 H       3.8356600    5.2189112    5.8339258    5.0388952    4.7603313  
  52 H       1.9460576 *  0.9668648 *  3.2574087    3.3876411    4.6363279  

               26 H         27 H         28 H         29 H         30 H     

   1 C       1.0971526 *  1.1003446 *  2.1653853 *  2.1822434 *  2.7772373 *
   2 C       2.1733676 *  2.1589659 *  1.0968009 *  1.0965093 *  2.1581715 *
   3 C       3.4932806    2.8096615 *  2.1611823 *  2.1693899 *  1.0980267 *
   4 C       3.9839581    3.3880225    3.4812713    2.8323865 *  2.1283600 *
   5 C       3.4339260    2.7444092 *  3.8799582    3.3465564    2.7002822 *
   6 C       4.8680675    4.1988680    5.3639123    4.6697613    3.8724507  
   7 C       5.5237592    5.2749094    6.0834910    4.9805788    4.9294710  
   8 N       5.6321424    5.6611228    6.7372117    5.5539574    5.9304389  
   9 C       8.4431214    9.1159126    8.8031910    7.0881426    8.7446987  
  10 C       8.0187406    8.5836408    7.9592900    6.2962615    7.8673431  
  11 C       9.2261404    9.5998068    8.9053047    7.3483089    8.5342348  
  12 C       2.6552520 *  3.4612538    4.1449598    2.9288855 *  4.5201665  
  13 C       2.1744537 *  2.1791228 *  3.5357642    2.9089765 *  3.3973853  
  14 C       2.8088037 *  2.6466796 *  4.6810826    4.3435242    4.4412344  
  15 O       7.0647526    7.5417792    6.2146640    4.7796142    6.3973987  
  16 C       6.2408518    6.6141195    5.6674922    4.1463137    5.5723544  
  17 C       6.7167705    7.1398292    6.5981409    4.9829138    6.3640470  
  18 C       6.2825669    6.5433306    6.4860428    4.9482681    5.9437299  
  19 C       5.3080802    5.3162539    5.4867328    4.1388266    4.6783255  
  20 C       4.6560466    4.5692215    4.3006820    3.0563332    3.5456036  
  21 C       5.2706284    5.4063036    4.4808975    3.1305676    4.1747588  
  22 O       5.4097913    5.4788873    3.9963725    2.9931484 *  3.9366619  
  23 O       6.2291905    5.1926010    5.1586671    4.9696950    2.9802418 *
  24 C       5.3435810    4.4017770    4.7007125    4.3128967    2.6542628 *
  25 O       5.7247278    4.7668720    5.6201624    5.1407805    3.6201531  
  26 H       0.0000000    1.7592668 *  2.4970651 *  2.4981140 *  3.7774868  
  27 H       1.7592668 *  0.0000000    2.4554134 *  3.0734297    2.5917205 *
  28 H       2.4970651 *  2.4554134 *  0.0000000    1.7537552 *  2.4820836 *
  29 H       2.4981140 *  3.0734297    1.7537552 *  0.0000000    3.0669075  
  30 H       3.7774868    2.5917205 *  2.4820836 *  3.0669075    0.0000000  
  31 H       4.3259177    3.7763500    2.4746327 *  2.5209693 *  1.7401857 *
  32 H       3.5890962    2.3725045 *  3.8918277    3.8527503    2.3363710 *
  33 H       5.2880452    4.5177319    6.0732848    5.5190943    4.5488871  
  34 H       6.5695901    6.1819608    6.9502366    5.8980937    5.5384416  
  35 H       6.4083725    6.2977354    7.5768614    6.4925777    6.5837053  
  36 H       6.0397347    6.3072542    7.1424760    5.7761288    6.5646389  
  37 H       8.7164561    9.2369468    9.1620610    7.4967314    8.8365849  
  38 H       9.4060880   10.1494923    9.7394276    8.0106970    9.7710079  
  39 H       7.7970090    8.6189086    8.3980119    6.6599753    8.5459972  
  40 H       8.0545941    8.7742027    7.8982412    6.2241282    8.1128396  
  41 H       9.2093132    9.5010506    8.5932707    7.1372775    8.1997164  
  42 H      10.1397763   10.6041588    9.8596739    8.2704156    9.5967507  
  43 H       9.4342799    9.6574897    9.1917130    7.6833731    8.5441750  
  44 H       2.9838473 *  3.8494588    3.8613686    2.3191535 *  4.4042713  
  45 H       2.3949052 *  3.6448512    4.3353266    3.2680954    5.1696282  
  46 H       3.6727115    4.3133359    5.1770602    3.9066010    5.2441119  
  47 H       3.2250100    2.4635722 *  4.8048892    4.8236404    4.2350143  
  48 H       3.7880710    3.6909964    5.6240315    5.0671647    5.1828916  
  49 H       2.5814449 *  2.9084698 *  4.8556590    4.5781043    5.1110369  
  50 H       6.8633774    7.2658156    5.7011859    4.4438603    5.9633664  
  51 H       6.9726031    7.2472919    7.4245224    5.8893904    6.8180169  
  52 H       5.6906379    5.4596779    4.0560573    3.4045373    3.5191668  

               31 H         32 H         33 H         34 H         35 H     

   1 C       3.4939371    2.5672959 *  4.4585130    5.7593277    5.8614439  
   2 C       2.1775530 *  3.1133705    5.1166179    5.8934816    6.5044829  
   3 C       1.0890519 *  2.6040315 *  4.5644491    5.1507045    6.2321959  
   4 C       2.2167161 *  2.1167380 *  3.3356738    3.6111523    4.8219187  
   5 C       3.4839779    1.1008147 *  2.2235950 *  3.4440700    3.9503852  
   6 C       4.5258382    2.0854325 *  1.0918083 *  2.1146525 *  2.8334053 *
   7 C       5.1187146    3.4692825    2.1755392 *  1.1028949 *  2.0611360 *
   8 N       6.2237183    4.1759264    2.5885920 *  2.1337192 *  1.0173584 *
   9 C       7.9118164    8.1797391    7.4006513    5.3976707    5.7768322  
  10 C       6.8285899    7.6712463    7.2350595    5.2170128    6.1205242  
  11 C       7.4192654    8.4610755    7.9287305    5.6525454    6.9081448  
  12 C       4.6980136    3.5103003    3.9972083    4.5605048    4.1723901  
  13 C       4.0883952    2.1030422 *  3.1915534    4.4796274    4.3198548  
  14 C       5.4620620    2.6284133 *  3.1698113    5.0499400    4.2846041  
  15 O       4.9397100    7.0407961    7.4897537    6.0023402    7.3328764  
  16 C       4.3566871    5.8829328    6.1532933    4.6786142    5.9909629  
  17 C       5.4113595    6.1757244    5.9114709    4.0950352    5.1892594  
  18 C       5.3589460    5.2938986    4.6584146    2.7975342 *  3.8086841  
  19 C       4.3543262    3.9093936    3.4687909    2.1225435 *  3.3455328  
  20 C       2.9664365 *  3.4517099    3.9095812    3.1820372    4.5246601  
  21 C       2.9975674 *  4.6715101    5.3111627    4.3017432    5.7192946  
  22 O       2.3505917 *  5.1099985    6.2299920    5.5073454    6.9826407  
  23 O       3.0395210    3.4865140    4.2463049    4.1501061    6.0283716  
  24 C       2.9548334 *  2.5064794 *  3.1715900    3.2864651    4.9523056  
  25 O       4.2178943    2.4765248 *  2.0628545 *  2.4282930 *  3.9494266  
  26 H       4.3259177    3.5890962    5.2880452    6.5695901    6.4083725  
  27 H       3.7763500    2.3725045 *  4.5177319    6.1819608    6.2977354  
  28 H       2.4746327 *  3.8918277    6.0732848    6.9502366    7.5768614  
  29 H       2.5209693 *  3.8527503    5.5190943    5.8980937    6.4925777  
  30 H       1.7401857 *  2.3363710 *  4.5488871    5.5384416    6.5837053  
  31 H       0.0000000    3.6212502    5.4507555    5.6884246    7.0161667  
  32 H       3.6212502    0.0000000    2.4149577 *  4.1584863    4.6481447  
  33 H       5.4507555    2.4149577 *  0.0000000    2.5583412 *  2.6142482 *
  34 H       5.6884246    4.1584863    2.5583412 *  0.0000000    2.2936657 *
  35 H       7.0161667    4.6481447    2.6142482 *  2.2936657 *  0.0000000  
  36 H       6.6329727    5.0081065    3.5889336    2.6030667 *  1.6346509 *
  37 H       8.1534592    8.0573570    6.9801775    4.8323865    5.1766411  
  38 H       8.8590648    9.2680566    8.4816451    6.4329096    6.7698549  
  39 H       7.8077279    7.8812452    7.1740125    5.4685071    5.4925819  
  40 H       6.9328175    8.1331762    7.9569806    6.1184640    6.9528773  
  41 H       6.9479615    8.4098364    8.1264724    5.9393822    7.4410162  
  42 H       8.4412428    9.5221285    8.9372017    6.6290653    7.7424154  
  43 H       7.5850620    8.2781280    7.4900895    5.0644665    6.4043340  
  44 H       4.1743923    3.8961819    4.5393062    4.6213836    4.6624547  
  45 H       5.3818890    4.2600275    4.8749162    5.6055212    4.9536861  
  46 H       5.4405659    3.8893777    3.6788180    4.0009587    3.2575749  
  47 H       5.5441301    2.3544600 *  3.1686865    5.4122877    4.8214103  
  48 H       6.1244725    3.1165394    2.7530922 *  4.5586439    3.4001321  
  49 H       6.0617328    3.5896269    4.2412078    6.0138260    5.0563499  
  50 H       4.3766774    6.9169573    7.6585390    6.3955676    7.8122959  
  51 H       6.3734061    5.8810197    4.8129184    2.7515141 *  3.3856388  
  52 H       1.9212349 *  4.9089270    6.1215814    5.5052571    7.1635822  

               36 H         37 H         38 H         39 H         40 H     

   1 C       5.6162111    8.3466786    9.1681656    7.6245072    7.7797667  
   2 C       6.0555284    8.1680035    8.8429157    7.4694876    7.1265958  
   3 C       5.9617284    7.9579765    8.7922823    7.5824014    7.0656906  
   4 C       4.6133086    6.7451117    7.7822949    6.5816742    6.3418250  
   5 C       4.0518838    7.0006710    8.1822604    6.7817173    7.0891109  
   6 C       3.3248052    6.3795713    7.7938079    6.5189628    7.0515515  
   7 C       2.0730114 *  4.8727455    6.3489880    5.1395252    5.8602344  
   8 N       1.0155225 *  4.7503815    6.2338742    4.8452044    6.1684306  
   9 C       4.3088794    1.0965761 *  1.0954006 *  1.0953679 *  2.1410455 *
  10 C       4.7178276    2.1966926 *  2.1678960 *  2.1926957 *  1.0970503 *
  11 C       5.7096389    2.7924174 *  2.7738937 *  3.5010146    2.1424554 *
  12 C       3.4732222    6.2074337    7.0455754    5.3790198    6.1076472  
  13 C       4.1587528    7.2396206    8.2471075    6.6613221    7.1925313  
  14 C       4.5263814    8.0683209    9.1858414    7.5341734    8.4268586  
  15 O       6.0961831    4.9428349    4.8414638    4.5319908    2.4723000 *
  16 C       4.8188428    4.2820244    4.6359608    3.9805844    2.6323739 *
  17 C       3.8909901    2.9030586 *  3.4952933    2.8032821 *  2.1153586 *
  18 C       2.6240311 *  2.8992542 *  4.0750269    3.0663611    3.3675322  
  19 C       2.5879986 *  4.2431845    5.4581723    4.3032920    4.5355788  
  20 C       3.8716927    5.3166945    6.2699086    5.1585353    4.8168589  
  21 C       4.8136595    5.2885478    5.8925773    5.0075234    4.0114130  
  22 O       6.1490711    6.5473513    6.9575048    6.1747519    4.8115564  
  23 O       6.1690172    7.7956825    8.9399322    8.1025850    7.5065936  
  24 C       5.0974269    7.1268737    8.3377991    7.3286224    7.0419217  
  25 O       4.4633833    6.9282845    8.3414680    7.2868999    7.4222392  
  26 H       6.0397347    8.7164561    9.4060880    7.7970090    8.0545941  
  27 H       6.3072542    9.2369468   10.1494923    8.6189086    8.7742027  
  28 H       7.1424760    9.1620610    9.7394276    8.3980119    7.8982412  
  29 H       5.7761288    7.4967314    8.0106970    6.6599753    6.2241282  
  30 H       6.5646389    8.8365849    9.7710079    8.5459972    8.1128396  
  31 H       6.6329727    8.1534592    8.8590648    7.8077279    6.9328175  
  32 H       5.0081065    8.0573570    9.2680566    7.8812452    8.1331762  
  33 H       3.5889336    6.9801775    8.4816451    7.1740125    7.9569806  
  34 H       2.6030667 *  4.8323865    6.4329096    5.4685071    6.1184640  
  35 H       1.6346509 *  5.1766411    6.7698549    5.4925819    6.9528773  
  36 H       0.0000000    3.8728647    5.3182211    3.9136207    5.4719632  
  37 H       3.8728647    0.0000000    1.7622866 *  1.7759033 *  3.0721283  
  38 H       5.3182211    1.7622866 *  0.0000000    1.7726105 *  2.4443388 *
  39 H       3.9136207    1.7759033 *  1.7726105 *  0.0000000    2.5179467 *
  40 H       5.4719632    3.0721283    2.4443388 *  2.5179467 *  0.0000000  
  41 H       6.3075079    3.8153518    3.7644782    4.3522345    2.4886540 *
  42 H       6.4969712    3.0926520    2.5474814 *  3.7780758    2.4817568 *
  43 H       5.3872451    2.6226884 *  3.1683669    3.8154345    3.0644988  
  44 H       3.7015235    5.7599745    6.4370736    4.8562151    5.2230671  
  45 H       4.2396059    6.8798101    7.5608505    5.8391114    6.6690232  
  46 H       2.4868458 *  5.5269413    6.5114471    4.8203400    5.9338084  
  47 H       5.3200579    8.9101578   10.0978454    8.4917183    9.2727052  
  48 H       3.8299157    7.5716521    8.7988022    7.1610859    8.3199104  
  49 H       5.1381633    8.5853678    9.5724999    7.8565275    8.8275312  
  50 H       6.6699045    5.8694386    5.8095677    5.4271988    3.4223958  
  51 H       2.1707752 *  2.2164898 *  3.7156067    2.7646229 *  3.7144135  
  52 H       6.5246156    7.1064696    7.6493842    6.9105503    5.5757412  

               41 H         42 H         43 H         44 H         45 H     

   1 C       8.6681756    9.7036671    8.8570053    2.7995519 *  2.7241253 *
   2 C       7.8316728    9.0399212    8.2890193    2.9024021 *  3.5679017  
   3 C       7.2783488    8.6465945    7.6963439    3.5465561    4.5674922  
   4 C       6.4628357    7.7174983    6.5821890    3.0819177    4.2834064  
   5 C       7.4898674    8.5235172    7.3304935    2.9523374 *  3.5626887  
   6 C       7.1895298    8.1039553    6.7050184    3.7933523    4.4753716  
   7 C       6.0714179    6.7816499    5.3907870    3.5801644    4.5058912  
   8 N       6.8075350    7.1961244    5.9518600    3.6735408    4.1224851  
   9 C       3.4939337    2.7607824 *  2.8108495 *  5.4608805    6.6332340  
  10 C       2.1922872 *  2.1852922 *  2.1875188 *  5.1003256    6.5648253  
  11 C       1.0938624 *  1.0963611 *  1.0966321 *  6.3829322    7.9356175  
  12 C       7.3749836    8.0373179    7.2677311    1.0918115 *  1.0971317 *
  13 C       8.0787823    8.9550476    7.9789497    2.2122692 *  2.1587614 *
  14 C       9.3678996   10.1157098    9.0699400    3.4782139    2.6969843 *
  15 O       2.7691449 *  4.0341686    4.0463671    4.7179054    6.4123278  
  16 C       3.0000623    4.2031423    3.7076464    3.7157625    5.4560834  
  17 C       2.7560996 *  3.4776636    2.8148694 *  3.8728248    5.4705782  
  18 C       3.8232815    4.4152126    3.3202616    3.4853936    4.9270011  
  19 C       4.8305359    5.6924860    4.4833816    2.8879631 *  4.3065329  
  20 C       5.0245055    6.2020977    5.1497597    2.6516343 *  4.2535933  
  21 C       4.1778703    5.5136460    4.7570602    3.1762032    4.9256881  
  22 O       4.8263600    6.3265839    5.7534512    3.9440877    5.5904627  
  23 O       6.7652037    8.2444076    6.8869680    5.5001031    6.7412877  
  24 C       6.6469709    7.9769061    6.6127799    4.5010893    5.6545725  
  25 O       7.0805167    8.2055512    6.6981798    4.7832721    5.7096169  
  26 H       9.2093132   10.1397763    9.4342799    2.9838473 *  2.3949052 *
  27 H       9.5010506   10.6041588    9.6574897    3.8494588    3.6448512  
  28 H       8.5932707    9.8596739    9.1917130    3.8613686    4.3353266  
  29 H       7.1372775    8.2704156    7.6833731    2.3191535 *  3.2680954  
  30 H       8.1997164    9.5967507    8.5441750    4.4042713    5.1696282  
  31 H       6.9479615    8.4412428    7.5850620    4.1743923    5.3818890  
  32 H       8.4098364    9.5221285    8.2781280    3.8961819    4.2600275  
  33 H       8.1264724    8.9372017    7.4900895    4.5393062    4.8749162  
  34 H       5.9393822    6.6290653    5.0644665    4.6213836    5.6055212  
  35 H       7.4410162    7.7424154    6.4043340    4.6624547    4.9536861  
  36 H       6.3075079    6.4969712    5.3872451    3.7015235    4.2396059  
  37 H       3.8153518    3.0926520    2.6226884 *  5.7599745    6.8798101  
  38 H       3.7644782    2.5474814 *  3.1683669    6.4370736    7.5608505  
  39 H       4.3522345    3.7780758    3.8154345    4.8562151    5.8391114  
  40 H       2.4886540 *  2.4817568 *  3.0644988    5.2230671    6.6690232  
  41 H       0.0000000    1.7725657 *  1.7744049 *  6.5191143    8.1776687  
  42 H       1.7725657 *  0.0000000    1.7743807 *  7.2577202    8.7478932  
  43 H       1.7744049 *  1.7743807 *  0.0000000    6.6074716    8.1249622  
  44 H       6.5191143    7.2577202    6.6074716    0.0000000    1.7661994 *
  45 H       8.1776687    8.7478932    8.1249622    1.7661994 *  0.0000000  
  46 H       7.1981486    7.6841670    6.8417086    1.7699102 *  1.7719217 *
  47 H      10.0215641   10.8751401    9.7334275    4.3600726    3.7128932  
  48 H       9.2474858    9.8551526    8.7486618    3.7601545    3.0408483  
  49 H       9.9992480   10.6747842    9.7591479    3.7425462    2.4702102 *
  50 H       3.5195295    4.9200745    4.8728157    4.8576802    6.5446793  
  51 H       4.1872849    4.3936169    3.2301497    4.1722028    5.3730012  
  52 H       5.2386227    6.8441359    6.1076788    4.5254389    6.1150340  

               46 H         47 H         48 H         49 H         50 H     

   1 C       3.4871579    2.7959787 *  3.4930225    2.7442450 *  6.4312680  
   2 C       4.1739573    4.1739643    4.7668748    4.2406872    5.2273594  
   3 C       4.6205200    4.4567038    5.0734996    5.0202446    4.9485643  
   4 C       3.7547784    4.1553703    4.3325138    4.7930054    4.8502866  
   5 C       2.9567758 *  2.7081851 *  2.8418131 *  3.4781573    6.1318674  
   6 C       3.2804284    3.4491319    3.0793325    4.3396904    6.5763923  
   7 C       2.9356478 *  4.5711277    3.6644134    5.0091620    6.0262859  
   8 N       2.3782425 *  4.5047030    3.1070921    4.5838217    6.9070847  
   9 C       5.5033737    9.0347459    7.7639678    8.5747712    5.2325975  
  10 C       5.5647534    8.8551190    7.8332187    8.5436577    3.7930384  
  11 C       6.8382729    9.8877761    8.9387254    9.7748485    4.1828159  
  12 C       1.0906128 *  3.4734428    2.7334532 *  2.7320674 *  5.9109658  
  13 C       2.1855144 *  2.1987516 *  2.1887676 *  2.1804133 *  6.4488772  
  14 C       2.7354979 *  1.0973766 *  1.0950610 *  1.0963421 *  7.9636594  
  15 O       5.9593988    8.5768957    8.0824325    8.3913233    0.9718426 *
  16 C       4.7793945    7.3985895    6.8302057    7.2926235    1.8946251 *
  17 C       4.4498534    7.4766028    6.6004941    7.3015607    3.1769596  
  18 C       3.5752205    6.4897515    5.4978678    6.4392388    4.2705815  
  19 C       2.9806685 *  5.2725739    4.5025163    5.4574894    4.5214240  
  20 C       3.4430028    5.1549240    4.8282862    5.4208184    3.7565824  
  21 C       4.3730246    6.3694989    6.0755959    6.4622382    2.3551721 *
  22 O       5.3965878    6.9128034    6.9245770    7.0536412    2.0401430 *
  23 O       6.0166083    5.8314941    6.2201218    6.9203696    5.6618703  
  24 C       4.8562045    4.7969998    5.0428538    5.8146695    5.5640478  
  25 O       4.6256962    4.4321370    4.4463781    5.5711613    6.5166404  
  26 H       3.6727115    3.2250100    3.7880710    2.5814449 *  6.8633774  
  27 H       4.3133359    2.4635722 *  3.6909964    2.9084698 *  7.2658156  
  28 H       5.1770602    4.8048892    5.6240315    4.8556590    5.7011859  
  29 H       3.9066010    4.8236404    5.0671647    4.5781043    4.4438603  
  30 H       5.2441119    4.2350143    5.1828916    5.1110369    5.9633664  
  31 H       5.4405659    5.5441301    6.1244725    6.0617328    4.3766774  
  32 H       3.8893777    2.3544600 *  3.1165394    3.5896269    6.9169573  
  33 H       3.6788180    3.1686865    2.7530922 *  4.2412078    7.6585390  
  34 H       4.0009587    5.4122877    4.5586439    6.0138260    6.3955676  
  35 H       3.2575749    4.8214103    3.4001321    5.0563499    7.8122959  
  36 H       2.4868458 *  5.3200579    3.8299157    5.1381633    6.6699045  
  37 H       5.5269413    8.9101578    7.5716521    8.5853678    5.8694386  
  38 H       6.5114471   10.0978454    8.7988022    9.5724999    5.8095677  
  39 H       4.8203400    8.4917183    7.1610859    7.8565275    5.4271988  
  40 H       5.9338084    9.2727052    8.3199104    8.8275312    3.4223958  
  41 H       7.1981486   10.0215641    9.2474858    9.9992480    3.5195295  
  42 H       7.6841670   10.8751401    9.8551526   10.6747842    4.9200745  
  43 H       6.8417086    9.7334275    8.7486618    9.7591479    4.8728157  
  44 H       1.7699102 *  4.3600726    3.7601545    3.7425462    4.8576802  
  45 H       1.7719217 *  3.7128932    3.0408483    2.4702102 *  6.5446793  
  46 H       0.0000000    3.7560006    2.5170705 *  3.0757849    6.2720869  
  47 H       3.7560006    0.0000000    1.7792816 *  1.7699866 *  8.5494524  
  48 H       2.5170705 *  1.7792816 *  0.0000000    1.7697999 *  8.2537993  
  49 H       3.0757849    1.7699866 *  1.7697999 *  0.0000000    8.4328265  
  50 H       6.2720869    8.5494524    8.2537993    8.4328265    0.0000000  
  51 H       3.8356726    6.8583860    5.6519979    6.7720429    5.2405749  
  52 H       5.8584213    6.9204092    7.0999720    7.2934055    2.7595573 *

               51 H         52 H     

   1 C       6.4540739    4.9412374  
   2 C       6.3706319    3.6221679  
   3 C       6.0351469    2.7144236 *
   4 C       4.6957703    2.9227285 *
   5 C       4.8501877    4.4484800  
   6 C       4.1659995    5.0618282  
   7 C       2.6702167 *  5.1358938  
   8 N       2.8080081 *  6.3419548  
   9 C       2.6611605 *  6.8024377  
  10 C       2.7756549 *  5.5090952  
  11 C       3.5634265    5.8602774  
  12 C       4.5014924    5.3233417  
  13 C       5.2675617    5.1638586  
  14 C       6.1109225    6.6488024  
  15 O       4.5161517    3.3639619  
  16 C       3.3619742    3.0289811  
  17 C       2.1374627 *  4.2574612  
  18 C       1.0864804 *  4.5808377  
  19 C       2.1415626 *  3.9873091  
  20 C       3.4157713    2.6856397 *
  21 C       3.8356600    1.9460576 *
  22 O       5.2189112    0.9668648 *
  23 O       5.8339258    3.2574087  
  24 C       5.0388952    3.3876411  
  25 O       4.7603313    4.6363279  
  26 H       6.9726031    5.6906379  
  27 H       7.2472919    5.4596779  
  28 H       7.4245224    4.0560573  
  29 H       5.8893904    3.4045373  
  30 H       6.8180169    3.5191668  
  31 H       6.3734061    1.9212349 *
  32 H       5.8810197    4.9089270  
  33 H       4.8129184    6.1215814  
  34 H       2.7515141 *  5.5052571  
  35 H       3.3856388    7.1635822  
  36 H       2.1707752 *  6.5246156  
  37 H       2.2164898 *  7.1064696  
  38 H       3.7156067    7.6493842  
  39 H       2.7646229 *  6.9105503  
  40 H       3.7144135    5.5757412  
  41 H       4.1872849    5.2386227  
  42 H       4.3936169    6.8441359  
  43 H       3.2301497    6.1076788  
  44 H       4.1722028    4.5254389  
  45 H       5.3730012    6.1150340  
  46 H       3.8356726    5.8584213  
  47 H       6.8583860    6.9204092  
  48 H       5.6519979    7.0999720  
  49 H       6.7720429    7.2934055  
  50 H       5.2405749    2.7595573 *
  51 H       0.0000000    5.6416739  
  52 H       5.6416739    0.0000000  

  * ... LESS THAN  3.000


     ATOMIC BASIS SET
     ----------------
 THE CONTRACTED PRIMITIVE FUNCTIONS HAVE BEEN UNNORMALIZED
 THE CONTRACTED BASIS FUNCTIONS ARE NOW NORMALIZED TO UNITY

  SHELL TYPE  PRIMITIVE        EXPONENT          CONTRACTION COEFFICIENT(S)

 C         

      1   S       1           172.2560000    0.061766907377
      1   S       2            25.9109000    0.358794042852
      1   S       3             5.5333500    0.700713083689

      2   L       4             3.6649800   -0.395895162119    0.236459946619
      2   L       5             0.7705450    1.215834355681    0.860618805716

      3   L       6             0.1958570    1.000000000000    1.000000000000

 C         

      4   S       7           172.2560000    0.061766907377
      4   S       8            25.9109000    0.358794042852
      4   S       9             5.5333500    0.700713083689

      5   L      10             3.6649800   -0.395895162119    0.236459946619
      5   L      11             0.7705450    1.215834355681    0.860618805716

      6   L      12             0.1958570    1.000000000000    1.000000000000

 C         

      7   S      13           172.2560000    0.061766907377
      7   S      14            25.9109000    0.358794042852
      7   S      15             5.5333500    0.700713083689

      8   L      16             3.6649800   -0.395895162119    0.236459946619
      8   L      17             0.7705450    1.215834355681    0.860618805716

      9   L      18             0.1958570    1.000000000000    1.000000000000

 C         

     10   S      19           172.2560000    0.061766907377
     10   S      20            25.9109000    0.358794042852
     10   S      21             5.5333500    0.700713083689

     11   L      22             3.6649800   -0.395895162119    0.236459946619
     11   L      23             0.7705450    1.215834355681    0.860618805716

     12   L      24             0.1958570    1.000000000000    1.000000000000

 C         

     13   S      25           172.2560000    0.061766907377
     13   S      26            25.9109000    0.358794042852
     13   S      27             5.5333500    0.700713083689

     14   L      28             3.6649800   -0.395895162119    0.236459946619
     14   L      29             0.7705450    1.215834355681    0.860618805716

     15   L      30             0.1958570    1.000000000000    1.000000000000

 C         

     16   S      31           172.2560000    0.061766907377
     16   S      32            25.9109000    0.358794042852
     16   S      33             5.5333500    0.700713083689

     17   L      34             3.6649800   -0.395895162119    0.236459946619
     17   L      35             0.7705450    1.215834355681    0.860618805716

     18   L      36             0.1958570    1.000000000000    1.000000000000

 C         

     19   S      37           172.2560000    0.061766907377
     19   S      38            25.9109000    0.358794042852
     19   S      39             5.5333500    0.700713083689

     20   L      40             3.6649800   -0.395895162119    0.236459946619
     20   L      41             0.7705450    1.215834355681    0.860618805716

     21   L      42             0.1958570    1.000000000000    1.000000000000

 N         

     22   S      43           242.7660000    0.059865700508
     22   S      44            36.4851000    0.352955002994
     22   S      45             7.8144900    0.706513005993

     23   L      46             5.4252200   -0.413300077430    0.237972016222
     23   L      47             1.1491500    1.224417266851    0.858953058551

     24   L      48             0.2832050    1.000000000000    1.000000000000

 C         

     25   S      49           172.2560000    0.061766907377
     25   S      50            25.9109000    0.358794042852
     25   S      51             5.5333500    0.700713083689

     26   L      52             3.6649800   -0.395895162119    0.236459946619
     26   L      53             0.7705450    1.215834355681    0.860618805716

     27   L      54             0.1958570    1.000000000000    1.000000000000

 C         

     28   S      55           172.2560000    0.061766907377
     28   S      56            25.9109000    0.358794042852
     28   S      57             5.5333500    0.700713083689

     29   L      58             3.6649800   -0.395895162119    0.236459946619
     29   L      59             0.7705450    1.215834355681    0.860618805716

     30   L      60             0.1958570    1.000000000000    1.000000000000

 C         

     31   S      61           172.2560000    0.061766907377
     31   S      62            25.9109000    0.358794042852
     31   S      63             5.5333500    0.700713083689

     32   L      64             3.6649800   -0.395895162119    0.236459946619
     32   L      65             0.7705450    1.215834355681    0.860618805716

     33   L      66             0.1958570    1.000000000000    1.000000000000

 C         

     34   S      67           172.2560000    0.061766907377
     34   S      68            25.9109000    0.358794042852
     34   S      69             5.5333500    0.700713083689

     35   L      70             3.6649800   -0.395895162119    0.236459946619
     35   L      71             0.7705450    1.215834355681    0.860618805716

     36   L      72             0.1958570    1.000000000000    1.000000000000

 C         

     37   S      73           172.2560000    0.061766907377
     37   S      74            25.9109000    0.358794042852
     37   S      75             5.5333500    0.700713083689

     38   L      76             3.6649800   -0.395895162119    0.236459946619
     38   L      77             0.7705450    1.215834355681    0.860618805716

     39   L      78             0.1958570    1.000000000000    1.000000000000

 C         

     40   S      79           172.2560000    0.061766907377
     40   S      80            25.9109000    0.358794042852
     40   S      81             5.5333500    0.700713083689

     41   L      82             3.6649800   -0.395895162119    0.236459946619
     41   L      83             0.7705450    1.215834355681    0.860618805716

     42   L      84             0.1958570    1.000000000000    1.000000000000

 O         

     43   S      85           322.0370000    0.059239393389
     43   S      86            48.4308000    0.351499960776
     43   S      87            10.4206000    0.707657921031

     44   L      88             7.4029400   -0.404453583190    0.244586106967
     44   L      89             1.5762000    1.221561761397    0.853955373466

     45   L      90             0.3736840    1.000000000000    1.000000000000

 C         

     46   S      91           172.2560000    0.061766907377
     46   S      92            25.9109000    0.358794042852
     46   S      93             5.5333500    0.700713083689

     47   L      94             3.6649800   -0.395895162119    0.236459946619
     47   L      95             0.7705450    1.215834355681    0.860618805716

     48   L      96             0.1958570    1.000000000000    1.000000000000

 C         

     49   S      97           172.2560000    0.061766907377
     49   S      98            25.9109000    0.358794042852
     49   S      99             5.5333500    0.700713083689

     50   L     100             3.6649800   -0.395895162119    0.236459946619
     50   L     101             0.7705450    1.215834355681    0.860618805716

     51   L     102             0.1958570    1.000000000000    1.000000000000

 C         

     52   S     103           172.2560000    0.061766907377
     52   S     104            25.9109000    0.358794042852
     52   S     105             5.5333500    0.700713083689

     53   L     106             3.6649800   -0.395895162119    0.236459946619
     53   L     107             0.7705450    1.215834355681    0.860618805716

     54   L     108             0.1958570    1.000000000000    1.000000000000

 C         

     55   S     109           172.2560000    0.061766907377
     55   S     110            25.9109000    0.358794042852
     55   S     111             5.5333500    0.700713083689

     56   L     112             3.6649800   -0.395895162119    0.236459946619
     56   L     113             0.7705450    1.215834355681    0.860618805716

     57   L     114             0.1958570    1.000000000000    1.000000000000

 C         

     58   S     115           172.2560000    0.061766907377
     58   S     116            25.9109000    0.358794042852
     58   S     117             5.5333500    0.700713083689

     59   L     118             3.6649800   -0.395895162119    0.236459946619
     59   L     119             0.7705450    1.215834355681    0.860618805716

     60   L     120             0.1958570    1.000000000000    1.000000000000

 C         

     61   S     121           172.2560000    0.061766907377
     61   S     122            25.9109000    0.358794042852
     61   S     123             5.5333500    0.700713083689

     62   L     124             3.6649800   -0.395895162119    0.236459946619
     62   L     125             0.7705450    1.215834355681    0.860618805716

     63   L     126             0.1958570    1.000000000000    1.000000000000

 O         

     64   S     127           322.0370000    0.059239393389
     64   S     128            48.4308000    0.351499960776
     64   S     129            10.4206000    0.707657921031

     65   L     130             7.4029400   -0.404453583190    0.244586106967
     65   L     131             1.5762000    1.221561761397    0.853955373466

     66   L     132             0.3736840    1.000000000000    1.000000000000

 O         

     67   S     133           322.0370000    0.059239393389
     67   S     134            48.4308000    0.351499960776
     67   S     135            10.4206000    0.707657921031

     68   L     136             7.4029400   -0.404453583190    0.244586106967
     68   L     137             1.5762000    1.221561761397    0.853955373466

     69   L     138             0.3736840    1.000000000000    1.000000000000

 C         

     70   S     139           172.2560000    0.061766907377
     70   S     140            25.9109000    0.358794042852
     70   S     141             5.5333500    0.700713083689

     71   L     142             3.6649800   -0.395895162119    0.236459946619
     71   L     143             0.7705450    1.215834355681    0.860618805716

     72   L     144             0.1958570    1.000000000000    1.000000000000

 O         

     73   S     145           322.0370000    0.059239393389
     73   S     146            48.4308000    0.351499960776
     73   S     147            10.4206000    0.707657921031

     74   L     148             7.4029400   -0.404453583190    0.244586106967
     74   L     149             1.5762000    1.221561761397    0.853955373466

     75   L     150             0.3736840    1.000000000000    1.000000000000

 H         

     76   S     151             5.4471780    0.156284978695
     76   S     152             0.8245472    0.904690876670

     77   S     153             0.1831916    1.000000000000

 H         

     78   S     154             5.4471780    0.156284978695
     78   S     155             0.8245472    0.904690876670

     79   S     156             0.1831916    1.000000000000

 H         

     80   S     157             5.4471780    0.156284978695
     80   S     158             0.8245472    0.904690876670

     81   S     159             0.1831916    1.000000000000

 H         

     82   S     160             5.4471780    0.156284978695
     82   S     161             0.8245472    0.904690876670

     83   S     162             0.1831916    1.000000000000

 H         

     84   S     163             5.4471780    0.156284978695
     84   S     164             0.8245472    0.904690876670

     85   S     165             0.1831916    1.000000000000

 H         

     86   S     166             5.4471780    0.156284978695
     86   S     167             0.8245472    0.904690876670

     87   S     168             0.1831916    1.000000000000

 H         

     88   S     169             5.4471780    0.156284978695
     88   S     170             0.8245472    0.904690876670

     89   S     171             0.1831916    1.000000000000

 H         

     90   S     172             5.4471780    0.156284978695
     90   S     173             0.8245472    0.904690876670

     91   S     174             0.1831916    1.000000000000

 H         

     92   S     175             5.4471780    0.156284978695
     92   S     176             0.8245472    0.904690876670

     93   S     177             0.1831916    1.000000000000

 H         

     94   S     178             5.4471780    0.156284978695
     94   S     179             0.8245472    0.904690876670

     95   S     180             0.1831916    1.000000000000

 H         

     96   S     181             5.4471780    0.156284978695
     96   S     182             0.8245472    0.904690876670

     97   S     183             0.1831916    1.000000000000

 H         

     98   S     184             5.4471780    0.156284978695
     98   S     185             0.8245472    0.904690876670

     99   S     186             0.1831916    1.000000000000

 H         

    100   S     187             5.4471780    0.156284978695
    100   S     188             0.8245472    0.904690876670

    101   S     189             0.1831916    1.000000000000

 H         

    102   S     190             5.4471780    0.156284978695
    102   S     191             0.8245472    0.904690876670

    103   S     192             0.1831916    1.000000000000

 H         

    104   S     193             5.4471780    0.156284978695
    104   S     194             0.8245472    0.904690876670

    105   S     195             0.1831916    1.000000000000

 H         

    106   S     196             5.4471780    0.156284978695
    106   S     197             0.8245472    0.904690876670

    107   S     198             0.1831916    1.000000000000

 H         

    108   S     199             5.4471780    0.156284978695
    108   S     200             0.8245472    0.904690876670

    109   S     201             0.1831916    1.000000000000

 H         

    110   S     202             5.4471780    0.156284978695
    110   S     203             0.8245472    0.904690876670

    111   S     204             0.1831916    1.000000000000

 H         

    112   S     205             5.4471780    0.156284978695
    112   S     206             0.8245472    0.904690876670

    113   S     207             0.1831916    1.000000000000

 H         

    114   S     208             5.4471780    0.156284978695
    114   S     209             0.8245472    0.904690876670

    115   S     210             0.1831916    1.000000000000

 H         

    116   S     211             5.4471780    0.156284978695
    116   S     212             0.8245472    0.904690876670

    117   S     213             0.1831916    1.000000000000

 H         

    118   S     214             5.4471780    0.156284978695
    118   S     215             0.8245472    0.904690876670

    119   S     216             0.1831916    1.000000000000

 H         

    120   S     217             5.4471780    0.156284978695
    120   S     218             0.8245472    0.904690876670

    121   S     219             0.1831916    1.000000000000

 H         

    122   S     220             5.4471780    0.156284978695
    122   S     221             0.8245472    0.904690876670

    123   S     222             0.1831916    1.000000000000

 H         

    124   S     223             5.4471780    0.156284978695
    124   S     224             0.8245472    0.904690876670

    125   S     225             0.1831916    1.000000000000

 H         

    126   S     226             5.4471780    0.156284978695
    126   S     227             0.8245472    0.904690876670

    127   S     228             0.1831916    1.000000000000

 H         

    128   S     229             5.4471780    0.156284978695
    128   S     230             0.8245472    0.904690876670

    129   S     231             0.1831916    1.000000000000

 TOTAL NUMBER OF BASIS SET SHELLS             =  129
 NUMBER OF CARTESIAN GAUSSIAN BASIS FUNCTIONS =  279
 NUMBER OF ELECTRONS                          =  185
 CHARGE OF MOLECULE                           =    1
 SPIN MULTIPLICITY                            =    2
 NUMBER OF OCCUPIED ORBITALS (ALPHA)          =   93
 NUMBER OF OCCUPIED ORBITALS (BETA )          =   92
 TOTAL NUMBER OF ATOMS                        =   52
 THE NUCLEAR REPULSION ENERGY IS     2479.8707166030

     $CONTRL OPTIONS
     ---------------
 SCFTYP=UHF          RUNTYP=ENERGY       EXETYP=RUN     
 MPLEVL=       0     CITYP =NONE         CCTYP =NONE         VBTYP =NONE    
 DFTTYP=NONE         TDDFT =NONE    
 MULT  =       2     ICHARG=       1     NZVAR =       0     COORD =UNIQUE  
 PP    =NONE         RELWFN=NONE         LOCAL =NONE         NUMGRD=       F
 ISPHER=      -1     NOSYM =       0     MAXIT =      60     UNITS =ANGS    
 PLTORB=       F     MOLPLT=       F     AIMPAC=       F     FRIEND=        
 NPRINT=       7     IREST =       0     GEOM  =INPUT   
 NORMF =       0     NORMP =       0     ITOL  =      20     ICUT  =       9
 INTTYP=BEST         GRDTYP=BEST         QMTTOL= 1.0E-06

     $SYSTEM OPTIONS
     ---------------
  REPLICATED MEMORY=    30000000 WORDS (ON EVERY NODE).
 DISTRIBUTED MEMDDI=        1000 MILLION WORDS IN AGGREGATE,
 MEMDDI DISTRIBUTED OVER   6 PROCESSORS IS   166666666 WORDS/PROCESSOR.
 TOTAL MEMORY REQUESTED ON EACH PROCESSOR=   196666666 WORDS.
 TIMLIM=      525600.00 MINUTES, OR     365.0 DAYS.
 PARALL= T  BALTYP=  DLB     KDIAG=    0  COREFL= F
 MXSEQ2=     300 MXSEQ3=     150  mem10=         0

          ----------------
          PROPERTIES INPUT
          ----------------

     MOMENTS            FIELD           POTENTIAL          DENSITY
 IEMOM =       1   IEFLD =       0   IEPOT =       0   IEDEN =       0
 WHERE =COMASS     WHERE =NUCLEI     WHERE =NUCLEI     WHERE =NUCLEI  
 OUTPUT=BOTH       OUTPUT=BOTH       OUTPUT=BOTH       OUTPUT=BOTH    
 IEMINT=       0   IEFINT=       0                     IEDINT=       0
                                                       MORB  =       0
          EXTRAPOLATION IN EFFECT
          SOSCF IN EFFECT
          DIIS or SOSCF will be reset if energy rises
 ORBITAL PRINTING OPTION: NPREO=     1   279     2     1

     -------------------------------
     INTEGRAL TRANSFORMATION OPTIONS
     -------------------------------
     NWORD  =            0
     CUTOFF = 1.0E-09     MPTRAN =       0
     DIRTRF =       T     AOINTS =DUP     

          ----------------------
          INTEGRAL INPUT OPTIONS
          ----------------------
 NOPK  =       1 NORDER=       0 SCHWRZ=       T

     ------------------------------------------
     THE POINT GROUP IS C1 , NAXIS= 0, ORDER= 1
     ------------------------------------------

     DIMENSIONS OF THE SYMMETRY SUBSPACES ARE
 A   =  279

 ..... DONE SETTING UP THE RUN .....
 CPU     0: STEP CPU TIME=     0.04 TOTAL CPU TIME=          0.0 (      0.0 MIN)
 TOTAL WALL CLOCK TIME=          0.0 SECONDS, CPU UTILIZATION IS    80.00%

          ********************
          1 ELECTRON INTEGRALS
          ********************
 ...... END OF ONE-ELECTRON INTEGRALS ......
 CPU     0: STEP CPU TIME=     0.03 TOTAL CPU TIME=          0.1 (      0.0 MIN)
 TOTAL WALL CLOCK TIME=          0.1 SECONDS, CPU UTILIZATION IS    58.33%

          -------------
          GUESS OPTIONS
          -------------
          GUESS =HUCKEL            NORB  =       0          NORDER=       0
          MIX   =       F          PRTMO =       F          PUNMO =       F
          TOLZ  = 1.0E-08          TOLE  = 1.0E-05
          SYMDEN=       F          PURIFY=       F

 INITIAL GUESS ORBITALS GENERATED BY HUCKEL   ROUTINE.
 HUCKEL GUESS REQUIRES    695253 WORDS.

 SYMMETRIES FOR INITIAL GUESS ORBITALS FOLLOW.  ALPHA SET(S).
    93 ORBITALS ARE OCCUPIED (   25 CORE ORBITALS).
    26=A       27=A       28=A       29=A       30=A       31=A       32=A   
    33=A       34=A       35=A       36=A       37=A       38=A       39=A   
    40=A       41=A       42=A       43=A       44=A       45=A       46=A   
    47=A       48=A       49=A       50=A       51=A       52=A       53=A   
    54=A       55=A       56=A       57=A       58=A       59=A       60=A   
    61=A       62=A       63=A       64=A       65=A       66=A       67=A   
    68=A       69=A       70=A       71=A       72=A       73=A       74=A   
    75=A       76=A       77=A       78=A       79=A       80=A       81=A   
    82=A       83=A       84=A       85=A       86=A       87=A       88=A   
    89=A       90=A       91=A       92=A       93=A       94=A       95=A   
    96=A       97=A       98=A       99=A      100=A      101=A      102=A   
   103=A   

 SYMMETRIES FOR INITIAL GUESS ORBITALS FOLLOW.   BETA SET(S).
    92 ORBITALS ARE OCCUPIED (   25 CORE ORBITALS).
    26=A       27=A       28=A       29=A       30=A       31=A       32=A   
    33=A       34=A       35=A       36=A       37=A       38=A       39=A   
    40=A       41=A       42=A       43=A       44=A       45=A       46=A   
    47=A       48=A       49=A       50=A       51=A       52=A       53=A   
    54=A       55=A       56=A       57=A       58=A       59=A       60=A   
    61=A       62=A       63=A       64=A       65=A       66=A       67=A   
    68=A       69=A       70=A       71=A       72=A       73=A       74=A   
    75=A       76=A       77=A       78=A       79=A       80=A       81=A   
    82=A       83=A       84=A       85=A       86=A       87=A       88=A   
    89=A       90=A       91=A       92=A       93=A       94=A       95=A   
    96=A       97=A       98=A       99=A      100=A      101=A      102=A   
 ...... END OF INITIAL ORBITAL SELECTION ......
 CPU     0: STEP CPU TIME=     0.17 TOTAL CPU TIME=          0.2 (      0.0 MIN)
 TOTAL WALL CLOCK TIME=          0.5 SECONDS, CPU UTILIZATION IS    47.06%

                    ----------------------
                    AO INTEGRAL TECHNOLOGY
                    ----------------------
     S,P,L SHELL ROTATED AXIS INTEGRALS, REPROGRAMMED BY
        KAZUYA ISHIMURA (IMS) AND JOSE SIERRA (SYNSTAR).
     S,P,D,L SHELL ROTATED AXIS INTEGRALS PROGRAMMED BY
[...]
   47    0.0000000   0.0000000  -0.0000000  -0.0000049  -0.0000022
   48    0.0000000  -0.0000000   0.0000000   0.0000007   0.0000021
   49    0.0000000   0.0000000  -0.0000000   0.0000006   0.0000000
   50   -0.0016934   0.0247684  -0.0000000  -0.0000000   0.0000000
   51   -0.0001169  -0.0000002   0.0000000   0.0000015  -0.0000004
   52   -0.0398385   0.2731126   0.0006456   0.0004851   0.0000013

            26          27          28          29          30

   26    0.4671589
   27   -0.0215735   0.5028207
   28   -0.0013745  -0.0020006   0.4600018
   29   -0.0016480   0.0029442  -0.0233270   0.5148100
   30   -0.0000294   0.0023978  -0.0017434   0.0030543   0.4709128
   31   -0.0000384  -0.0000461  -0.0015661  -0.0011320  -0.0219756
   32    0.0000329   0.0025356  -0.0000521   0.0000435   0.0024526
   33   -0.0000001   0.0000013   0.0000000   0.0000001   0.0000008
   34   -0.0000000  -0.0000000   0.0000000  -0.0000000   0.0000000
   35    0.0000000  -0.0000000  -0.0000000  -0.0000000  -0.0000000
   36    0.0000000  -0.0000000  -0.0000000   0.0000000  -0.0000000
   37    0.0000000  -0.0000000   0.0000000   0.0000000   0.0000000
   38   -0.0000000   0.0000000   0.0000000   0.0000000  -0.0000000
   39    0.0000000   0.0000000  -0.0000000  -0.0000000  -0.0000000
   40   -0.0000000  -0.0000000   0.0000000   0.0000000   0.0000000
   41    0.0000000  -0.0000000   0.0000000  -0.0000000   0.0000000
   42   -0.0000000  -0.0000000   0.0000000   0.0000000   0.0000000
   43   -0.0000000  -0.0000000   0.0000000   0.0000000  -0.0000000
   44   -0.0000064  -0.0000298   0.0000145   0.0007991  -0.0000023
   45    0.0022624  -0.0000104  -0.0000093   0.0000779   0.0000001
   46    0.0000043  -0.0000456   0.0000005  -0.0000040   0.0000002
   47   -0.0000034   0.0019625  -0.0000006  -0.0000005  -0.0000011
   48   -0.0000439   0.0000280   0.0000003   0.0000009   0.0000005
   49    0.0016066  -0.0000191  -0.0000008   0.0000002   0.0000004
   50   -0.0000000   0.0000000  -0.0000000  -0.0000007  -0.0000000
   51   -0.0000000  -0.0000000   0.0000000  -0.0000000  -0.0000000
   52   -0.0000000   0.0000000   0.0000016  -0.0000790  -0.0000079

            31          32          33          34          35

   31    0.4899388
   32    0.0000141   0.4593472
   33    0.0000005  -0.0037318   0.3976857
   34   -0.0000001  -0.0000554  -0.0014185   0.4709560
   35   -0.0000000  -0.0000003   0.0015120  -0.0034742   0.4089298
   36    0.0000000   0.0000021  -0.0000730   0.0009566  -0.0298311
   37   -0.0000000   0.0000000   0.0000000   0.0000005  -0.0000001
   38    0.0000000  -0.0000000  -0.0000000   0.0000000   0.0000000
   39    0.0000000  -0.0000000  -0.0000000   0.0000000  -0.0000000
   40   -0.0000000   0.0000000   0.0000000  -0.0000000   0.0000000
   41   -0.0000000   0.0000000  -0.0000000  -0.0000000  -0.0000000
   42   -0.0000000   0.0000000  -0.0000000   0.0000000  -0.0000000
   43   -0.0000000   0.0000000   0.0000000  -0.0000001  -0.0000000
   44   -0.0000025  -0.0000438  -0.0000010  -0.0000003  -0.0000010
   45   -0.0000002  -0.0000473  -0.0000001   0.0000002  -0.0000014
   46   -0.0000000  -0.0000581   0.0000015   0.0001602   0.0000933
   47   -0.0000001   0.0025942   0.0001201   0.0000002  -0.0000003
   48   -0.0000000  -0.0000440   0.0002394   0.0000131  -0.0000252
   49   -0.0000000  -0.0000212  -0.0000108   0.0000000  -0.0000001
   50   -0.0000020   0.0000000   0.0000000  -0.0000000   0.0000000
   51   -0.0000000  -0.0000000   0.0000004  -0.0006229   0.0001197
   52    0.0023760   0.0000018  -0.0000000  -0.0000000  -0.0000000

            36          37          38          39          40

   36    0.4284443
   37   -0.0000103   0.5122883
   38   -0.0000001  -0.0235021   0.4489411
   39    0.0000180  -0.0254860  -0.0201750   0.4868153
   40   -0.0000001   0.0026742  -0.0023139  -0.0011817   0.4441436
   41   -0.0000000  -0.0000344  -0.0000144  -0.0000493  -0.0015856
   42   -0.0000000  -0.0000642   0.0013763  -0.0000144  -0.0016287
   43   -0.0000000   0.0021939  -0.0000648  -0.0000462   0.0027863
   44    0.0000029  -0.0000000   0.0000000   0.0000003  -0.0000001
   45   -0.0000036   0.0000000   0.0000000  -0.0000000   0.0000000
   46   -0.0007738   0.0000000   0.0000000   0.0000001  -0.0000000
   47   -0.0000001   0.0000000   0.0000000  -0.0000000  -0.0000000
   48   -0.0000355   0.0000000   0.0000000  -0.0000000   0.0000000
   49   -0.0000002   0.0000000  -0.0000000  -0.0000000   0.0000000
   50   -0.0000000   0.0000000   0.0000000  -0.0000000  -0.0000319
   51    0.0024586   0.0028624   0.0000198  -0.0001853   0.0000624
   52    0.0000000   0.0000000   0.0000000  -0.0000000   0.0000001

            41          42          43          44          45

   41    0.4878738
   42   -0.0204341   0.4517038
   43   -0.0242489  -0.0218377   0.4989706
   44    0.0000000  -0.0000000  -0.0000000   0.5487859
   45    0.0000000   0.0000000  -0.0000000  -0.0252811   0.4880765
   46   -0.0000000  -0.0000000  -0.0000000  -0.0250626  -0.0192420
   47    0.0000000  -0.0000000  -0.0000000  -0.0000563  -0.0000188
   48   -0.0000000  -0.0000000  -0.0000000  -0.0000128   0.0001504
   49    0.0000000   0.0000000   0.0000000  -0.0000222   0.0019582
   50   -0.0000292  -0.0000002   0.0000001  -0.0000004   0.0000000
   51   -0.0000038   0.0000030   0.0001041  -0.0000016  -0.0000001
   52    0.0000002   0.0000000   0.0000000   0.0000015   0.0000000

            46          47          48          49          50

   46    0.4591708
   47   -0.0000168   0.5049481
   48    0.0020370  -0.0234884   0.4872305
   49    0.0000645  -0.0234283  -0.0223411   0.4826339
   50   -0.0000000  -0.0000000   0.0000000  -0.0000000   0.2844364
   51   -0.0000469  -0.0000000  -0.0000001  -0.0000000   0.0000007
   52    0.0000000  -0.0000000  -0.0000000   0.0000000  -0.0005896

            51          52

   51    0.3626834
   52   -0.0000000   0.3071582

          TOTAL MULLIKEN AND LOWDIN ATOMIC POPULATIONS
       ATOM         MULL.POP.    CHARGE          LOW.POP.     CHARGE
    1 C             6.341801   -0.341801         6.147803   -0.147803
    2 C             6.419872   -0.419872         6.159110   -0.159110
    3 C             6.365970   -0.365970         6.137758   -0.137758
    4 C             6.451202   -0.451202         6.104908   -0.104908
    5 C             6.133232   -0.133232         6.081543   -0.081543
    6 C             5.908755    0.091245         5.884361    0.115639
    7 C             6.075473   -0.075473         5.996549    0.003451
    8 N             7.750618   -0.750618         7.382912   -0.382912
    9 C             6.560526   -0.560526         6.248473   -0.248473
   10 C             6.350518   -0.350518         6.084513   -0.084513
   11 C             6.549141   -0.549141         6.240833   -0.240833
   12 C             6.565083   -0.565083         6.261160   -0.261160
   13 C             6.240396   -0.240396         6.022798   -0.022798
   14 C             6.526637   -0.526637         6.242292   -0.242292
   15 O             8.635902   -0.635902         8.197379   -0.197379
   16 C             5.510766    0.489234         5.725708    0.274292
   17 C             5.979936    0.020064         5.979788    0.020212
   18 C             6.201259   -0.201259         6.080639   -0.080639
   19 C             5.975502    0.024498         5.939298    0.060702
   20 C             5.904278    0.095722         6.011288   -0.011288
   21 C             5.646847    0.353153         5.876824    0.123176
   22 O             8.721833   -0.721833         8.322863   -0.322863
   23 O             8.574995   -0.574995         8.265799   -0.265799
   24 C             4.990860    1.009140         5.652282    0.347718
   25 O             8.653320   -0.653320         8.299289   -0.299289
   26 H             0.766234    0.233766         0.901567    0.098433
   27 H             0.782526    0.217474         0.912537    0.087463
   28 H             0.754052    0.245948         0.893693    0.106307
   29 H             0.787026    0.212974         0.915357    0.084643
   30 H             0.747798    0.252202         0.891102    0.108898
   31 H             0.786209    0.213791         0.914786    0.085214
   32 H             0.722451    0.277549         0.889002    0.110998
   33 H             0.712039    0.287961         0.881469    0.118531
   34 H             0.712989    0.287011         0.888390    0.111610
   35 H             0.670138    0.329862         0.804206    0.195794
   36 H             0.684544    0.315456         0.820517    0.179483
   37 H             0.795143    0.204857         0.909710    0.090290
   38 H             0.749789    0.250211         0.882275    0.117725
   39 H             0.777530    0.222470         0.900914    0.099086
   40 H             0.715679    0.284321         0.880617    0.119383
   41 H             0.779393    0.220607         0.902966    0.097034
   42 H             0.753698    0.246302         0.884891    0.115109
   43 H             0.783197    0.216803         0.902641    0.097359
   44 H             0.826012    0.173988         0.930275    0.069725
   45 H             0.780061    0.219939         0.900117    0.099883
   46 H             0.753617    0.246383         0.895391    0.104609
   47 H             0.797188    0.202812         0.911080    0.088920
   48 H             0.778256    0.221744         0.902002    0.097998
   49 H             0.779061    0.220939         0.899679    0.100321
   50 H             0.525494    0.474506         0.682440    0.317560
   51 H             0.701276    0.298724         0.867087    0.132913
   52 H             0.543878    0.456122         0.689121    0.310879

          -------------------------------
          BOND ORDER AND VALENCE ANALYSIS     BOND ORDER THRESHOLD=0.050
          -------------------------------

                   BOND                       BOND                       BOND
  ATOM PAIR DIST  ORDER      ATOM PAIR DIST  ORDER      ATOM PAIR DIST  ORDER
    1   2  1.540  0.908        1  13  1.559  0.884        1  26  1.097  0.922
    1  27  1.100  0.919        2   3  1.537  0.904        2  28  1.097  0.916
    2  29  1.097  0.915        3   4  1.540  0.900        3  30  1.098  0.900
    3  31  1.089  0.919        4   5  1.551  0.848        4  20  1.548  0.844
    4  24  1.537  0.793        5   6  1.535  0.892        5  13  1.559  0.882
    5  32  1.101  0.883        6   7  1.532  0.851        6  25  1.474  0.761
    6  33  1.092  0.905        7   8  1.476  0.908        7  19  1.526  0.905
    7  34  1.103  0.860        8  35  1.017  0.848        8  36  1.016  0.848
    9  10  1.537  0.910        9  37  1.097  0.920        9  38  1.095  0.913
    9  39  1.095  0.922       10  11  1.545  0.880       10  17  1.523  0.870
   10  40  1.097  0.885       11  41  1.094  0.920       11  42  1.096  0.914
   11  43  1.097  0.919       12  13  1.543  0.910       12  44  1.092  0.933
   12  45  1.097  0.921       12  46  1.091  0.893       13  14  1.543  0.913
   14  47  1.097  0.928       14  48  1.095  0.918       14  49  1.096  0.923
   15  16  1.366  1.110       15  50  0.972  0.710       16  17  1.401  1.123
   16  21  1.404  1.115       17  18  1.397  1.436       18  19  1.399  1.220
   18  51  1.086  0.906       19  20  1.418  1.178       20  21  1.404  1.395
   21  22  1.392  0.896       22  52  0.967  0.747       23  24  1.208  1.835
   23  25  2.262  0.084       24  25  1.364  0.864

                       TOTAL       BONDED        FREE
      ATOM            VALENCE     VALENCE     VALENCE
    1 C                 3.538       3.538       0.000
    2 C                 3.578       3.578       0.000
    3 C                 3.548       3.548       0.000
    4 C                 3.325       3.323       0.002
    5 C                 3.395       3.395       0.000
    6 C                 3.351       3.351       0.000
    7 C                 3.490       3.485       0.005
    8 N                 2.675       2.674       0.000
    9 C                 3.619       3.619       0.000
   10 C                 3.479       3.477       0.002
   11 C                 3.598       3.598       0.001
   12 C                 3.607       3.607       0.000
   13 C                 3.495       3.495       0.000
   14 C                 3.619       3.619       0.000
   15 O                 1.963       1.922       0.041
   16 C                 3.378       3.325       0.053
   17 C                 3.542       3.383       0.159
   18 C                 3.715       3.554       0.161
   19 C                 3.600       3.290       0.310
   20 C                 3.511       3.381       0.130
   21 C                 3.557       3.444       0.114
   22 O                 1.780       1.778       0.002
   23 O                 1.975       1.975       0.000
   24 C                 3.444       3.444       0.000
   25 O                 1.801       1.801       0.000
   26 H                 0.910       0.910       0.000
   27 H                 0.911       0.911       0.000
   28 H                 0.901       0.901       0.000
   29 H                 0.910       0.910       0.000
   30 H                 0.896       0.896       0.000
   31 H                 0.924       0.924       0.000
   32 H                 0.880       0.880       0.000
   33 H                 0.892       0.892       0.000
   34 H                 0.869       0.868       0.001
   35 H                 0.860       0.860       0.000
   36 H                 0.866       0.866       0.000
   37 H                 0.917       0.917       0.000
   38 H                 0.903       0.903       0.000
   39 H                 0.911       0.911       0.000
   40 H                 0.876       0.876       0.000
   41 H                 0.915       0.915       0.000
   42 H                 0.905       0.905       0.000
   43 H                 0.912       0.912       0.000
   44 H                 0.924       0.924       0.000
   45 H                 0.915       0.915       0.000
   46 H                 0.917       0.917       0.000
   47 H                 0.921       0.921       0.000
   48 H                 0.916       0.916       0.000
   49 H                 0.915       0.915       0.000
   50 H                 0.774       0.774       0.000
   51 H                 0.900       0.899       0.001
   52 H                 0.777       0.777       0.000

          -----------------------------------------
          ATOMIC SPIN DENSITY AT THE NUCLEUS (A.U.)
          -----------------------------------------
                            SPIN DENS    ALPHA DENS     BETA DENS
    1  C            6.0    -0.0003081      47.04981      47.05012
    2  C            6.0     0.0004873      47.03832      47.03783
    3  C            6.0    -0.0029345      47.04707      47.05001
    4  C            6.0     0.0186899      47.20211      47.18342
    5  C            6.0    -0.0065410      47.10461      47.11115
    6  C            6.0     0.0053047      47.11574      47.11043
    7  C            6.0    -0.0325084      47.07125      47.10376
    8  N            7.0     0.0110669      76.67441      76.66334
    9  C            6.0     0.0035458      46.99482      46.99128
   10  C            6.0    -0.0215189      47.07019      47.09171
   11  C            6.0     0.0175749      47.00594      46.98836
   12  C            6.0     0.0004584      47.00761      47.00715
   13  C            6.0     0.0005955      47.12815      47.12755
   14  C            6.0    -0.0004245      47.00336      47.00379
   15  O            8.0     0.0938995     116.88410     116.79020
   16  C            6.0     0.0129470      47.05299      47.04005
   17  C            6.0     0.0947310      47.10415      47.00942
   18  C            6.0    -0.1162345      46.95532      47.07155
   19  C            6.0     0.1497280      47.12519      46.97546
   20  C            6.0    -0.1143553      46.98961      47.10396
   21  C            6.0     0.0836043      47.03212      46.94852
   22  O            8.0     0.0224510     116.75909     116.73664
   23  O            8.0    -0.0029270     116.95337     116.95630
   24  C            6.0    -0.0113482      47.01508      47.02643
   25  O            8.0     0.0005415     116.86815     116.86761
   26  H            1.0     0.0000294       0.18259       0.18256
   27  H            1.0    -0.0000100       0.18288       0.18289
   28  H            1.0     0.0000053       0.18196       0.18195
   29  H            1.0    -0.0000594       0.18400       0.18406
   30  H            1.0     0.0004539       0.18199       0.18153
   31  H            1.0     0.0002950       0.18750       0.18721
   32  H            1.0     0.0003239       0.18268       0.18236
   33  H            1.0    -0.0006781       0.18413       0.18481
   34  H            1.0     0.0116711       0.18715       0.17548
   35  H            1.0    -0.0003346       0.17727       0.17761
   36  H            1.0    -0.0007135       0.17969       0.18041
   37  H            1.0    -0.0001888       0.18287       0.18306
   38  H            1.0    -0.0003702       0.18009       0.18046
   39  H            1.0    -0.0003149       0.18185       0.18216
   40  H            1.0     0.0045442       0.18380       0.17926
   41  H            1.0    -0.0006400       0.18250       0.18314
   42  H            1.0     0.0007396       0.18055       0.17981
   43  H            1.0    -0.0007595       0.18136       0.18212
   44  H            1.0     0.0002649       0.18626       0.18599
   45  H            1.0     0.0004944       0.18186       0.18137
   46  H            1.0     0.0002818       0.18191       0.18163
   47  H            1.0     0.0000052       0.18255       0.18255
   48  H            1.0     0.0000138       0.18216       0.18215
   49  H            1.0    -0.0000138       0.18162       0.18164
   50  H            1.0    -0.0058853       0.15595       0.16183
   51  H            1.0     0.0107401       0.18636       0.17562
   52  H            1.0     0.0038853       0.16515       0.16126

          ---------------------
          ELECTROSTATIC MOMENTS
          ---------------------

 POINT   1           X           Y           Z (BOHR)    CHARGE
                 2.649154   14.010845   -1.366749        1.00 (A.U.)
         DX          DY          DZ         /D/  (DEBYE)
    -3.405551    4.492299   -3.812606    6.805475
 ...... END OF PROPERTY EVALUATION ......
 CPU     0: STEP CPU TIME=     0.16 TOTAL CPU TIME=        143.2 (      2.4 MIN)
 TOTAL WALL CLOCK TIME=        245.1 SECONDS, CPU UTILIZATION IS    58.43%
              1086351  WORDS OF DYNAMIC MEMORY USED
 EXECUTION OF GAMESS TERMINATED NORMALLY Mon May 25 19:43:37 2020
 DDI: 263640 bytes (0.3 MB / 0 MWords) used by master data server.
Note: The following floating-point exceptions are signalling: IEEE_DENORMALNote: The following floating-point exceptions are signalling: IEEE_DENORMALNote: The following floating-point exceptions are signalling:
 ----------------------------------------
 CPU timing information for all processes
 ========================================
 0: 142.129 + 1.115 = 143.245
 1: 140.332 + 0.632 = 140.965
 2: 141.01 + 0.449 = 141.451
 3: 141.48 + 0.589 = 141.638
 4: 140.597 + 0.608 = 141.205
 5: 140.792 + 0.509 = 141.301
 ----------------------------------------


Note: The following floating-point exceptions are signalling: IEEE_DENORMALNote: The following floating-point exceptions are signalling: IEEE_DENORMALNote: The following floating-point exceptions are signalling: IEEE_DENORMAL IEEE_DENORMAL



 ddikick.x: exited gracefully.
unset echo
----- accounting info -----
Files used on the master node pietdev were:
-rwxr-xr-x 1 piet piet     2139 mei 25 19:39 /home/piet/scr/rosmaricine_fukui_base.F05*
-rw-r--r-- 1 piet piet 68812800 mei 25 19:43 /home/piet/scr/rosmaricine_fukui_base.F10
ls: No match.
ls: No match.
ls: No match.
ma 25 mei 2020 19:43:40 CEST
0.140u 0.022s 4:08.36 0.0%	0+0k 0+8io 0pf+0w
