----- GAMESS execution script 'rungms' -----
This job is running on host pietdev
under operating system Linux at vr 22 mei 2020 16:29:31 CEST
Available scratch disk space (Kbyte units) at beginning of the job is
Filesystem     1K-blocks     Used Available Use% Mounted on
/dev/sda2      244568380 31372876 200702448  14% /
GAMESS temporary binary files will be written to /home/piet/scr
GAMESS supplementary output files will be written to /home/piet/gamess/scr
Copying input file d-hydroxyacetone_charge_geodisk.inp to your run's scratch directory...
cp d-hydroxyacetone_charge_geodisk.inp /home/piet/scr/d-hydroxyacetone_charge_geodisk.F05
unset echo
 
Assuming a single but multicore node.
 
/home/piet/gamess/ddikick.x /home/piet/gamess/gamess.03.x d-hydroxyacetone_charge_geodisk -ddi 1 8 pietdev:cpus=8 -scr /home/piet/scr

 Distributed Data Interface kickoff program.
 Initiating 8 compute processes on 1 nodes to run the following command:
 /home/piet/gamess/gamess.03.x d-hydroxyacetone_charge_geodisk 

          ******************************************************
          *         GAMESS VERSION = 30 SEP 2019 (R2)          *
          *             FROM IOWA STATE UNIVERSITY             *
          * M.W.SCHMIDT, K.K.BALDRIDGE, J.A.BOATZ, S.T.ELBERT, *
          *   M.S.GORDON, J.H.JENSEN, S.KOSEKI, N.MATSUNAGA,   *
          *          K.A.NGUYEN, S.J.SU, T.L.WINDUS,           *
          *       TOGETHER WITH M.DUPUIS, J.A.MONTGOMERY       *
          *         J.COMPUT.CHEM.  14, 1347-1363(1993)        *
          **************** 64 BIT LINUX VERSION ****************

  SINCE 1993, STUDENTS AND POSTDOCS WORKING AT IOWA STATE UNIVERSITY
  AND ALSO IN THEIR VARIOUS JOBS AFTER LEAVING ISU HAVE MADE IMPORTANT
  CONTRIBUTIONS TO THE CODE:
     IVANA ADAMOVIC, CHRISTINE AIKENS, YURI ALEXEEV, POOJA ARORA,
     ANDREY ASADCHEV, ROB BELL, PRADIPTA BANDYOPADHYAY, JONATHAN BENTZ,
     COLLEEN BERTONI, BRETT BODE, KURT BRORSEN, CALEB CARLIN, GALINA CHABAN,
     WEI CHEN, CHEOL HO CHOI, PAUL DAY, ALBERT DEFUSCO, NUWAN DESILVA,
     TIM DUDLEY, DMITRI FEDOROV, ALEX FINDLATER, GRAHAM FLETCHER, 
     MARK FREITAG, KURT GLAESEMANN, EMILIE B GUIDEZ, ANASTASIA GUNINA, 
     DAN KEMP, SAROM SOK LEANG, GRANT MERRILL,
     NORIYUKI MINEZAWA, JONATHAN MULLIN,
     TAKESHI NAGATA, SEAN NEDD, HEATHER NETZLOFF, BOSILJKA NJEGIC, RYAN OLSON,
     MIKE PAK, BUU PHAM, DAVID POOLE,
     SPENCER PRUITT, LUKE ROSKOP, TOSAPORN SATTASATHUCHANA,
     JIM SHOEMAKER, LYUDMILA SLIPCHENKO,
     TONY SMITH, JIE SONG, TETSUYA TAKETSUGU, SIMON WEBB,
     JORGE LUIS GALVEZ VALLEJO, PENG XU, SOOHAENG YOO,
     FEDERICO ZAHARIEV

  ADDITIONAL CODE HAS BEEN PROVIDED BY COLLABORATORS IN OTHER GROUPS:
     IOWA STATE UNIVERSITY:
          JOE IVANIC, AARON WEST, LAIMUTIS BYTAUTAS, KLAUS RUEDENBERG
     UNIVERSITY OF TOKYO: KIMIHIKO HIRAO, TAKAHITO NAKAJIMA,
          TAKAO TSUNEDA, MUNEAKI KAMIYA, SUSUMU YANAGISAWA,
          KIYOSHI YAGI, MAHITO CHIBA, SEIKEN TOKURA, NAOAKI KAWAKAMI
     UNIVERSITY OF AARHUS: FRANK JENSEN
     UNIVERSITY OF IOWA: VISVALDAS KAIRYS, HUI LI
     NATIONAL INST. OF STANDARDS AND TECHNOLOGY: WALT STEVENS, DAVID GARMER
     UNIVERSITY OF PISA: BENEDETTA MENNUCCI, JACOPO TOMASI
     UNIVERSITY OF MEMPHIS: HENRY KURTZ, PRAKASHAN KORAMBATH
     UNIVERSITY OF ALBERTA: TOBY ZENG, MARIUSZ KLOBUKOWSKI
     UNIVERSITY OF NEW ENGLAND: MARK SPACKMAN
     MIE UNIVERSITY: HIROAKI UMEDA
     NAT. INST. OF ADVANCED INDUSTRIAL SCIENCE AND TECHNOLOGY: KAZUO KITAURA
     MICHIGAN STATE UNIVERSITY:
          KAROL KOWALSKI, MARTA WLOCH, JEFFREY GOUR, JESSE LUTZ,
          WEI LI, JUN SHEN, J. EMILIANO DEUSTUA, PIOTR PIECUCH
     UNIVERSITY OF MINNESOTA:
          ANDREW SAND, PRACHI SHARMA, YINAN SHU
     UNIVERSITY OF SILESIA: MONIKA MUSIAL, STANISLAW KUCHARSKI
     FACULTES UNIVERSITAIRES NOTRE-DAME DE LA PAIX:
          OLIVIER QUINET, BENOIT CHAMPAGNE
     UNIVERSITY OF CALIFORNIA - SANTA BARBARA: BERNARD KIRTMAN
     INSTITUTE FOR MOLECULAR SCIENCE:
          KAZUYA ISHIMURA, MICHIO KATOUDA, AND SHIGERU NAGASE
     UNIVERSITY OF NOTRE DAME: ANNA POMOGAEVA, DAN CHIPMAN
     KYUSHU UNIVERSITY:
          HARUYUKI NAKANO,
          FENG LONG GU, JACEK KORCHOWIEC, MARCIN MAKOWSKI, AND YURIKO AOKI,
          HIROTOSHI MORI AND EISAKU MIYOSHI
     PENNSYLVANIA STATE UNIVERSITY:
          TZVETELIN IORDANOV, CHET SWALINA, JONATHAN SKONE,
          SHARON HAMMES-SCHIFFER
     WASEDA UNIVERSITY:
          MASATO KOBAYASHI, TOMOKO AKAMA, TSUGUKI TOUMA,
          TAKESHI YOSHIKAWA, YASUHIRO IKABATA, JUNJI SEINO,
          YUYA NAKAJIMA, HIROMI NAKAI
     NANJING UNIVERSITY: SHUHUA LI
     UNIVERSITY OF NEBRASKA:
          PEIFENG SU, DEJUN SI, NANDUN THELLAMUREGE, YALI WANG, HUI LI
     UNIVERSITY OF ZURICH: ROBERTO PEVERATI, KIM BALDRIDGE
     N. COPERNICUS UNIVERSITY AND JACKSON STATE UNIVERSITY:
          MARIA BARYSZ
     UNIVERSITY OF COPENHAGEN: Jimmy Kromann, CASPER STEINMANN
     TOKYO INSTITUTE OF TECHNOLOGY: HIROYA NAKATA
     NAGOYA UNIVERSITY: YOSHIO NISHIMOTO, STEPHAN IRLE
     MOSCOW STATE UNIVERSITY: VLADIMIR MIRONOV
     A.N.NESMEYANOV INSTITUTE OF ORGANOELEMENT COMPOUNDS OF RUSSIAN ACADEMY OF SCIENCES:
          IGOR S. GERASIMOV
     JOHANNES KEPLER UNIVERSITY LINZ:
          CHRISTIAN FRIEDL


 PARALLEL VERSION RUNNING ON        8 PROCESSORS IN        1 NODES.

 EXECUTION OF GAMESS BEGUN Fri May 22 16:29:31 2020

            ECHO OF THE FIRST FEW INPUT CARDS -
 INPUT CARD> $BASIS GBASIS=N21 NGAUSS=3 $END                                                
 INPUT CARD> $CONTRL SCFTYP=RHF DFTTYP=B3LYP MAXIT=60 MULT=1 ICHARG=0 $END                  
 INPUT CARD> $SYSTEM MEMDDI=1000 MWORDS=30 $END                                             
 INPUT CARD> $SCF DIRSCF=.TRUE. $END                                                        
 INPUT CARD> $ELPOT  IEPOT=1 WHERE=PDC $END                                                 
 INPUT CARD> $PDC PTSEL=GEODESIC CONSTR=CHARGE $END                                         
 INPUT CARD> $DATA                                                                          
 INPUT CARD>                                                                                
 INPUT CARD>C1                                                                              
 INPUT CARD>O 8.0000000 1.6085067422 0.1412225687 -1.1761732351                             
 INPUT CARD>C 6.0000000 0.7806121965 0.5512952267 -0.1061196918                             
 INPUT CARD>C 6.0000000 -0.6953280131 0.3195120579 -0.4870524539                            
 INPUT CARD>C 6.0000000 -1.7049576321 0.6873216647 0.5577231762                             
 INPUT CARD>O 8.0000000 -0.9336502036 -0.2157372959 -1.5767739325                           
 INPUT CARD>O 8.0000000 0.9129767640 -0.2781946443 1.0875864386                             
 INPUT CARD>H 1.0000000 0.9995401551 -0.3798546240 -1.7875660796                            
 INPUT CARD>H 1.0000000 0.9872173733 1.6035570925 0.1233166799                              
 INPUT CARD>H 1.0000000 -1.4041317049 0.1946286540 1.4889277987                             
 INPUT CARD>H 1.0000000 -1.6803382931 1.7707545700 0.7340891512                             
 INPUT CARD>H 1.0000000 -2.7081155501 0.3827447871 0.2556259834                             
 INPUT CARD>H 1.0000000 1.8864681659 -0.4651499571 1.1878160651                             
 INPUT CARD> $END                                                                           
   30000000 WORDS OF MEMORY AVAILABLE

     BASIS OPTIONS
     -------------
     GBASIS=N21          IGAUSS=       3      POLAR=NONE    
     NDFUNC=       0     NFFUNC=       0     DIFFSP=       F
     NPFUNC=       0      DIFFS=       F     BASNAM=        


     RUN TITLE
     ---------
                                                                                 

 THE POINT GROUP OF THE MOLECULE IS C1      
 THE ORDER OF THE PRINCIPAL AXIS IS     0

 ATOM      ATOMIC                      COORDINATES (BOHR)
           CHARGE         X                   Y                   Z
 O           8.0     3.0396369922        0.2668719581       -2.2226451284
 C           6.0     1.4751431541        1.0417969168       -0.2005371394
 C           6.0    -1.3139794163        0.6037902392       -0.9203956795
 C           6.0    -3.2219027453        1.2988496117        1.0539439800
 O           8.0    -1.7643430532       -0.4076843746       -2.9796706770
 O           8.0     1.7252759171       -0.5257116490        2.0552403569
 H           1.0     1.8888570069       -0.7178211545       -3.3780100754
 H           1.0     1.8655703259        3.0302835105        0.2330347347
 H           1.0    -2.6534241729        0.3677948254        2.8136655550
 H           1.0    -3.1753789406        3.3462409288        1.3872273463
 H           1.0    -5.1175963328        0.7232827708        0.4830630640
 H           1.0     3.5649079181       -0.8790059621        2.2446468869

          INTERNUCLEAR DISTANCES (ANGS.)
          ------------------------------

                1 O          2 C          3 C          4 C          5 O     

   1 O       0.0000000    1.4137127 *  2.4112920 *  3.7793739    2.5981654 *
   2 C       1.4137127 *  0.0000000    1.5418277 *  2.5762857 *  2.3853424 *
   3 C       2.4112920 *  1.5418277 *  0.0000000    1.4987301 *  1.2372478 *
   4 C       3.7793739    2.5762857 *  1.4987301 *  0.0000000    2.4426438 *
   5 O       2.5981654 *  2.3853424 *  1.2372478 *  2.4426438 *  0.0000000  
   6 O       2.4050531 *  1.4596260 *  2.3288163 *  2.8401685 *  3.2423369  
   7 H       1.0080491 *  1.9344848 *  2.2478940 *  3.7354458    1.9515616 *
   8 H       2.0525830 *  1.0966229 *  2.2027894 *  2.8768042 *  3.1448168  
   9 H       4.0226367    2.7284599 *  2.1029733 *  1.0956207 *  3.1286227  
  10 H       4.1377504    2.8721611 *  2.1371797 *  1.0979699 *  3.1374801  
  11 H       4.5542958    3.5114798    2.1463651 *  1.0910342 *  2.6200377 *
  12 H       2.4562971 *  1.9825105 *  3.1759330    3.8240747    3.9570484  

                6 O          7 H          8 H          9 H         10 H     

   1 O       2.4050531 *  1.0080491 *  2.0525830 *  4.0226367    4.1377504  
   2 C       1.4596260 *  1.9344848 *  1.0966229 *  2.7284599 *  2.8721611 *
   3 C       2.3288163 *  2.2478940 *  2.2027894 *  2.1029733 *  2.1371797 *
   4 C       2.8401685 *  3.7354458    2.8768042 *  1.0956207 *  1.0979699 *
   5 O       3.2423369    1.9515616 *  3.1448168    3.1286227    3.1374801  
   6 O       0.0000000    2.8782512 *  2.1157309 *  2.3986722 *  3.3239188  
   7 H       2.8782512 *  0.0000000    2.7541871 *  4.1040324    4.2621137  
   8 H       2.1157309 *  2.7541871 *  0.0000000    3.0933030    2.7416877 *
   9 H       2.3986722 *  4.1040324    3.0933030    0.0000000    1.7692497 *
  10 H       3.3239188    4.2621137    2.7416877 *  1.7692497 *  0.0000000  
  11 H       3.7737658    4.3015000    3.8940177    1.8046592 *  1.7921563 *
  12 H       0.9963352 *  3.1059323    2.4942654 *  3.3695732    4.2340578  

               11 H         12 H     

   1 O       4.5542958    2.4562971 *
   2 C       3.5114798    1.9825105 *
   3 C       2.1463651 *  3.1759330  
   4 C       1.0910342 *  3.8240747  
   5 O       2.6200377 *  3.9570484  
   6 O       3.7737658    0.9963352 *
   7 H       4.3015000    3.1059323  
   8 H       3.8940177    2.4942654 *
   9 H       1.8046592 *  3.3695732  
  10 H       1.7921563 *  4.2340578  
  11 H       0.0000000    4.7642527  
  12 H       4.7642527    0.0000000  

  * ... LESS THAN  3.000


     ATOMIC BASIS SET
     ----------------
 THE CONTRACTED PRIMITIVE FUNCTIONS HAVE BEEN UNNORMALIZED
 THE CONTRACTED BASIS FUNCTIONS ARE NOW NORMALIZED TO UNITY

  SHELL TYPE  PRIMITIVE        EXPONENT          CONTRACTION COEFFICIENT(S)

 O         

      1   S       1           322.0370000    0.059239393389
      1   S       2            48.4308000    0.351499960776
      1   S       3            10.4206000    0.707657921031

      2   L       4             7.4029400   -0.404453583190    0.244586106967
      2   L       5             1.5762000    1.221561761397    0.853955373466

      3   L       6             0.3736840    1.000000000000    1.000000000000

 C         

      4   S       7           172.2560000    0.061766907377
      4   S       8            25.9109000    0.358794042852
      4   S       9             5.5333500    0.700713083689

      5   L      10             3.6649800   -0.395895162119    0.236459946619
      5   L      11             0.7705450    1.215834355681    0.860618805716

      6   L      12             0.1958570    1.000000000000    1.000000000000

 C         

      7   S      13           172.2560000    0.061766907377
      7   S      14            25.9109000    0.358794042852
      7   S      15             5.5333500    0.700713083689

      8   L      16             3.6649800   -0.395895162119    0.236459946619
      8   L      17             0.7705450    1.215834355681    0.860618805716

      9   L      18             0.1958570    1.000000000000    1.000000000000

 C         

     10   S      19           172.2560000    0.061766907377
     10   S      20            25.9109000    0.358794042852
     10   S      21             5.5333500    0.700713083689

     11   L      22             3.6649800   -0.395895162119    0.236459946619
     11   L      23             0.7705450    1.215834355681    0.860618805716

     12   L      24             0.1958570    1.000000000000    1.000000000000

 O         

     13   S      25           322.0370000    0.059239393389
     13   S      26            48.4308000    0.351499960776
     13   S      27            10.4206000    0.707657921031

     14   L      28             7.4029400   -0.404453583190    0.244586106967
     14   L      29             1.5762000    1.221561761397    0.853955373466

     15   L      30             0.3736840    1.000000000000    1.000000000000

 O         

     16   S      31           322.0370000    0.059239393389
     16   S      32            48.4308000    0.351499960776
     16   S      33            10.4206000    0.707657921031

     17   L      34             7.4029400   -0.404453583190    0.244586106967
     17   L      35             1.5762000    1.221561761397    0.853955373466

     18   L      36             0.3736840    1.000000000000    1.000000000000

 H         

     19   S      37             5.4471780    0.156284978695
     19   S      38             0.8245472    0.904690876670

     20   S      39             0.1831916    1.000000000000

 H         

     21   S      40             5.4471780    0.156284978695
     21   S      41             0.8245472    0.904690876670

     22   S      42             0.1831916    1.000000000000

 H         

     23   S      43             5.4471780    0.156284978695
     23   S      44             0.8245472    0.904690876670

     24   S      45             0.1831916    1.000000000000

 H         

     25   S      46             5.4471780    0.156284978695
     25   S      47             0.8245472    0.904690876670

     26   S      48             0.1831916    1.000000000000

 H         

     27   S      49             5.4471780    0.156284978695
     27   S      50             0.8245472    0.904690876670

     28   S      51             0.1831916    1.000000000000

 H         

     29   S      52             5.4471780    0.156284978695
     29   S      53             0.8245472    0.904690876670

     30   S      54             0.1831916    1.000000000000

 TOTAL NUMBER OF BASIS SET SHELLS             =   30
 NUMBER OF CARTESIAN GAUSSIAN BASIS FUNCTIONS =   66
 NUMBER OF ELECTRONS                          =   48
 CHARGE OF MOLECULE                           =    0
 SPIN MULTIPLICITY                            =    1
 NUMBER OF OCCUPIED ORBITALS (ALPHA)          =   24
 NUMBER OF OCCUPIED ORBITALS (BETA )          =   24
 TOTAL NUMBER OF ATOMS                        =   12
 THE NUCLEAR REPULSION ENERGY IS      247.7053187077

 SELECTED MURRAY-HANDY-LAMING RADIAL GRID

 LEGACY BECKE'S FUZZY CELL METHOD

 SELECTED ORIGINAL BECKE'S PARTITION FUNCTION

     LEBEDEV GRID-BASED DFT OPTIONS
     ------------------------------
     DFTTYP=B3LYP   
     NRAD  =      96     NLEB  =     302
     NRAD0 =      24     NLEB0 =     110
     SWOFF =    5.00E-03 (PURE SCF -> DFT)
     SWITCH=    3.00E-04 (COARSE -> TIGHT GRID)
     THRESH=    0.00E+00 GTHRE=    1.00E+00

 GRIMME'S EMPIRICAL DISPERSION CORRECTION= F

     $CONTRL OPTIONS
     ---------------
 SCFTYP=RHF          RUNTYP=ENERGY       EXETYP=RUN     
 MPLEVL=       0     CITYP =NONE         CCTYP =NONE         VBTYP =NONE    
 DFTTYP=B3LYP        TDDFT =NONE    
 MULT  =       1     ICHARG=       0     NZVAR =       0     COORD =UNIQUE  
 PP    =NONE         RELWFN=NONE         LOCAL =NONE         NUMGRD=       F
 ISPHER=      -1     NOSYM =       0     MAXIT =      60     UNITS =ANGS    
 PLTORB=       F     MOLPLT=       F     AIMPAC=       F     FRIEND=        
 NPRINT=       7     IREST =       0     GEOM  =INPUT   
 NORMF =       0     NORMP =       0     ITOL  =      20     ICUT  =       9
 INTTYP=BEST         GRDTYP=BEST         QMTTOL= 1.0E-06

     $SYSTEM OPTIONS
     ---------------
  REPLICATED MEMORY=    30000000 WORDS (ON EVERY NODE).
 DISTRIBUTED MEMDDI=        1000 MILLION WORDS IN AGGREGATE,
 MEMDDI DISTRIBUTED OVER   8 PROCESSORS IS   125000000 WORDS/PROCESSOR.
 TOTAL MEMORY REQUESTED ON EACH PROCESSOR=   155000000 WORDS.
 TIMLIM=      525600.00 MINUTES, OR     365.0 DAYS.
 PARALL= T  BALTYP=  DLB     KDIAG=    0  COREFL= F
 MXSEQ2=     300 MXSEQ3=     150  mem10=         0

     INPUT FOR POTENTIAL-DERIVED CHARGES 
     -----------------------------------
     VDWSCL=    1.40   RMAX=    3.00   DELR=    0.80
     VDWINC=    0.20 PTDENS=    0.28
     LAYER =       4  NFREQ=      30 MAXPDC=   10000
     CONSTR=CHARGE    UNITS=ANGS      PTSEL=GEODESIC
     CENTER=  0.0000  0.0000  0.0000
     DPOLE =  0.0000  0.0000  0.0000
     QPOLE =  0.0000  0.0000  0.0000  0.0000  0.0000  0.0000


          ----------------
          PROPERTIES INPUT
          ----------------

     MOMENTS            FIELD           POTENTIAL          DENSITY
 IEMOM =       1   IEFLD =       0   IEPOT =       1   IEDEN =       0
 WHERE =COMASS     WHERE =NUCLEI     WHERE =PDC        WHERE =NUCLEI  
 OUTPUT=BOTH       OUTPUT=BOTH       OUTPUT=BOTH       OUTPUT=BOTH    
 IEMINT=       0   IEFINT=       0                     IEDINT=       0
                                                       MORB  =       0
          EXTRAPOLATION IN EFFECT
          DIIS IN EFFECT
 ORBITAL PRINTING OPTION: NPREO=     1    66     2     1

     -------------------------------
     INTEGRAL TRANSFORMATION OPTIONS
     -------------------------------
     NWORD  =            0
     CUTOFF = 1.0E-09     MPTRAN =       0
     DIRTRF =       T     AOINTS =DUP     

          ----------------------
          INTEGRAL INPUT OPTIONS
          ----------------------
 NOPK  =       1 NORDER=       0 SCHWRZ=       T

     ------------------------------------------
     THE POINT GROUP IS C1 , NAXIS= 0, ORDER= 1
     ------------------------------------------

     DIMENSIONS OF THE SYMMETRY SUBSPACES ARE
 A   =   66

 ..... DONE SETTING UP THE RUN .....
 CPU     0: STEP CPU TIME=     0.02 TOTAL CPU TIME=          0.0 (      0.0 MIN)
 TOTAL WALL CLOCK TIME=          0.0 SECONDS, CPU UTILIZATION IS    50.00%

          ********************
          1 ELECTRON INTEGRALS
          ********************
 ...... END OF ONE-ELECTRON INTEGRALS ......
 CPU     0: STEP CPU TIME=     0.01 TOTAL CPU TIME=          0.0 (      0.0 MIN)
 TOTAL WALL CLOCK TIME=          0.0 SECONDS, CPU UTILIZATION IS    60.00%

          -------------
          GUESS OPTIONS
          -------------
          GUESS =HUCKEL            NORB  =       0          NORDER=       0
          MIX   =       F          PRTMO =       F          PUNMO =       F
          TOLZ  = 1.0E-08          TOLE  = 1.0E-05
          SYMDEN=       F          PURIFY=       F

 INITIAL GUESS ORBITALS GENERATED BY HUCKEL   ROUTINE.
 HUCKEL GUESS REQUIRES     45708 WORDS.

 SYMMETRIES FOR INITIAL GUESS ORBITALS FOLLOW.   BOTH SET(S).
    24 ORBITALS ARE OCCUPIED (    6 CORE ORBITALS).
     7=A        8=A        9=A       10=A       11=A       12=A       13=A   
    14=A       15=A       16=A       17=A       18=A       19=A       20=A   
    21=A       22=A       23=A       24=A       25=A       26=A       27=A   
    28=A       29=A       30=A       31=A       32=A       33=A       34=A   
 ...... END OF INITIAL ORBITAL SELECTION ......
 CPU     0: STEP CPU TIME=     0.02 TOTAL CPU TIME=          0.0 (      0.0 MIN)
 TOTAL WALL CLOCK TIME=          0.1 SECONDS, CPU UTILIZATION IS    83.33%

                    ----------------------
                    AO INTEGRAL TECHNOLOGY
                    ----------------------
     S,P,L SHELL ROTATED AXIS INTEGRALS, REPROGRAMMED BY
        KAZUYA ISHIMURA (IMS) AND JOSE SIERRA (SYNSTAR).
     S,P,D,L SHELL ROTATED AXIS INTEGRALS PROGRAMMED BY
        KAZUYA ISHIMURA (INSTITUTE FOR MOLECULAR SCIENCE).
     S,P,D,F,G SHELL TO TOTAL QUARTET ANGULAR MOMENTUM SUM 5,
        ERIC PROGRAM BY GRAHAM FLETCHER (ELORET AND NASA ADVANCED
        SUPERCOMPUTING DIVISION, AMES RESEARCH CENTER).
     S,P,D,F,G,L SHELL GENERAL RYS QUADRATURE PROGRAMMED BY
        MICHEL DUPUIS (PACIFIC NORTHWEST NATIONAL LABORATORY).

          --------------------
          2 ELECTRON INTEGRALS
          --------------------

 DIRECT SCF METHOD SKIPS INTEGRAL STORAGE ON DISK.
 DIRECT TRANSFORMATION SKIPS AO INTEGRAL STORAGE ON DISK.
  ...... END OF TWO-ELECTRON INTEGRALS .....
 CPU     0: STEP CPU TIME=     0.02 TOTAL CPU TIME=          0.1 (      0.0 MIN)
 TOTAL WALL CLOCK TIME=          0.1 SECONDS, CPU UTILIZATION IS    87.50%

          --------------------------
             R-B3LYP SCF CALCULATION
          --------------------------

     NUCLEAR ENERGY =       247.7053187077
     MAXIT =   60     NPUNCH=    2
     EXTRAP=T  DAMP=F  SHIFT=F  RSTRCT=F  DIIS=T  DEM=F  SOSCF=F
         DENSITY MATRIX CONVERGENCE THRESHOLD=  2.00E-05
     COARSE -> FINE DFT GRID SWITCH THRESHOLD=  3.00E-04 (SWITCH IN $DFT)
                   HF -> DFT SWITCH THRESHOLD=  5.00E-03 (SWOFF IN $DFT)
     MEMORY REQUIRED FOR RHF ITERS=    487774 WORDS.

 DIRECT SCF CALCULATION, SCHWRZ=T   FDIFF=T,  DIRTHR=  0.00E+00 NITDIR=10
 SCHWARZ INEQUALITY OVERHEAD:      2179 INTEGRALS, T=        0.00

 DFT CODE IS SWITCHING FROM THE FINE GRID NRAD= 96,  NLEB=  302
                      TO THE COARSE GRID NRAD0= 24, NLEB0=  110

     EXCHANGE FUNCTIONAL   =B88&HFX   
     CORRELATION FUNCTIONAL=LYP88&VWN5
     DFT THRESHOLD         =.115E-07
     GRID CHANGE THRESHOLD =.300E-03
 FOR AN EULER-MACLAURIN QUADRATURE USING  96 RADIAL POINTS:
 SMALLEST GAUSSIAN PRIMITIVE EXPONENT=        0.1831915800 OF TYPE -S-
 ON ATOM NUMBER   7 HAS RADIAL NORMALIZATION=  1.000000
  LARGEST GAUSSIAN PRIMITIVE EXPONENT=      322.0370000000 OF TYPE -S-
 ON ATOM NUMBER   1 HAS RADIAL NORMALIZATION=  1.000000
 DFT IS SWITCHED OFF, PERFORMING PURE SCF UNTIL SWOFF THRESHOLD IS REACHED.

                                                                                   NONZERO     BLOCKS
 ITER EX DEM     TOTAL ENERGY        E CHANGE  DENSITY CHANGE    DIIS ERROR      INTEGRALS    SKIPPED
   1  0  0     -338.8129938737  -338.8129938737   0.659771439   0.646982434        2009206      29591
          * * *   INITIATING DIIS PROCEDURE   * * *
   2  1  0     -339.6665703053    -0.8535764316   0.147987265   0.201719838        2007237      30675
   3  2  0     -339.7199841685    -0.0534138632   0.083801250   0.161118526        1998609      32521
   4  3  0     -339.7623537333    -0.0423695648   0.026386885   0.012736204        1986576      34186
   5  4  0     -339.7637087983    -0.0013550650   0.003492878   0.003615192        1964311      36260
 CONVERGED TO SWOFF, SO DFT CALCULATION IS NOW SWITCHED ON.
          * * *   INITIATING DIIS PROCEDURE   * * *
   6  5  0     -341.4725640971    -1.7088552988   0.119689734   0.061415937        2009711      29313
   7  6  0     -341.4950523991    -0.0224883020   0.109055233   0.066985622        1999655      32435
   8  7  0     -341.4896432489     0.0054091502   0.055488643   0.108298824        1990176      33632
   9  8  0     -341.5039991875    -0.0143559385   0.008845672   0.019434998        1979746      34930
  10  9  0     -341.5045841718    -0.0005849843   0.001087930   0.002552793        1949130      37360
  11 10  0     -341.5046003994    -0.0000162276   0.000373717   0.000674374        1879777      42002
  12 11  0     -341.5046015965    -0.0000011971   0.000105154   0.000120906        1831032      44626
 DFT CODE IS SWITCHING BACK TO THE FINE GRID
          * * *   INITIATING DIIS PROCEDURE   * * *
  13 12  0     -341.5044268352     0.0001747613   0.002885804   0.001222550        2009910      29157
  14 13  0     -341.5044417911    -0.0000149559   0.000753049   0.000608759        1900977      40595
  15 14  0     -341.5044420552    -0.0000002640   0.000452479   0.000813362        1856025      43446
  16 15  0     -341.5044431502    -0.0000010950   0.000245017   0.000363267        1820053      45737
  17 16  0     -341.5044432874    -0.0000001372   0.000060702   0.000087063        1759542      48818
  18 17  0     -341.5044433022    -0.0000000148   0.000010114   0.000013737        1669946      53953
  19 18  0     -341.5044433028    -0.0000000006   0.000004651   0.000004789        1570327      57950

          -----------------
          DENSITY CONVERGED
          -----------------
     TIME TO FORM FOCK OPERATORS=       4.1 SECONDS (       0.2 SEC/ITER)
     FOCK TIME ON FIRST ITERATION=       0.0, LAST ITERATION=       0.5
     TIME TO SOLVE SCF EQUATIONS=       0.2 SECONDS (       0.0 SEC/ITER)

 FINAL R-B3LYP ENERGY IS     -341.5044433028 AFTER  19 ITERATIONS
 DFT EXCHANGE + CORRELATION ENERGY =       -35.5220499557
 TOTAL ELECTRON NUMBER             =        47.9999419927

          ------------
          EIGENVECTORS
          ------------

                      1          2          3          4          5
                  -19.0598   -19.0359   -19.0326   -10.2308   -10.2263
                     A          A          A          A          A   
    1  O  1  S   -0.002566   0.088491   0.978613  -0.000000  -0.000105
    2  O  1  S   -0.000733   0.010988   0.105536  -0.000189  -0.000803
    3  O  1  X   -0.000254  -0.000334  -0.003698   0.000084  -0.000190
    4  O  1  Y   -0.000134  -0.000415  -0.000371  -0.000085   0.000157
    5  O  1  Z   -0.000450   0.000694   0.001379  -0.000298  -0.000012
    6  O  1  S    0.003423  -0.009866  -0.053779  -0.000342   0.009552
    7  O  1  X    0.000127   0.002215   0.010801   0.000787  -0.001941
    8  O  1  Y    0.000875   0.001546  -0.000291   0.000298   0.000353
    9  O  1  Z    0.002929  -0.004707  -0.006393   0.001050   0.002634
   10  C  2  S    0.000209  -0.001221  -0.001038  -0.087766   0.982647
   11  C  2  S    0.000874  -0.005293  -0.004430  -0.011894   0.111135
   12  C  2  X    0.000251   0.001166   0.001191   0.000272  -0.000916
   13  C  2  Y   -0.000295  -0.000629  -0.000152   0.000167  -0.000120
   14  C  2  Z    0.000025   0.001221  -0.001201   0.000073  -0.000041
   15  C  2  S   -0.001964   0.027732   0.026346   0.025576  -0.086069
   16  C  2  X   -0.003137  -0.001455   0.003732  -0.013318   0.012304
   17  C  2  Y    0.005562  -0.011522  -0.008527   0.000515   0.002132
   18  C  2  Z    0.007064   0.005455  -0.013337   0.000001   0.003345
   19  C  3  S    0.000112   0.000165   0.000287   0.981800   0.087157
   20  C  3  S    0.001151   0.000140   0.000983   0.107251   0.006661
   21  C  3  X   -0.000585  -0.000863  -0.000309   0.000186  -0.000539
   22  C  3  Y   -0.000724  -0.000059  -0.000203  -0.000402  -0.000048
   23  C  3  Z   -0.001409  -0.000514  -0.000089  -0.000122   0.000239
   24  C  3  S    0.018986  -0.006777  -0.009789  -0.069994   0.017588
   25  C  3  X   -0.001597  -0.005999  -0.007686  -0.004715   0.022497
   26  C  3  Y   -0.013071   0.002408   0.002853  -0.008402  -0.000989
   27  C  3  Z   -0.026294  -0.000207   0.004491  -0.021049  -0.003800
   28  C  4  S   -0.000019   0.000121  -0.000057  -0.004295  -0.003677
   29  C  4  S   -0.000162   0.000853  -0.000517  -0.002905  -0.003220
   30  C  4  X   -0.000093   0.000103  -0.000603  -0.000304  -0.001425
   31  C  4  Y   -0.000223   0.000257   0.000035   0.000337  -0.000242
   32  C  4  Z   -0.000307   0.000040  -0.000025   0.000603   0.000084
   33  C  4  S    0.007094  -0.003594  -0.001918   0.022461   0.011450
   34  C  4  X    0.007820  -0.000831   0.001765   0.012556   0.006698
   35  C  4  Y    0.002382  -0.001074   0.000175  -0.003190  -0.000009
   36  C  4  Z    0.002234   0.000635   0.002206  -0.007694  -0.003939
   37  O  5  S    0.982754   0.001398   0.002306   0.000396   0.000103
   38  O  5  S    0.107262  -0.000054  -0.000173   0.001769   0.000433
   39  O  5  X    0.001236  -0.000124   0.000160  -0.000041   0.000267
   40  O  5  Y    0.001953   0.000039  -0.000093  -0.000251  -0.000179
   41  O  5  Z    0.003958   0.000070  -0.000156  -0.000766  -0.000403
   42  O  5  S   -0.062406   0.001300   0.003555  -0.005124  -0.003851
   43  O  5  X   -0.004406   0.001136   0.000234  -0.001452  -0.003638
   44  O  5  Y   -0.007198  -0.000211   0.000768  -0.002790  -0.000372
   45  O  5  Z   -0.014668   0.000267   0.001694  -0.004468  -0.000498
   46  O  6  S   -0.001230   0.978529  -0.088109  -0.000001  -0.000175
   47  O  6  S   -0.000287   0.104717  -0.007998  -0.000472  -0.001046
   48  O  6  X    0.000119   0.002228   0.000040   0.000888   0.000314
   49  O  6  Y    0.000178   0.001438  -0.000440   0.000042   0.000312
   50  O  6  Z    0.000223  -0.002706  -0.000366   0.000722  -0.000061
   51  O  6  S    0.000252  -0.050404  -0.000122  -0.001183   0.010033
   52  O  6  X   -0.000540  -0.004120  -0.000833  -0.002732  -0.002427
   53  O  6  Y   -0.000967  -0.004837   0.001135  -0.000746   0.001668
   54  O  6  Z   -0.001246   0.009546   0.003563  -0.001489  -0.004063
   55  H  7  S   -0.000539   0.000846   0.003352  -0.000086  -0.000873
   56  H  7  S    0.002468  -0.000604   0.006015   0.001054   0.003419
   57  H  8  S   -0.000461  -0.001396  -0.001088  -0.001618  -0.000825
   58  H  8  S   -0.001983   0.000440   0.000624  -0.000466   0.016405
   59  H  9  S   -0.000495  -0.000448  -0.000272  -0.001557  -0.001095
   60  H  9  S   -0.001566   0.001267  -0.001003   0.000722   0.000380
   61  H 10  S   -0.000591   0.000425  -0.000263  -0.001657  -0.000827
   62  H 10  S   -0.001498   0.000804   0.000192   0.002224  -0.001377
   63  H 11  S    0.000821   0.000200   0.000305  -0.000682  -0.000562
   64  H 11  S    0.002629  -0.000423   0.001130   0.001927   0.003047
   65  H 12  S    0.000105   0.003437   0.000454   0.000886  -0.000523
   66  H 12  S    0.000409   0.005082  -0.001127   0.001258   0.003817

                      6          7          8          9         10
                  -10.1312    -1.0831    -1.0394    -0.9849    -0.7718
                     A          A          A          A          A   
    1  O  1  S   -0.000023  -0.083772  -0.128739   0.157329   0.020743
    2  O  1  S   -0.000320   0.078577   0.117487  -0.147132  -0.018913
    3  O  1  X    0.000190  -0.045615  -0.059902   0.072473  -0.002353
    4  O  1  Y   -0.000139  -0.004722  -0.006162   0.011539   0.014734
    5  O  1  Z   -0.000115   0.015070   0.026454  -0.003420   0.015202
    6  O  1  S    0.000644   0.241201   0.402587  -0.499699  -0.076746
    7  O  1  X   -0.000527  -0.049725  -0.064536   0.081758   0.005099
    8  O  1  Y    0.000565  -0.006685  -0.009712   0.005762   0.009788
    9  O  1  Z    0.000460   0.013233   0.036328  -0.011289   0.004820
   10  C  2  S    0.002682  -0.062413  -0.084156  -0.000080  -0.058199
   11  C  2  S   -0.002141   0.067279   0.095227   0.000570   0.062468
   12  C  2  X    0.000888  -0.000046   0.043046  -0.032544  -0.073316
   13  C  2  Y   -0.000169  -0.028659  -0.046080  -0.016633   0.020201
   14  C  2  Z   -0.000419  -0.022149   0.000421   0.117561   0.002071
   15  C  2  S    0.007649   0.078833   0.139058   0.003738   0.142036
   16  C  2  X   -0.004408   0.009078  -0.014637   0.003264  -0.023036
   17  C  2  Y   -0.000503  -0.006979   0.024682  -0.004227   0.008942
   18  C  2  Z    0.000643  -0.017259   0.018745  -0.005199  -0.000540
   19  C  3  S    0.004202  -0.112990   0.048482  -0.017051  -0.099258
   20  C  3  S   -0.001874   0.119496  -0.052756   0.018007   0.114135
   21  C  3  X    0.000726  -0.007342   0.042710  -0.008201  -0.018697
   22  C  3  Y   -0.000178  -0.056849   0.039094  -0.009014   0.064680
   23  C  3  Z   -0.000637  -0.113226   0.085836  -0.003109   0.145653
   24  C  3  S    0.021920   0.144891  -0.056893   0.027561   0.206760
   25  C  3  X   -0.016626   0.017678   0.006322  -0.010837   0.007543
   26  C  3  Y    0.003368   0.025464  -0.030410   0.004794   0.029920
   27  C  3  Z    0.010540   0.061794  -0.041403   0.038565   0.058123
   28  C  4  S    0.986378  -0.015353   0.005771  -0.007433  -0.170389
   29  C  4  S    0.113127   0.015661  -0.005013   0.007460   0.166142
   30  C  4  X    0.000413   0.010941   0.000150   0.002945   0.052979
   31  C  4  Y    0.000144  -0.005495   0.002420  -0.002509  -0.006491
   32  C  4  Z    0.000022  -0.013251   0.008346  -0.002400  -0.029944
   33  C  4  S   -0.096915   0.000939   0.008456  -0.006925   0.466683
   34  C  4  X   -0.006410  -0.031026   0.016638   0.000430   0.016028
   35  C  4  Y    0.002053  -0.004888   0.006712   0.006074  -0.000239
   36  C  4  Z    0.005851  -0.008492  -0.001245   0.002411  -0.003101
   37  O  5  S    0.000028  -0.175467   0.113587  -0.021275   0.062562
   38  O  5  S    0.000020   0.164463  -0.107216   0.019985  -0.063139
   39  O  5  X   -0.000281   0.032620  -0.011815  -0.002111  -0.014619
   40  O  5  Y   -0.000102   0.053447  -0.034283   0.005846   0.000282
   41  O  5  Z   -0.000117   0.109468  -0.068458   0.015425   0.003081
   42  O  5  S   -0.000701   0.548060  -0.366023   0.077640  -0.209958
   43  O  5  X    0.002584   0.036012  -0.014073  -0.004173  -0.013983
   44  O  5  Y   -0.000202   0.053221  -0.033149   0.009874  -0.001260
   45  O  5  Z   -0.001079   0.106337  -0.071055   0.016672   0.000606
   46  O  6  S    0.000076  -0.053971  -0.131401  -0.169695   0.034621
   47  O  6  S    0.000639   0.050817   0.121927   0.160268  -0.032138
   48  O  6  X   -0.000139   0.012304   0.042694   0.055688  -0.053837
   49  O  6  Y   -0.000036   0.010888   0.023564   0.022647   0.020805
   50  O  6  Z    0.000030  -0.023670  -0.043247  -0.036404  -0.020009
   51  O  6  S   -0.002406   0.158647   0.396560   0.531432  -0.125385
   52  O  6  X    0.001112   0.021267   0.042219   0.052006  -0.043039
   53  O  6  Y   -0.000439   0.012835   0.022863   0.033861   0.012065
   54  O  6  Z    0.000521  -0.020518  -0.055776  -0.043815  -0.005488
   55  H  7  S   -0.000046   0.043904   0.049637  -0.078117  -0.019672
   56  H  7  S    0.001326   0.007401   0.002437  -0.013468  -0.023225
   57  H  8  S   -0.000475   0.018001   0.022192   0.001612   0.036824
   58  H  8  S   -0.000755  -0.005552  -0.015717   0.001149   0.001155
   59  H  9  S    0.000114   0.006931  -0.000978   0.003705   0.088610
   60  H  9  S    0.016407   0.003381   0.007216   0.009782  -0.008125
   61  H 10  S    0.000180   0.006276  -0.002421   0.002505   0.088590
   62  H 10  S    0.016006  -0.001339  -0.001326  -0.002909   0.002493
   63  H 11  S   -0.000007   0.002522  -0.001464   0.002950   0.077159
   64  H 11  S    0.015632  -0.011453   0.002339   0.003994  -0.005940
   65  H 12  S   -0.000097   0.021984   0.062299   0.087560  -0.044875
   66  H 12  S    0.000029   0.000592   0.015164   0.018320  -0.026103

                     11         12         13         14         15
                   -0.6828    -0.5670    -0.5170    -0.4952    -0.4801
                     A          A          A          A          A   
    1  O  1  S    0.062137   0.000177  -0.007749   0.022067  -0.039500
    2  O  1  S   -0.056867  -0.001469   0.007143  -0.020973   0.036536
    3  O  1  X   -0.015169  -0.049629   0.002717  -0.051715   0.100499
    4  O  1  Y    0.061080  -0.148747   0.069569  -0.005255  -0.049802
    5  O  1  Z    0.083023  -0.200977   0.041273  -0.154382  -0.180419
    6  O  1  S   -0.243806   0.012835   0.032528  -0.085575   0.160107
    7  O  1  X    0.000844  -0.047237   0.001637  -0.050902   0.096237
    8  O  1  Y    0.047837  -0.125495   0.052894   0.002141  -0.042206
    9  O  1  Z    0.054175  -0.171221   0.025758  -0.132039  -0.162697
   10  C  2  S   -0.150047   0.061021   0.025279  -0.005553   0.009066
   11  C  2  S    0.150239  -0.060610  -0.022716   0.007957  -0.015095
   12  C  2  X   -0.080014  -0.233231  -0.004707  -0.107489   0.019924
   13  C  2  Y    0.039838  -0.122596   0.085636   0.200558   0.181137
   14  C  2  Z   -0.001240   0.020938  -0.148041  -0.042174   0.208891
   15  C  2  S    0.463610  -0.241124  -0.121968  -0.001322   0.010680
   16  C  2  X   -0.069404  -0.115452   0.044451  -0.079458   0.018457
   17  C  2  Y    0.018450  -0.091802   0.056246   0.157646   0.147984
   18  C  2  Z   -0.008353   0.003230  -0.104859  -0.010240   0.135942
   19  C  3  S   -0.042057  -0.078414  -0.105893   0.033885  -0.007244
   20  C  3  S    0.052434   0.084392   0.121344  -0.044240   0.002654
   21  C  3  X    0.175070   0.100956  -0.081422   0.160946  -0.191019
   22  C  3  Y    0.018129  -0.008343   0.058159   0.128788   0.079010
   23  C  3  Z    0.003284   0.063426  -0.032817  -0.030642   0.095528
   24  C  3  S    0.097092   0.262045   0.358388  -0.112486   0.054664
   25  C  3  X    0.025663   0.098609  -0.027337   0.139831  -0.166398
   26  C  3  Y    0.019176  -0.004182   0.091385   0.068431   0.059047
   27  C  3  Z    0.021557   0.058355   0.063043  -0.102070   0.075292
   28  C  4  S    0.108095   0.038229   0.032861  -0.015594   0.027306
   29  C  4  S   -0.100153  -0.037206  -0.024611   0.009136  -0.019832
   30  C  4  X    0.035543   0.082026   0.074221  -0.014650   0.101413
   31  C  4  Y    0.001290  -0.028321  -0.012438   0.140719  -0.024987
   32  C  4  Z   -0.002436  -0.023711  -0.151761   0.096890  -0.135162
   33  C  4  S   -0.350740  -0.133589  -0.168904   0.113636  -0.158992
   34  C  4  X   -0.003377   0.038141  -0.004491   0.024407   0.064788
   35  C  4  Y    0.000707  -0.013907  -0.007154   0.087635  -0.004843
   36  C  4  Z    0.015192  -0.016955  -0.086798   0.040770  -0.067290
   37  O  5  S    0.022276   0.046907   0.074745  -0.032460  -0.022728
   38  O  5  S   -0.021947  -0.046543  -0.070216   0.028993   0.018293
   39  O  5  X    0.042754   0.069625  -0.021278   0.099221  -0.144419
   40  O  5  Y    0.007034  -0.002861   0.113369   0.021194   0.004138
   41  O  5  Z    0.003309   0.035651   0.137317  -0.150807  -0.043315
   42  O  5  S   -0.077214  -0.181376  -0.289749   0.123206   0.104004
   43  O  5  X    0.036786   0.057601  -0.018881   0.084657  -0.124429
   44  O  5  Y    0.003992  -0.002317   0.100260   0.018974   0.008845
   45  O  5  Z    0.001823   0.027653   0.120840  -0.135852  -0.035986
   46  O  6  S    0.047811  -0.027641   0.004268  -0.005394  -0.008492
   47  O  6  S   -0.042757   0.026835  -0.002647   0.005202   0.007145
   48  O  6  X   -0.090458  -0.080273   0.188748   0.104424  -0.064082
   49  O  6  Y    0.063111  -0.030200  -0.121889  -0.041570   0.123528
   50  O  6  Z   -0.072416  -0.002315   0.138200   0.144120   0.009310
   51  O  6  S   -0.193680   0.109336  -0.012175   0.023048   0.036911
   52  O  6  X   -0.064944  -0.069219   0.168960   0.092966  -0.061013
   53  O  6  Y    0.043207  -0.025201  -0.105867  -0.035523   0.114587
   54  O  6  Z   -0.042231   0.001380   0.123074   0.132251   0.006960
   55  H  7  S   -0.067353   0.142853  -0.047918   0.087144   0.069048
   56  H  7  S   -0.052554   0.095505  -0.069777   0.095304   0.083330
   57  H  8  S    0.104163  -0.121680   0.008924   0.101369   0.119725
   58  H  8  S    0.013247  -0.057222   0.006438   0.069211   0.082631
   59  H  9  S   -0.057679  -0.016486  -0.087203   0.017293  -0.065386
   60  H  9  S   -0.016800   0.004696  -0.058182   0.013932  -0.040015
   61  H 10  S   -0.063067  -0.044224  -0.043104   0.107049  -0.048243
   62  H 10  S   -0.008624  -0.028703  -0.027181   0.087328  -0.033292
   63  H 11  S   -0.076539  -0.060108  -0.039033  -0.019048  -0.050591
   64  H 11  S   -0.025487  -0.037225  -0.040281  -0.011057  -0.021010
   65  H 12  S   -0.084670  -0.028584   0.148222   0.089905  -0.054878
   66  H 12  S   -0.061280  -0.019319   0.123677   0.078563  -0.043468

                     16         17         18         19         20
                   -0.4382    -0.4304    -0.4077    -0.3770    -0.3599
                     A          A          A          A          A   
    1  O  1  S    0.006650  -0.011328  -0.036439  -0.025047   0.018688
    2  O  1  S   -0.006605   0.011097   0.031740   0.020291  -0.016805
    3  O  1  X   -0.011378   0.022407   0.118597   0.000558  -0.026654
    4  O  1  Y   -0.068455   0.012797   0.029663   0.156748  -0.125261
    5  O  1  Z   -0.019523   0.135657  -0.007312   0.026594   0.016553
    6  O  1  S   -0.026482   0.044818   0.160937   0.127676  -0.086304
    7  O  1  X   -0.011633   0.025383   0.111699  -0.004179  -0.028813
    8  O  1  Y   -0.069048   0.015311   0.024987   0.172082  -0.132971
    9  O  1  Z   -0.025655   0.138447  -0.020283   0.023079   0.014088
   10  C  2  S   -0.007308   0.015725   0.029796   0.022142  -0.011902
   11  C  2  S    0.006306  -0.013935  -0.029868  -0.028149   0.015545
   12  C  2  X    0.006614   0.015130   0.057681  -0.038055   0.030545
   13  C  2  Y   -0.085891  -0.138681   0.032906   0.006193  -0.069052
   14  C  2  Z    0.075652  -0.054756   0.065824  -0.115080   0.066530
   15  C  2  S    0.032165  -0.061202  -0.128769  -0.038931   0.027325
   16  C  2  X    0.004181   0.008637   0.092367  -0.089531   0.060573
   17  C  2  Y   -0.079798  -0.115731   0.028050   0.023468  -0.071623
   18  C  2  Z    0.038068  -0.030838   0.044110  -0.075535   0.053106
   19  C  3  S    0.000355  -0.003169  -0.011352   0.009840  -0.004156
   20  C  3  S    0.007298  -0.007630   0.020682  -0.015817   0.007463
   21  C  3  X   -0.017061  -0.026778  -0.024144   0.002558  -0.022070
   22  C  3  Y    0.076380   0.136835  -0.081697   0.137102   0.154211
   23  C  3  Z   -0.171540   0.156296  -0.194061  -0.057524  -0.065095
   24  C  3  S   -0.030562   0.059336   0.012643  -0.045403   0.023506
   25  C  3  X   -0.011088  -0.049014   0.026928  -0.023888  -0.005389
   26  C  3  Y    0.096521   0.087187   0.005551   0.104676   0.195812
   27  C  3  Z   -0.094152   0.060113  -0.000384  -0.067024  -0.096329
   28  C  4  S   -0.000970   0.005782   0.005071   0.006316  -0.008459
   29  C  4  S   -0.000980  -0.002685  -0.007223  -0.005387   0.005441
   30  C  4  X   -0.169983   0.227032   0.134906  -0.057609   0.057510
   31  C  4  Y    0.225905   0.179019   0.108802  -0.074210  -0.160951
   32  C  4  Z   -0.136009  -0.034651   0.219410  -0.002090   0.090411
   33  C  4  S    0.005716  -0.042233  -0.039449  -0.052418   0.071934
   34  C  4  X   -0.131327   0.174768   0.095800  -0.022858   0.038927
   35  C  4  Y    0.167817   0.146243   0.080598  -0.054329  -0.156438
   36  C  4  Z   -0.113564  -0.007318   0.163733  -0.021075   0.097146
   37  O  5  S    0.034283  -0.054021   0.042708  -0.009151   0.002842
   38  O  5  S   -0.029134   0.045937  -0.037658   0.010058  -0.002971
   39  O  5  X    0.015905  -0.081186   0.055122  -0.058323  -0.000811
   40  O  5  Y    0.169366  -0.036744   0.133723   0.188709   0.284272
   41  O  5  Z    0.058494  -0.194132   0.233215  -0.124752  -0.130916
   42  O  5  S   -0.144716   0.231610  -0.151848   0.030128  -0.013641
   43  O  5  X    0.013763  -0.072861   0.051605  -0.062262   0.000359
   44  O  5  Y    0.159495  -0.032816   0.137828   0.201223   0.289004
   45  O  5  Z    0.052332  -0.180528   0.235926  -0.134925  -0.133269
   46  O  6  S   -0.004162   0.004711  -0.016205  -0.078786   0.045135
   47  O  6  S    0.003441  -0.003550   0.013371   0.067542  -0.040036
   48  O  6  X   -0.051432   0.002614  -0.074929  -0.263447   0.146787
   49  O  6  Y    0.073034  -0.050623   0.057832  -0.078955   0.079485
   50  O  6  Z   -0.119812  -0.048308   0.025962   0.134506  -0.138900
   51  O  6  S    0.018538  -0.024116   0.077004   0.357429  -0.202899
   52  O  6  X   -0.039248   0.002206  -0.079459  -0.275077   0.151918
   53  O  6  Y    0.072152  -0.051226   0.061354  -0.081833   0.084801
   54  O  6  Z   -0.117012  -0.049357   0.028306   0.138792  -0.147263
   55  H  7  S    0.028092  -0.068337  -0.038970  -0.067909   0.038034
   56  H  7  S    0.001402  -0.039285  -0.055327  -0.076486   0.029858
   57  H  8  S   -0.033626  -0.106328   0.009473  -0.052915  -0.021954
   58  H  8  S   -0.020808  -0.076069   0.023612  -0.051293  -0.037895
   59  H  9  S   -0.171970  -0.041090   0.122388   0.019403   0.128987
   60  H  9  S   -0.133780  -0.045379   0.125354   0.100332   0.071182
   61  H 10  S    0.136545   0.114859   0.102596  -0.066591  -0.111003
   62  H 10  S    0.120720   0.092160   0.099142  -0.072387  -0.120415
   63  H 11  S    0.085892  -0.171402  -0.159927   0.050702  -0.017843
   64  H 11  S    0.063229  -0.131183  -0.146449   0.061043  -0.028921
   65  H 12  S   -0.061189   0.003555  -0.048104  -0.117720   0.052508
   66  H 12  S   -0.068503   0.007431  -0.038820  -0.094907   0.034577

                     21         22         23         24         25
                   -0.3278    -0.2831    -0.2702    -0.2589    -0.0324
                     A          A          A          A          A   
    1  O  1  S   -0.068667   0.000937  -0.004169   0.024057  -0.001628
    2  O  1  S    0.066664  -0.006362   0.006411  -0.015725   0.003743
    3  O  1  X    0.408626  -0.068753  -0.061098  -0.011770   0.010631
    4  O  1  Y    0.032377   0.103942   0.392346  -0.007999  -0.028856
    5  O  1  Z    0.000856   0.063258  -0.255870   0.009923   0.024867
    6  O  1  S    0.263729   0.032209  -0.003753  -0.157056  -0.005820
    7  O  1  X    0.450108  -0.115848  -0.064302  -0.009092   0.019655
    8  O  1  Y    0.028534   0.130021   0.430650  -0.002307  -0.048871
    9  O  1  Z   -0.010334   0.083655  -0.298570   0.019148   0.036300
   10  C  2  S    0.021565   0.031075   0.004793   0.023269   0.009157
   11  C  2  S   -0.020667  -0.014089   0.001753  -0.016869  -0.014750
   12  C  2  X   -0.136645   0.104947  -0.011528   0.196176   0.003945
   13  C  2  Y   -0.011667  -0.067906  -0.069371   0.094966   0.025912
   14  C  2  Z    0.079986  -0.002534   0.030224   0.051503  -0.031372
   15  C  2  S   -0.127630  -0.236242  -0.027767  -0.193962   0.005513
   16  C  2  X    0.065016   0.146020   0.044053   0.187545  -0.012133
   17  C  2  Y    0.000986   0.067148   0.060386  -0.003980   0.077970
   18  C  2  Z    0.030631   0.107779  -0.091706  -0.012822  -0.088548
   19  C  3  S   -0.030699  -0.012124   0.000463   0.009479  -0.001807
   20  C  3  S    0.024588   0.016960  -0.004395  -0.015166  -0.004199
   21  C  3  X    0.172912  -0.058044  -0.012337  -0.162324  -0.039204
   22  C  3  Y    0.029194   0.009976  -0.015270  -0.004695   0.401733
   23  C  3  Z    0.032659   0.044577   0.010716  -0.001003  -0.190733
   24  C  3  S    0.222625   0.047383   0.032911  -0.051688   0.024182
   25  C  3  X    0.182184   0.167732   0.004330   0.013620  -0.066796
   26  C  3  Y    0.072996  -0.022180  -0.022795  -0.005605   0.491519
   27  C  3  Z    0.113245  -0.075390   0.010246   0.015658  -0.192693
   28  C  4  S    0.001114  -0.022249  -0.005982  -0.025841  -0.001324
   29  C  4  S    0.001773   0.006862   0.002953   0.020420   0.001855
   30  C  4  X   -0.080625   0.063704   0.021349   0.091391   0.001398
   31  C  4  Y   -0.025400  -0.027643   0.001959  -0.035257  -0.020238
   32  C  4  Z   -0.018606  -0.113674   0.014958  -0.106821   0.021636
   33  C  4  S   -0.033756   0.241485   0.050198   0.178524  -0.006717
   34  C  4  X   -0.100254   0.106835   0.010229   0.086672  -0.018318
   35  C  4  Y   -0.022386  -0.030644  -0.005452  -0.041743   0.066915
   36  C  4  Z   -0.000048  -0.150812   0.028531  -0.123853   0.002895
   37  O  5  S   -0.011590   0.005132   0.000544   0.006911   0.000223
   38  O  5  S    0.006625  -0.003946   0.000131  -0.008736  -0.001221
   39  O  5  X    0.161836   0.282034  -0.020016   0.333434   0.028939
   40  O  5  Y   -0.013426  -0.022127  -0.000718   0.025129  -0.317472
   41  O  5  Z   -0.085569  -0.058961   0.002130  -0.044565   0.147317
   42  O  5  S    0.085159  -0.044306  -0.008204  -0.011450   0.007916
   43  O  5  X    0.143508   0.292623  -0.022107   0.370025   0.041506
   44  O  5  Y   -0.006714  -0.026593   0.006090   0.032599  -0.426446
   45  O  5  Z   -0.071422  -0.066079  -0.006549  -0.047883   0.199547
   46  O  6  S    0.019138  -0.009403   0.006846  -0.019296  -0.032101
   47  O  6  S   -0.013473   0.004947  -0.015284   0.012765   0.022227
   48  O  6  X    0.053939   0.017625   0.094477  -0.101808  -0.007482
   49  O  6  Y   -0.015641   0.341343   0.013214  -0.257977   0.014997
   50  O  6  Z   -0.035824   0.178608  -0.233878  -0.154791  -0.090896
   51  O  6  S   -0.098075   0.062481   0.036871   0.112534   0.223468
   52  O  6  X    0.040926   0.019660   0.090510  -0.117082   0.020361
   53  O  6  Y   -0.016027   0.387175   0.041451  -0.292146   0.030417
   54  O  6  Z   -0.042477   0.192630  -0.288827  -0.183603  -0.131130
   55  H  7  S   -0.119604  -0.008612  -0.007379   0.045361  -0.004557
   56  H  7  S   -0.041466   0.033926  -0.014805   0.129589   0.007311
   57  H  8  S   -0.043294  -0.096189  -0.075078   0.117176  -0.054872
   58  H  8  S   -0.051665  -0.147667  -0.131172   0.197551  -0.148074
   59  H  9  S   -0.023911  -0.037195   0.011734  -0.016816   0.088984
   60  H  9  S   -0.044010  -0.035830  -0.038352  -0.019833   0.206360
   61  H 10  S   -0.026223  -0.022553   0.008643  -0.016357  -0.092171
   62  H 10  S   -0.031265  -0.051936  -0.000317  -0.028707  -0.244676
   63  H 11  S    0.071281  -0.002610  -0.018297  -0.023176   0.004052
   64  H 11  S    0.067421  -0.032801  -0.026912  -0.086868   0.014509
   65  H 12  S    0.039265  -0.024458   0.030154  -0.048051  -0.044754
   66  H 12  S    0.065367  -0.043070  -0.026410  -0.060592  -0.126147

                     26         27         28         29         30
                    0.1066     0.1313     0.1334     0.1616     0.1783
                     A          A          A          A          A   
    1  O  1  S    0.023511  -0.098735   0.031698   0.018409   0.013738
    2  O  1  S   -0.024991   0.058694  -0.019417  -0.010897  -0.008624
    3  O  1  X   -0.018704  -0.206061   0.035663   0.007021   0.016109
    4  O  1  Y    0.098163  -0.056226   0.015990   0.062958   0.056092
    5  O  1  Z   -0.000252  -0.022738  -0.002539   0.080885   0.000762
    6  O  1  S   -0.135016   0.843787  -0.262610  -0.151564  -0.119374
    7  O  1  X   -0.008800  -0.372397   0.066355   0.008780   0.041986
    8  O  1  Y    0.158302  -0.097605   0.004610   0.111453   0.122526
    9  O  1  Z    0.052219  -0.012100  -0.005236   0.157822  -0.013519
   10  C  2  S   -0.006412   0.019697  -0.079340  -0.012980   0.096912
   11  C  2  S    0.016455  -0.030285   0.066372  -0.000543  -0.065023
   12  C  2  X    0.036181  -0.128296   0.065866   0.118503   0.034229
   13  C  2  Y   -0.087134   0.071301   0.115619   0.069613  -0.265715
   14  C  2  Z    0.109836   0.153810   0.073117   0.101285  -0.067476
   15  C  2  S   -0.064936  -0.030805   0.795574   0.254984  -1.207956
   16  C  2  X    0.051886  -0.433490   0.245210   0.189891   0.144282
   17  C  2  Y   -0.056757   0.093490   0.422712   0.245878  -0.782215
   18  C  2  Z    0.208447   0.258213   0.179866   0.344381  -0.137365
   19  C  3  S   -0.001454   0.050889   0.001673  -0.021047  -0.022489
   20  C  3  S   -0.020452  -0.003667   0.022265   0.014069   0.014218
   21  C  3  X   -0.013741  -0.018563   0.009581   0.053068   0.097938
   22  C  3  Y    0.079828   0.011466  -0.002828   0.033596   0.027590
   23  C  3  Z   -0.037703   0.026109   0.032032   0.077237   0.010295
   24  C  3  S    0.113323  -0.750438   0.003590   0.241592   0.237912
   25  C  3  X    0.005716   0.017962   0.042580  -0.024830   0.220756
   26  C  3  Y    0.052676   0.029673  -0.092696   0.051202   0.073542
   27  C  3  Z   -0.021126   0.045923   0.183483   0.142978  -0.023781
   28  C  4  S    0.049499  -0.028323  -0.111912   0.091377  -0.051012
   29  C  4  S   -0.032777   0.002004   0.059942  -0.044779   0.023023
   30  C  4  X   -0.010958   0.075929  -0.045789   0.201259   0.068952
   31  C  4  Y    0.056142   0.034769   0.157972   0.041682   0.142891
   32  C  4  Z   -0.044856   0.024887   0.078452   0.098154   0.097092
   33  C  4  S   -0.584136   0.396610   1.427058  -1.184680   0.678576
   34  C  4  X    0.062173   0.429989  -0.232375   0.684553   0.340657
   35  C  4  Y    0.221201   0.154914   0.548317   0.177124   0.530905
   36  C  4  Z   -0.183519   0.142637   0.280105   0.400863   0.303315
   37  O  5  S    0.008813  -0.054665  -0.008701   0.000474   0.005103
   38  O  5  S   -0.008275   0.043876   0.002155  -0.008837  -0.005734
   39  O  5  X   -0.012732   0.128845  -0.044608  -0.019897  -0.072479
   40  O  5  Y   -0.026342   0.023758   0.037245   0.040143  -0.001035
   41  O  5  Z    0.031156   0.062938   0.042013   0.054847   0.012760
   42  O  5  S   -0.059964   0.419055   0.105600   0.034058  -0.037478
   43  O  5  X   -0.026008   0.186262  -0.044370  -0.021682  -0.114889
   44  O  5  Y   -0.037822   0.076899   0.084591   0.050638  -0.014339
   45  O  5  Z    0.023449   0.171707   0.069781   0.077444   0.016455
   46  O  6  S    0.094713   0.020273   0.013955  -0.007423  -0.008428
   47  O  6  S   -0.062663  -0.005797  -0.006396   0.003195   0.007395
   48  O  6  X   -0.238117  -0.030083  -0.042529   0.096358   0.006656
   49  O  6  Y   -0.001390  -0.041989  -0.070793  -0.092288   0.042204
   50  O  6  Z    0.014278  -0.058049   0.075405   0.045053   0.025512
   51  O  6  S   -0.774974  -0.199105  -0.127491   0.080690   0.054236
   52  O  6  X   -0.451703  -0.040483  -0.061938   0.178608   0.010407
   53  O  6  Y    0.013895  -0.051954  -0.133169  -0.177053   0.096901
   54  O  6  Z    0.017841  -0.059264   0.103865   0.090937   0.057304
   55  H  7  S    0.052989  -0.125101   0.062455   0.084362   0.012363
   56  H  7  S    0.301240  -0.829171   0.298285   0.458896   0.096177
   57  H  8  S   -0.043188   0.014136  -0.019174  -0.052223   0.057459
   58  H  8  S   -0.013861  -0.048015  -0.992670  -0.560958   1.483912
   59  H  9  S    0.027178  -0.036868  -0.025269  -0.031594  -0.011733
   60  H  9  S    0.538638  -0.378194  -0.494786  -0.125805  -0.380181
   61  H 10  S   -0.027509  -0.041233  -0.035307  -0.012939  -0.083572
   62  H 10  S   -0.029781  -0.399337  -1.266674   0.136627  -1.018406
   63  H 11  S    0.023306   0.075181  -0.010566   0.096730   0.055863
   64  H 11  S    0.315490   0.458164  -0.497252   1.516675   0.452321
   65  H 12  S    0.131609   0.063463  -0.002349  -0.043020  -0.030269
   66  H 12  S    1.058146   0.256322   0.036343  -0.421649  -0.085321

                     31         32         33         34         35
                    0.1906     0.2187     0.2476     0.2500     0.3260
                     A          A          A          A          A   
    1  O  1  S   -0.012471  -0.030989   0.018456  -0.035186  -0.020570
    2  O  1  S    0.009327   0.022100  -0.004227   0.034360   0.012627
    3  O  1  X   -0.013098  -0.141986  -0.011614  -0.068670  -0.086511
    4  O  1  Y   -0.024269   0.043581  -0.186678   0.049613   0.014083
    5  O  1  Z   -0.094165  -0.037492  -0.179492   0.260329   0.119587
    6  O  1  S    0.111332   0.276500  -0.193392   0.222049   0.221675
    7  O  1  X   -0.045338  -0.263565   0.006715  -0.102109  -0.193004
    8  O  1  Y   -0.047375   0.077914  -0.364120   0.106801   0.031777
    9  O  1  Z   -0.180622  -0.058676  -0.406195   0.474467   0.204247
   10  C  2  S   -0.041749   0.034316   0.032258   0.111709   0.131499
   11  C  2  S    0.033866   0.000928  -0.022532  -0.116329  -0.099681
   12  C  2  X    0.031230   0.185640   0.277107  -0.189957   0.118216
   13  C  2  Y   -0.051334  -0.108492   0.166969   0.254175   0.206025
   14  C  2  Z    0.060155   0.300371  -0.235061  -0.025137   0.065300
   15  C  2  S    0.357604  -0.587667  -0.289169  -0.810982  -1.555339
   16  C  2  X    0.101036   0.585789   0.920268  -0.413405   0.856706
   17  C  2  Y   -0.167684  -0.245662   0.424715   0.408977   0.519150
   18  C  2  Z    0.190350   0.622857  -0.637272  -0.156562   0.455494
   19  C  3  S   -0.000998  -0.137229  -0.099532  -0.067569  -0.008986
   20  C  3  S    0.007957   0.074454   0.029673   0.025609  -0.003085
   21  C  3  X    0.028837   0.011584   0.050594  -0.161231   0.489161
   22  C  3  Y   -0.076330   0.149203  -0.033541  -0.073346   0.005566
   23  C  3  Z    0.022782   0.105775   0.060986   0.159061  -0.015083
   24  C  3  S   -0.006887   1.755073   1.382289   0.938813   0.027681
   25  C  3  X    0.054027   0.102518   0.249771  -0.554090   1.779075
   26  C  3  Y   -0.224884   0.426064  -0.108736  -0.036717   0.046511
   27  C  3  Z   -0.031120   0.458087   0.263665   0.642407   0.037389
   28  C  4  S    0.041972   0.051920   0.039947   0.060508  -0.049946
   29  C  4  S   -0.023369  -0.022541  -0.008983  -0.023283   0.005199
   30  C  4  X   -0.028653  -0.203216   0.080834  -0.151606  -0.052583
   31  C  4  Y    0.227748  -0.070698   0.107284   0.147949  -0.034583
   32  C  4  Z   -0.206406   0.133394   0.074909   0.036409  -0.145515
   33  C  4  S   -0.523274  -0.603013  -0.585198  -0.856847   0.830063
   34  C  4  X   -0.193303  -0.896921  -0.024238  -0.708477   0.142816
   35  C  4  Y    0.834516  -0.182887   0.268611   0.584710  -0.377205
   36  C  4  Z   -0.766651   0.541021   0.327595   0.433126  -1.029012
   37  O  5  S    0.000534   0.004470   0.016463   0.009829  -0.027576
   38  O  5  S    0.004740  -0.008564  -0.007454  -0.018590   0.013590
   39  O  5  X    0.032728   0.011174   0.004262   0.025091  -0.163540
   40  O  5  Y    0.015229  -0.067444  -0.036762   0.039044   0.036119
   41  O  5  Z   -0.046784  -0.057743  -0.114183  -0.038759   0.080441
   42  O  5  S   -0.048683  -0.016780  -0.187079  -0.002670   0.306077
   43  O  5  X    0.030015   0.031742  -0.030396   0.101211  -0.341761
   44  O  5  Y    0.033786  -0.110621  -0.044807   0.067959   0.097570
   45  O  5  Z   -0.079061  -0.084281  -0.215433  -0.084793   0.204400
   46  O  6  S    0.015998   0.026081  -0.032323  -0.039929  -0.023827
   47  O  6  S   -0.018857  -0.014970   0.014404   0.027912   0.018057
   48  O  6  X    0.145077   0.014376  -0.115398   0.023945  -0.001974
   49  O  6  Y   -0.072177  -0.122687   0.114073   0.104870   0.006850
   50  O  6  Z    0.067959   0.126441  -0.095968  -0.197841  -0.122404
   51  O  6  S   -0.068522  -0.228237   0.311610   0.351240   0.204404
   52  O  6  X    0.236062   0.055655  -0.259063   0.011014  -0.059550
   53  O  6  Y   -0.152430  -0.221673   0.233325   0.191638   0.016556
   54  O  6  Z    0.181732   0.244308  -0.246658  -0.366591  -0.209729
   55  H  7  S   -0.041678   0.006763  -0.048562   0.042886   0.088734
   56  H  7  S   -0.325024  -0.210537  -0.609347   0.422774   0.082456
   57  H  8  S    0.042155  -0.006249   0.010023   0.014946  -0.036927
   58  H  8  S   -0.045469   0.165834  -0.403465   0.105951  -0.174621
   59  H  9  S    0.115824  -0.043403  -0.031109  -0.021078   0.019348
   60  H  9  S    1.563162  -0.174021   0.025992   0.440595   0.376311
   61  H 10  S   -0.051601  -0.029343   0.028405  -0.046113   0.035843
   62  H 10  S   -0.668702   0.371568  -0.178895  -0.420724   0.209941
   63  H 11  S   -0.018286  -0.026899  -0.011376  -0.028556   0.084773
   64  H 11  S    0.026085  -0.540049   0.522647  -0.118476  -0.455550
   65  H 12  S   -0.022509  -0.041509   0.002915   0.053562   0.004512
   66  H 12  S   -0.440529  -0.227162   0.253012   0.106783  -0.064089

                     36         37         38         39         40
                    0.3976     0.6545     0.6952     0.7444     0.7505
                     A          A          A          A          A   
    1  O  1  S    0.047368  -0.000590  -0.005025  -0.007228  -0.012549
    2  O  1  S   -0.023524   0.044407  -0.005009   0.005634   0.011468
    3  O  1  X    0.017501  -0.114796   0.027223  -0.025252   0.042103
    4  O  1  Y   -0.029603   0.032880   0.035801   0.079346   0.007304
    5  O  1  Z   -0.079978   0.112416  -0.046338  -0.052161  -0.000598
    6  O  1  S   -0.534921  -0.356243   0.155194   0.119042   0.147155
    7  O  1  X    0.140692   0.005923  -0.063757  -0.104298   0.005399
    8  O  1  Y   -0.074810  -0.055229   0.041800   0.097824   0.018309
    9  O  1  Z   -0.200228  -0.070120  -0.008568  -0.058890   0.077542
   10  C  2  S   -0.038833   0.015596   0.006019   0.009645  -0.000427
   11  C  2  S    0.082205   0.018649  -0.016499  -0.046293   0.008103
   12  C  2  X    0.025114  -0.573959  -0.078304  -0.301132   0.359450
   13  C  2  Y   -0.138465   0.036797   0.116418   0.389638  -0.036657
   14  C  2  Z   -0.196960   0.518829  -0.410252  -0.535704   0.090417
   15  C  2  S   -0.059578  -0.407617  -0.013650  -0.021768   0.202125
   16  C  2  X    0.380041   0.936684   0.090192   0.431689  -0.769319
   17  C  2  Y   -0.289558  -0.058485  -0.115574  -0.628488  -0.001178
   18  C  2  Z   -0.716674  -0.731464   0.622760   0.979656  -0.094235
   19  C  3  S    0.051943   0.009907  -0.000969   0.004089   0.003338
   20  C  3  S    0.009867  -0.029608   0.022370   0.018041   0.032721
   21  C  3  X   -0.085600   0.023484  -0.097576   0.075970   0.096025
   22  C  3  Y    0.116931   0.168471   0.770626   0.026327  -0.097231
   23  C  3  Z    0.288314  -0.169538  -0.252670  -0.045896  -0.334308
   24  C  3  S   -0.400111   0.694496  -0.007764   0.534001   0.367960
   25  C  3  X   -0.048668   0.257104   0.192709   0.060388  -0.657815
   26  C  3  Y    0.889156   0.104255  -0.696447  -0.091125  -0.089872
   27  C  3  Z    1.959876   0.738669  -0.031967  -0.069370  -0.046680
   28  C  4  S    0.032764  -0.009181   0.005553  -0.013999  -0.037503
   29  C  4  S    0.045799   0.095164  -0.030338   0.028595   0.080272
   30  C  4  X    0.014337   0.548666  -0.141035   0.308485   0.277694
   31  C  4  Y   -0.064732   0.103088   0.267822  -0.541907  -0.201134
   32  C  4  Z   -0.151877  -0.129997  -0.116944   0.044846  -0.802817
   33  C  4  S   -1.086853  -0.375756   0.168426   0.084487   0.023997
   34  C  4  X   -0.887982  -0.879239   0.280528  -0.481745  -0.245273
   35  C  4  Y    0.026465  -0.216625  -0.435904   0.918954   0.385134
   36  C  4  Z    0.201884   0.055615   0.152347  -0.123054   1.379671
   37  O  5  S   -0.124775  -0.012544   0.000636   0.004647   0.029317
   38  O  5  S    0.061876   0.002360   0.011876   0.012433  -0.017993
   39  O  5  X    0.031574  -0.022978   0.026360   0.012228  -0.134164
   40  O  5  Y    0.102399  -0.008534   0.045865   0.016961  -0.024379
   41  O  5  Z    0.195162  -0.014550   0.005228   0.003463  -0.028389
   42  O  5  S    1.565413   0.266353  -0.126681  -0.149105  -0.299295
   43  O  5  X    0.192502  -0.007348  -0.025922  -0.015916   0.028467
   44  O  5  Y    0.331464   0.049381   0.055214  -0.024533  -0.094889
   45  O  5  Z    0.641388   0.029636  -0.037979  -0.065463  -0.204818
   46  O  6  S   -0.003861  -0.009832   0.015281   0.000456   0.005319
   47  O  6  S   -0.006854  -0.002845  -0.008560   0.061052  -0.013450
   48  O  6  X    0.000547  -0.016681   0.073943  -0.046532  -0.012198
   49  O  6  Y    0.039231   0.009244   0.048666   0.056598   0.001542
   50  O  6  Z    0.034583   0.095558  -0.047820  -0.089457  -0.004847
   51  O  6  S    0.126125   0.235067  -0.223279  -0.427928   0.009322
   52  O  6  X    0.002738  -0.077857   0.021668   0.046550   0.049152
   53  O  6  Y    0.117397   0.090418  -0.079530  -0.129684   0.020155
   54  O  6  Z    0.022174  -0.014323   0.070176   0.180751  -0.015400
   55  H  7  S    0.013136   0.082457  -0.031989  -0.042889  -0.098280
   56  H  7  S    0.184073  -0.135200   0.026233   0.051735   0.100634
   57  H  8  S   -0.027970   0.115544   0.133579   0.135958   0.095996
   58  H  8  S    0.246077   0.039492  -0.044786   0.036297   0.003881
   59  H  9  S   -0.038607   0.049473  -0.261667   0.219003  -0.337374
   60  H  9  S    0.326417   0.062684  -0.050712   0.029842  -0.265509
   61  H 10  S   -0.050237   0.207147   0.270993  -0.329344  -0.227150
   62  H 10  S    0.234403   0.018844   0.029376  -0.141072  -0.192795
   63  H 11  S    0.053173  -0.276416   0.033920  -0.105909   0.028476
   64  H 11  S   -0.292911  -0.040061   0.032633  -0.057319   0.017833
   65  H 12  S    0.003556  -0.041954   0.098270  -0.067550   0.062923
   66  H 12  S   -0.033680  -0.010968  -0.183816  -0.147540   0.066414

                     41         42         43         44         45
                    0.7652     0.8196     0.8526     0.9200     0.9340
                     A          A          A          A          A   
    1  O  1  S    0.012383   0.005685  -0.000063   0.005127  -0.020447
    2  O  1  S   -0.032562   0.015243   0.007040  -0.015037   0.015270
    3  O  1  X   -0.020523  -0.000905  -0.062303   0.090755   0.176694
    4  O  1  Y   -0.050264   0.036980   0.009023  -0.141217   0.085646
    5  O  1  Z   -0.008258   0.029591   0.002501   0.089021   0.038821
    6  O  1  S   -0.038328  -0.210912   0.075602   0.142503   0.398298
    7  O  1  X   -0.099775   0.121827  -0.012856  -0.064652  -0.182985
    8  O  1  Y   -0.029022  -0.024309   0.025175  -0.074745   0.057807
    9  O  1  Z   -0.053765  -0.001408   0.072381   0.074860   0.080289
   10  C  2  S   -0.009821   0.002181  -0.007191   0.001380   0.028588
   11  C  2  S    0.029723   0.052802   0.138881   0.024491   0.076518
   12  C  2  X   -0.475526   0.295018   0.116320  -0.196806   0.036513
   13  C  2  Y   -0.056763   0.078086  -0.296239  -0.687079  -0.216250
   14  C  2  Z   -0.187822   0.318825  -0.358794  -0.036977  -0.233770
   15  C  2  S   -0.734485  -0.319518   0.042125   0.204825  -0.640584
   16  C  2  X    1.290991  -0.273987  -0.173508   0.441340   0.226637
   17  C  2  Y    0.381706  -0.232125   0.313912   1.693445   0.128322
   18  C  2  Z    0.497298  -0.903928   0.349664   0.049857   0.963336
   19  C  3  S   -0.034080  -0.041793  -0.020536   0.001358  -0.016675
   20  C  3  S    0.076106   0.226531   0.133795  -0.096013   0.115759
   21  C  3  X   -0.556277  -0.256438   0.432269   0.112033  -0.331741
   22  C  3  Y   -0.413485   0.134941  -0.323060   0.310713  -0.186112
   23  C  3  Z   -0.461382  -0.597169  -0.554797   0.032776   0.333265
   24  C  3  S    0.936907  -0.397111   0.172240   0.585854   0.126562
   25  C  3  X    1.313715   0.239670  -0.742615   0.035640   1.314502
   26  C  3  Y    0.378811  -0.161674   0.688919  -1.115255   0.360923
   27  C  3  Z    0.202705   1.353959   1.228204  -0.285402  -0.820914
   28  C  4  S    0.005886   0.025324  -0.020678  -0.008086   0.026946
   29  C  4  S    0.005797  -0.001368   0.019680  -0.011155  -0.056954
   30  C  4  X   -0.121013  -0.012530   0.222547  -0.141196   0.359073
   31  C  4  Y    0.050948  -0.256753   0.306921  -0.464126   0.139219
   32  C  4  Z   -0.136466   0.355885   0.233588  -0.050954  -0.004556
   33  C  4  S    0.121694  -0.490277  -0.727889   0.216872   0.710706
   34  C  4  X    0.309538  -0.257456  -0.986205   0.386879  -0.381261
   35  C  4  Y   -0.195595   0.667329  -0.539293   1.104792  -0.674777
   36  C  4  Z    0.056226  -0.694890  -0.126562  -0.013085  -0.421825
   37  O  5  S    0.023833  -0.004300  -0.005690   0.010668   0.001281
   38  O  5  S   -0.015816  -0.030344  -0.011588   0.011200   0.006971
   39  O  5  X   -0.071135  -0.095695   0.105688   0.064895  -0.096473
   40  O  5  Y   -0.090864  -0.019566  -0.063762   0.085936  -0.089227
   41  O  5  Z   -0.140784  -0.196083  -0.134476   0.027723   0.065872
   42  O  5  S   -0.031584   0.564842   0.494904  -0.429780  -0.141085
   43  O  5  X   -0.178112   0.006428   0.106116  -0.022981  -0.126956
   44  O  5  Y   -0.124751   0.111036  -0.008807   0.041029  -0.047456
   45  O  5  Z   -0.183145   0.014207   0.008776  -0.174439   0.024652
   46  O  6  S    0.004468   0.008235   0.002897  -0.004865   0.013826
   47  O  6  S   -0.019067  -0.039191   0.006226  -0.019064   0.004792
   48  O  6  X    0.056402   0.014123  -0.049042  -0.082409  -0.215686
   49  O  6  Y   -0.107711   0.113059  -0.024533  -0.135642   0.015268
   50  O  6  Z   -0.007679   0.100290  -0.046638  -0.031314  -0.023285
   51  O  6  S   -0.004426   0.218656  -0.038902   0.349813  -0.139852
   52  O  6  X   -0.067433  -0.011260   0.022930  -0.135015  -0.026666
   53  O  6  Y   -0.048866   0.126755  -0.041611   0.040488  -0.079434
   54  O  6  Z    0.000187  -0.069260  -0.016711  -0.205389   0.021829
   55  H  7  S    0.091939   0.018095   0.031244   0.430650   0.145487
   56  H  7  S   -0.069476   0.018331   0.369621  -0.336363  -0.152552
   57  H  8  S   -0.352048   0.271937   0.017213  -0.114150   0.628332
   58  H  8  S   -0.119097   0.087571  -0.166987  -0.838059  -0.590348
   59  H  9  S   -0.095332   0.281581  -0.059531   0.054493   0.076287
   60  H  9  S   -0.022186   0.302735   0.073629   0.135099   0.043877
   61  H 10  S    0.018897  -0.089149   0.014092  -0.069813   0.289051
   62  H 10  S    0.054282  -0.073221   0.235697  -0.536009   0.155856
   63  H 11  S    0.296378   0.254202  -0.367585  -0.119858   0.207377
   64  H 11  S    0.016135  -0.177426  -0.274501   0.404312  -0.511396
   65  H 12  S   -0.030357   0.289721   0.148331   0.371012   0.574407
   66  H 12  S   -0.169165  -0.102646  -0.098890  -0.186425  -0.470193

                     46         47         48         49         50
                    0.9737     0.9912     0.9996     1.0297     1.0626
                     A          A          A          A          A   
    1  O  1  S    0.015184   0.006566  -0.032696   0.009623   0.016906
    2  O  1  S   -0.043241  -0.040387   0.019160  -0.011536   0.002449
    3  O  1  X    0.199762   0.276667   0.013912   0.025244  -0.089060
    4  O  1  Y    0.011227   0.141723  -0.161580   0.039914   0.076342
    5  O  1  Z   -0.002970   0.034112  -0.014328   0.006588   0.025075
    6  O  1  S    0.056204   0.360852   0.408693  -0.108870  -0.356613
    7  O  1  X   -0.013066  -0.041545  -0.221012   0.051456   0.132078
    8  O  1  Y    0.106987   0.044932  -0.020052   0.013369  -0.094646
    9  O  1  Z    0.015528   0.202148   0.122853  -0.043516  -0.146792
   10  C  2  S   -0.035326  -0.001641   0.018956  -0.002850   0.018485
   11  C  2  S    0.098747   0.092373   0.044614  -0.061420  -0.237301
   12  C  2  X    0.103062   0.205541   0.149231   0.021157  -0.339006
   13  C  2  Y    0.450863  -0.088105  -0.296455   0.121746  -0.167732
   14  C  2  Z    0.069548  -0.074225  -0.038465   0.061631   0.080189
   15  C  2  S   -0.422825  -0.163844  -0.867232   0.112791   0.889006
   16  C  2  X    0.015427  -0.664596   0.093160  -0.040644   0.516396
   17  C  2  Y   -0.807676   0.171237   1.226739  -0.455269  -0.001930
   18  C  2  Z    0.002682   0.067837   0.654493  -0.212679  -0.446701
   19  C  3  S    0.029037  -0.006965   0.015796   0.009577   0.012033
   20  C  3  S   -0.349297   0.116327  -0.248508  -0.077581  -0.155739
   21  C  3  X   -0.117106  -0.123927  -0.336223   0.022286   0.215618
   22  C  3  Y    0.040265   0.064496   0.202661  -0.157529  -0.054587
   23  C  3  Z    0.060646  -0.013880   0.068703  -0.001095  -0.002677
   24  C  3  S    0.136190  -0.429095   0.385837  -0.123499   0.164457
   25  C  3  X    0.421572   0.223819   1.531493  -0.136453  -0.644432
   26  C  3  Y    0.084371  -0.216512  -0.629759   0.302608   0.078923
   27  C  3  Z   -0.232324  -0.153464  -0.325093   0.073209  -0.041006
   28  C  4  S   -0.049895   0.004580  -0.032576  -0.019389  -0.035994
   29  C  4  S    0.079443  -0.036506   0.019465   0.038550   0.146179
   30  C  4  X    0.081643   0.212036   0.523747   0.037200  -0.158444
   31  C  4  Y    0.244837   0.080525   0.080677  -0.561841   0.225646
   32  C  4  Z    0.122643   0.027052   0.406378   0.357881   0.173265
   33  C  4  S    0.202086   0.309886   0.714325  -0.141567  -0.555861
   34  C  4  X   -0.150599  -0.304140  -0.834205  -0.053651   0.543128
   35  C  4  Y   -0.406731  -0.125889  -0.094957   0.633009  -0.159513
   36  C  4  Z   -0.228261  -0.250987  -1.162993  -0.345942   0.213330
   37  O  5  S   -0.009381  -0.009146   0.012034  -0.006194   0.002156
   38  O  5  S    0.013416   0.019176  -0.018183   0.005574   0.000135
   39  O  5  X   -0.017265  -0.029455  -0.102074   0.008906   0.069240
   40  O  5  Y    0.014521  -0.007340   0.093361  -0.098495  -0.028505
   41  O  5  Z    0.013201  -0.078949   0.071725   0.021258   0.025463
   42  O  5  S   -0.014770   0.038359  -0.221594   0.110588  -0.089088
   43  O  5  X   -0.004679   0.047314  -0.203206   0.030548   0.063278
   44  O  5  Y   -0.019887   0.012161   0.023286   0.034630  -0.012776
   45  O  5  Z    0.039937   0.021975  -0.049708   0.024175  -0.045618
   46  O  6  S    0.027992  -0.021220  -0.002584   0.014631  -0.003030
   47  O  6  S   -0.062795   0.043848  -0.022767  -0.041823   0.013605
   48  O  6  X   -0.116615   0.201620   0.108952   0.119381   0.065371
   49  O  6  Y   -0.009558   0.026127  -0.110374   0.033637   0.126074
   50  O  6  Z    0.068435  -0.084636  -0.084029  -0.039598   0.037701
   51  O  6  S   -0.073454  -0.050401   0.109630  -0.063107   0.028657
   52  O  6  X   -0.047653   0.133720   0.015687  -0.050459  -0.117242
   53  O  6  Y    0.047199  -0.033366  -0.021854   0.003689  -0.051677
   54  O  6  Z    0.046063   0.013641  -0.108262   0.077735   0.012221
   55  H  7  S    0.554482   0.884527  -0.553142   0.142091   0.127711
   56  H  7  S   -0.619935  -0.760359   0.429598  -0.156038  -0.157462
   57  H  8  S   -0.492879   0.096594  -0.217954   0.033617   0.653075
   58  H  8  S    0.902774  -0.045052  -0.430219   0.236583  -0.808040
   59  H  9  S   -0.229126   0.064499  -0.317569  -0.938479  -0.488169
   60  H  9  S    0.083185   0.046500   0.793527   1.246898   0.241924
   61  H 10  S   -0.477083  -0.047128  -0.370616   0.618123  -0.715149
   62  H 10  S    0.539819   0.119780   0.376236  -1.006070   0.795453
   63  H 11  S   -0.227513   0.084955   0.084266  -0.085608   0.411960
   64  H 11  S   -0.089171  -0.328987  -0.843850   0.082512  -0.130539
   65  H 12  S    0.606741  -0.817253  -0.225617   0.015098  -0.004764
   66  H 12  S   -0.540825   0.752165   0.241204  -0.028060  -0.022042

                     51         52         53         54         55
                    1.0972     1.3795     1.4712     1.5203     1.5820
                     A          A          A          A          A   
    1  O  1  S   -0.007428  -0.000498   0.005913   0.023129  -0.003781
    2  O  1  S    0.003138  -0.004705  -0.017671  -0.092405   0.002644
    3  O  1  X    0.062949  -0.057367   0.048003   0.057619  -0.060225
    4  O  1  Y    0.044001  -0.002369  -0.477486   0.010544   0.518406
    5  O  1  Z   -0.011049  -0.100066   0.322860   0.168862  -0.303727
    6  O  1  S    0.094152   0.077350  -0.024084  -0.199792   0.025490
    7  O  1  X   -0.101191   0.004857  -0.040566   0.006326   0.071042
    8  O  1  Y   -0.046246  -0.009464   0.515862  -0.068498  -0.632214
    9  O  1  Z    0.003827   0.130159  -0.353741  -0.342675   0.396615
   10  C  2  S    0.038008   0.029452  -0.009157  -0.009962   0.015549
   11  C  2  S   -0.174100  -0.341409   0.189863  -0.653352  -0.022673
   12  C  2  X    0.035998   0.108784   0.015807   0.012804   0.022116
   13  C  2  Y   -0.117248  -0.076919   0.054996  -0.006573  -0.020970
   14  C  2  Z   -0.010057  -0.099954  -0.008173  -0.025122   0.000279
   15  C  2  S   -0.562901  -0.309961  -0.088476   1.316955  -0.328806
   16  C  2  X    0.472502   0.415092   0.030168  -0.002957  -0.143932
   17  C  2  Y    0.277252   0.434876  -0.342464  -0.171968   0.643248
   18  C  2  Z    0.270634   0.280716   0.083003  -0.151489  -0.482490
   19  C  3  S    0.002571   0.015522  -0.003488   0.002282  -0.000067
   20  C  3  S   -0.043999  -1.213183   0.167964  -0.483774   0.044418
   21  C  3  X   -0.425288  -0.062284   0.038481   0.059629  -0.011191
   22  C  3  Y   -0.077885  -0.129139   0.036966   0.068533   0.100382
   23  C  3  Z   -0.022691  -0.204493   0.005288   0.093404  -0.051275
   24  C  3  S   -0.136425   2.371425  -0.144342  -0.461676  -0.056057
   25  C  3  X    1.631855   0.311214  -0.106541  -0.290306   0.089356
   26  C  3  Y    0.145019   0.227450  -0.189346   0.128874  -0.606251
   27  C  3  Z   -0.072335   0.543447   0.090865   0.300713   0.255894
   28  C  4  S   -0.062180   0.033686  -0.000633   0.002444  -0.001687
   29  C  4  S    0.176031  -0.490734   0.080435  -0.553942  -0.023395
   30  C  4  X   -0.432929   0.081903   0.002866   0.042697  -0.001388
   31  C  4  Y   -0.015546  -0.026484   0.023361   0.001848  -0.030486
   32  C  4  Z   -0.038220  -0.069762  -0.025942  -0.050218   0.042346
   33  C  4  S    0.283072   0.358647  -0.111956   0.902309   0.026383
   34  C  4  X    0.517271  -0.681288   0.015859  -0.168239  -0.011797
   35  C  4  Y   -0.246830   0.109423   0.033344   0.005053   0.304280
   36  C  4  Z   -0.490938   0.344301   0.051121   0.185088  -0.209512
   37  O  5  S   -0.010513   0.011183  -0.000394  -0.056033   0.005468
   38  O  5  S    0.017697  -0.026288   0.003229   0.175842  -0.023294
   39  O  5  X   -0.154621   0.133825   0.042327  -0.127373   0.074974
   40  O  5  Y   -0.026282   0.052107  -0.676852  -0.364831  -0.525106
   41  O  5  Z    0.010208   0.261320   0.319260  -0.681854   0.319439
   42  O  5  S    0.182917  -0.176088   0.016697   0.271356  -0.004211
   43  O  5  X   -0.121378  -0.164522  -0.027900   0.232770  -0.107675
   44  O  5  Y    0.033236  -0.089791   0.718852   0.508165   0.659054
   45  O  5  Z    0.081271  -0.341293  -0.341172   0.965848  -0.403197
   46  O  6  S   -0.000093   0.007238   0.020744   0.014949  -0.034104
   47  O  6  S   -0.001170  -0.029980  -0.061613  -0.033701   0.112281
   48  O  6  X    0.093839   0.278496   0.286065   0.013751  -0.078971
   49  O  6  Y    0.033041   0.239833   0.129951  -0.246859  -0.472907
   50  O  6  Z    0.009804   0.329303  -0.111161  -0.105196   0.191442
   51  O  6  S   -0.011384  -0.010151  -0.132693  -0.159402   0.260576
   52  O  6  X   -0.040110  -0.295242  -0.325203  -0.011877   0.069929
   53  O  6  Y   -0.040530  -0.239980  -0.132336   0.202681   0.620725
   54  O  6  Z   -0.019710  -0.347753   0.177717   0.237592  -0.413270
   55  H  7  S   -0.092975   0.095594   0.011341  -0.096706  -0.037392
   56  H  7  S   -0.030494  -0.038001   0.024334  -0.033403   0.025124
   57  H  8  S    0.413359   0.077839   0.007158   0.024324  -0.081355
   58  H  8  S   -0.592094  -0.430715   0.222677  -0.261790  -0.096541
   59  H  9  S    0.000466   0.268654   0.134201   0.033898   0.013261
   60  H  9  S   -0.067577  -0.481973  -0.199512  -0.365114   0.172782
   61  H 10  S   -0.180915   0.196393  -0.084825  -0.024615  -0.090656
   62  H 10  S    0.216915  -0.414156   0.133072  -0.208919  -0.052330
   63  H 11  S   -1.043340   0.036027  -0.005894   0.004171   0.008169
   64  H 11  S    1.129660  -0.410951   0.062247  -0.309907  -0.014758
   65  H 12  S   -0.114229   0.051225   0.060812   0.042692  -0.044404
[...]
    952   -5.50969   -3.54676    2.90480        -6.238274       6.240243       0.001969
    953    0.37092   -4.93025   -1.25220        -7.931974       7.927172      -0.004802
    954   -1.76434   -3.18945   -7.48066        -6.005102       5.991200      -0.013902
    955   -0.03688   -2.54295   -7.50224        -6.339232       6.330746      -0.008487
    956   -0.69671   -4.27042   -6.43461        -6.274238       6.264269      -0.009969
    957    0.37092   -4.93025   -4.70714        -6.802329       6.798256      -0.004073
    958   -1.76434    2.37408   -7.48066        -6.349634       6.339560      -0.010074
    959   -0.03688    1.72758   -7.50224        -6.649980       6.641087      -0.008893
    960   -1.76434    0.65995   -8.16207        -6.123949       6.111159      -0.012790
    961    0.12369   -0.40768   -7.92259        -6.448792       6.439989      -0.008803
    962   -1.76434   -1.47532   -8.16207        -6.001896       5.987828      -0.014068
    963   -0.69671    3.45505   -6.43461        -6.873304       6.867323      -0.005981
    964   -3.89961    4.11488   -4.70714        -6.819288       6.818156      -0.001132
    965   -2.83198    3.45505   -6.43461        -6.471588       6.464597      -0.006991
    966   -5.62708    3.04725   -4.04730        -6.729516       6.726763      -0.002753
    967   -4.81924    2.64721   -6.03457        -6.258666       6.249617      -0.009049
    968   -3.49181    1.72758   -7.50224        -6.067505       6.055018      -0.012487
    969   -6.28691    1.31978   -5.11494        -6.229149       6.219130      -0.010019
    970   -5.21928    0.65995   -6.84241        -5.940975       5.926671      -0.014305
    971   -6.26533   -0.40768   -5.76144        -5.975091       5.960714      -0.014378
    972   -5.21928   -1.47532   -6.84241        -5.817847       5.801015      -0.016832
    973   -3.65237   -0.40768   -7.92259        -5.865155       5.849395      -0.015760
    974   -3.49181   -2.54295   -7.50224        -5.828253       5.811604      -0.016649
    975   -6.94675   -0.40768   -4.04730        -6.284236       6.274479      -0.009757
    976   -4.54611   -4.90868   -2.97967        -6.330434       6.318354      -0.012080
    977   -5.62708   -3.86262   -1.91204        -6.581074       6.572302      -0.008772
    978   -5.62708   -3.86262   -4.04730        -6.095585       6.081399      -0.014186
    979   -6.70727   -2.29571   -2.97967        -6.382639       6.373297      -0.009343
    980   -6.28691   -2.13515   -5.11494        -5.971802       5.956656      -0.015147
    981   -2.83198   -4.27042   -6.43461        -5.959217       5.944134      -0.015083
    982   -3.89961   -4.93025   -4.70714        -6.070600       6.056124      -0.014476
    983   -4.81924   -3.46258   -6.03457        -5.859547       5.842758      -0.016789
    984   -2.83198   -5.59009   -2.97967        -6.491857       6.481057      -0.010800
    985   -1.76434   -5.35061   -4.86770        -6.294333       6.282957      -0.011376
    986   -0.69671   -5.59009   -2.97967        -6.895327       6.888270      -0.007058
    987   -3.89961   -4.93025   -1.25220        -6.844222       6.835978      -0.008244
    988   -1.76434   -5.35061   -1.09164        -7.241966       7.234551      -0.007414
    989    1.72528   -3.30748    6.55623        -5.960926       5.956676      -0.004250
    990    3.45274   -2.66098    6.57781        -5.848108       5.851150       0.003042
    991    1.72528   -1.59335    7.23764        -5.978061       5.974102      -0.003959
    992    3.61330   -0.52571    6.99816        -5.906754       5.909887       0.003133
    993    1.72528    0.54192    7.23764        -6.135596       6.132247      -0.003348
    994    3.45274    1.60956    6.57781        -6.134372       6.136746       0.002374
    995    1.72528    2.25605    6.55623        -6.403150       6.401562      -0.001589
    996    2.79291   -4.38845    5.51018        -5.949168       5.948798      -0.000371
    997    4.78017    2.52918    5.11014        -6.362262       6.371474       0.009212
    998    2.79291    3.33702    5.51018        -6.573233       6.576154       0.002920
    999    3.86054   -5.04828    0.32777        -6.972702       6.972575      -0.000126
   1000    0.65764    3.33702    5.51018        -6.965963       6.967473       0.001510
   1001   -0.00219    1.60956    6.57781        -6.651170       6.648572      -0.002598
   1002   -1.05649   -5.02670    2.05524        -7.223588       7.213703      -0.009885
   1003   -0.40999   -5.04828    0.32777        -7.729519       7.720857      -0.008663
   1004    0.65764   -5.70811    2.05524        -6.784564       6.775638      -0.008926
   1005    1.72528   -5.46864    0.16721        -7.247986       7.241975      -0.006012
   1006    2.79291   -5.70811    2.05524        -6.508455       6.505876      -0.002579
   1007   -1.32962   -3.58061    5.11014        -6.656431       6.648616      -0.007815
   1008   -0.40999   -5.04828    3.78271        -6.606057       6.596096      -0.009961
   1009   -0.00219   -2.66098    6.57781        -6.221326       6.214044      -0.007283
   1010    0.65764   -4.38845    5.51018        -6.167893       6.160250      -0.007643
   1011    1.72528   -5.46864    3.94327        -6.238994       6.233392      -0.005602
   1012   -0.16275   -0.52571    6.99816        -6.372187       6.366891      -0.005296
   1013    1.88886   -3.10219   -7.23600        -6.148663       6.148033      -0.000630
   1014    3.36954   -2.54805   -7.25450        -6.007384       6.006763      -0.000621
   1015    2.80397   -4.02874   -6.33938        -6.114588       6.115366       0.000778
   1016    4.50734   -3.33630   -5.99649        -6.096406       6.094214      -0.002193
   1017    3.71909   -4.59431   -4.85870        -6.297894       6.297725      -0.000169
   1018    1.88886    1.66655   -7.23600        -6.721486       6.714742      -0.006744
   1019    1.88886    0.19729   -7.82007        -6.381047       6.376734      -0.004313
   1020    3.50717   -0.71782   -7.61480        -6.111402       6.107797      -0.003605
   1021    1.88886   -1.63294   -7.82007        -6.177397       6.175374      -0.002023
   1022    0.97374   -4.02874   -6.33938        -6.422950       6.420685      -0.002265
   1023    0.97374   -5.15988   -3.37801        -7.131880       7.130441      -0.001439
   1024    1.88886   -4.95461   -4.99632        -6.468197       6.468602       0.000405
   1025    2.80397   -5.15988   -3.37801        -6.767607       6.767600      -0.000008
   1026    1.88886   -4.95461   -1.75970        -7.633170       7.631449      -0.001720
   1027    4.82694    3.94540    3.54395        -6.616873       6.626896       0.010023
   1028    3.34626    4.86051    4.10952        -6.471776       6.480230       0.008453
   1029    1.86557    5.41465    4.09103        -6.532652       6.542235       0.009584
   1030    5.74206    4.51097    2.06326        -6.368814       6.376487       0.007673
   1031    5.17649    5.99166    1.14815        -6.033736       6.039985       0.006250
   1032    4.24994    6.88828    0.23303        -5.949984       5.956456       0.006472
   1033    4.48405    5.64876    2.85152        -6.115581       6.124375       0.008794
   1034    3.69580    6.90677    1.71372        -5.923670       5.932698       0.009028
   1035    2.78068    6.34120    3.19441        -6.126800       6.137024       0.010224
   1036    5.17649    5.99166   -0.68208        -6.172578       6.174341       0.001763
   1037    6.10236    4.64859    0.23303        -6.430008       6.431346       0.001338
   1038    3.69580    6.90677   -1.24765        -6.114527       6.119097       0.004569
   1039    4.48405    5.64876   -2.38545        -6.545599       6.541789      -0.003810
   1040    2.78068    6.34120   -2.72834        -6.553524       6.555588       0.002064
   1041    2.78068    7.47234    0.23303        -5.973945       5.983065       0.009120
   1042    0.95046    7.47234    0.23303        -6.255575       6.268173       0.012598
   1043   -0.51880    6.88828    0.23303        -6.780888       6.797969       0.017080
   1044    1.86557    7.26707    1.85135        -6.071913       6.083648       0.011736
   1045    0.03534    6.90677    1.71372        -6.543770       6.559729       0.015959
   1046    0.95046    6.34120    3.19441        -6.446383       6.459217       0.012834
   1047    0.03534    6.90677   -1.24765        -6.732050       6.745216       0.013166
   1048    1.86557    7.26707   -1.38528        -6.269018       6.277478       0.008460
   1049    0.95046    6.34120   -2.72834        -6.877307       6.884812       0.007505
   1050    0.38488    4.86051    4.10952        -7.100709       7.111465       0.010756
   1051   -2.65342   -2.01658    6.67166        -5.948733       5.949800       0.001067
   1052   -1.17274   -1.46243    6.69015        -6.357410       6.353942      -0.003468
   1053   -2.65342   -0.54732    7.25573        -5.827408       5.830370       0.002962
   1054   -1.03511    0.36779    7.05046        -6.294083       6.293394      -0.000689
   1055   -2.65342    1.28291    7.25573        -5.852406       5.857238       0.004833
   1056   -1.17274    2.19802    6.69015        -6.361350       6.364214       0.002864
   1057   -2.65342    2.75217    6.67166        -6.027084       6.033713       0.006629
   1058   -1.73831   -2.94312    5.77504        -6.435772       6.431528      -0.004244
   1059   -4.13411    2.19802    6.69015        -5.757483       5.764847       0.007364
   1060   -5.61480   -0.54732    6.12458        -5.604873       5.610967       0.006095
   1061   -5.27191   -2.25069    5.43215        -5.762951       5.767331       0.004380
   1062   -4.48365   -3.50869    4.29435        -6.162768       6.164475       0.001707
   1063   -4.13411   -1.46243    6.69015        -5.668656       5.672976       0.004320
   1064   -3.56854   -2.94312    5.77504        -5.958258       5.959838       0.001580
   1065   -2.65342   -3.86900    4.43198        -6.556959       6.553868      -0.003092
   1066   -4.27173    0.36779    7.05046        -5.607971       5.613946       0.005975
   1067   -1.69469    5.17647    5.26372        -6.152245       6.162618       0.010373
   1068   -3.17538    5.73061    5.24522        -5.671993       5.683052       0.011058
   1069   -0.79101    7.20423    1.38723        -6.367141       6.383199       0.016058
   1070   -0.55690    5.96472    4.00571        -6.418709       6.431652       0.012944
   1071   -1.34515    7.22273    2.86791        -5.977653       5.992062       0.014409
   1072   -2.26026    6.65716    4.34860        -5.730073       5.742615       0.012541
   1073   -1.34515    7.22273   -0.09346        -6.452971       6.468536       0.015565
   1074   -2.26026    6.65716   -1.57415        -6.665458       6.679125       0.013667
   1075   -2.26026    7.78830    1.38723        -5.814028       5.828398       0.014371
   1076   -4.09049    7.78830    1.38723        -5.467654       5.480610       0.012956
   1077   -5.55975    7.20423    1.38723        -5.361875       5.373572       0.011697
   1078   -3.17538    7.58303    3.00554        -5.493368       5.506679       0.013312
   1079   -5.00561    7.22273    2.86791        -5.291891       5.304059       0.012168
   1080   -4.09049    6.65716    4.34860        -5.400048       5.411990       0.011942
   1081   -5.00561    7.22273   -0.09346        -5.610638       5.622187       0.011550
   1082   -3.17538    7.58303   -0.23108        -5.889487       5.902750       0.013263
   1083   -4.09049    6.65716   -1.57415        -6.160057       6.171175       0.011118
   1084   -6.48629    6.30761    0.47211        -5.517839       5.528118       0.010279
   1085   -5.79386    5.96472   -1.23125        -5.949429       5.958731       0.009301
   1086   -4.65607    5.17647    5.26372        -5.538365       5.548802       0.010437
   1087   -5.79386    5.96472    4.00571        -5.322469       5.333406       0.010936
   1088   -6.48629    6.30761    2.30234        -5.322933       5.333776       0.010843
   1089   -8.42851    3.68466   -0.43205        -5.502359       5.509571       0.007212
   1090   -7.73608    3.34176   -2.13542        -5.842127       5.846808       0.004680
   1091   -6.59828    2.55351   -3.39342        -6.503270       6.502637      -0.000633
   1092   -8.99408    2.20397   -1.34717        -5.392728       5.398237       0.005508
   1093   -8.07897    1.63840   -2.82785        -5.811511       5.813128       0.001617
   1094   -8.97559    0.72328   -1.90131        -5.450693       5.454325       0.003632
   1095   -8.07897   -0.19183   -2.82785        -5.856118       5.855249      -0.000869
   1096   -8.42851    3.68466    1.39818        -5.429577       5.438002       0.008426
   1097   -8.99408    2.20397    2.31329        -5.237359       5.245253       0.007894
   1098   -8.97559    0.72328    2.86743        -5.221358       5.228689       0.007331
   1099   -9.55966    0.72328    1.39818        -5.121651       5.128778       0.007127
   1100   -9.35439    2.34159    0.48306        -5.206081       5.213389       0.007308
   1101   -9.55966    0.72328   -0.43205        -5.199977       5.205928       0.005952
   1102   -7.50197   -3.13471    0.48306        -5.793286       5.795552       0.002267
   1103   -8.42851   -2.23809    1.39818        -5.430421       5.435182       0.004761
   1104   -8.99408   -0.75740    2.31329        -5.232289       5.238772       0.006483
   1105   -8.42851   -2.23809   -0.43205        -5.543866       5.546713       0.002847
   1106   -9.35439   -0.89503    0.48306        -5.215830       5.221492       0.005662
   1107   -8.99408   -0.75740   -1.34717        -5.423093       5.426433       0.003340
   1108   -6.94783   -3.15321   -0.99762        -6.161464       6.159911      -0.001553
   1109   -7.73608   -1.89520   -2.13542        -5.948013       5.946218      -0.001795
   1110   -6.03271   -3.71878    0.48306        -6.415381       6.415244      -0.000137
   1111   -8.07897   -0.19183    3.79398        -5.442798       5.449564       0.006767
   1112   -7.73608   -1.89520    3.10154        -5.565867       5.571264       0.005397
   1113   -6.94783   -3.15321    1.96375        -5.894557       5.897775       0.003218
   1114    5.04559   -2.70924    6.12113        -5.585971       5.596060       0.010089
   1115    6.52628   -1.79412    5.55556        -5.428719       5.443064       0.014345
   1116    7.42290   -0.87901    4.62902        -5.467038       5.482821       0.015783
   1117    5.18322   -0.87901    6.48144        -5.658875       5.669294       0.010420
   1118    6.52628    0.03611    5.55556        -5.580164       5.594461       0.014297
   1119    5.04559    0.95122    6.12113        -5.931076       5.940822       0.009746
   1120    5.94928   -4.73700    2.24465        -5.871901       5.881407       0.009506
   1121    6.87582   -3.84038    3.15976        -5.574952       5.587978       0.013026
   1122    7.44140   -2.35969    4.07488        -5.432454       5.447759       0.015304
   1123    5.39514   -4.75549    3.72533        -5.713101       5.722907       0.009806
   1124    6.18339   -3.49749    4.86313        -5.465279       5.478335       0.013056
   1125    4.48002   -4.18992    5.20602        -5.731069       5.738750       0.007680
   1126    7.44140    0.60168    4.07488        -5.690399       5.705699       0.015299
   1127    6.87582    2.08237    3.15976        -6.194706       6.208223       0.013517
   1128    6.18339    1.73948    4.86313        -5.951658       5.965058       0.013401
   1129    5.39514    2.99748    3.72533        -6.636540       6.648860       0.012320
   1130    6.87582    2.08237    1.32953        -6.784790       6.792523       0.007733
   1131    7.80170    0.73930    2.24465        -6.025528       6.037711       0.012183
   1132    8.00697   -0.87901    3.15976        -5.608583       5.623453       0.014870
   1133    8.00697   -0.87901    1.32953        -6.029666       6.038970       0.009305
   1134    6.87582   -3.84038    1.32953        -5.957205       5.966429       0.009224
   1135    7.44140   -2.35969    0.41442        -6.259150       6.264109       0.004959
   1136    7.80170   -2.49732    2.24465        -5.682932       5.695757       0.012825
   1137    5.39514   -4.75549    0.76396        -6.389902       6.394913       0.005011
   1138    4.48002   -5.32107    2.24465        -6.190962       6.196045       0.005084

 NET CHARGES:
 -------------------------------------
 ATOM                CHARGE    E.S.D.
 -------------------------------------
 O                  -0.6439    0.0127
 C                   0.4448    0.1185
 C                   0.5067    0.0601
 C                  -0.4918    0.2189
 O                  -0.4342    0.0071
 O                  -0.6570    0.0134
 H                   0.4014    0.0047
 H                  -0.0052    0.0120
 H                   0.1621    0.0168
 H                   0.1265    0.0142
 H                   0.1580    0.0162
 H                   0.4325    0.0043
 -------------------------------------

 RMS DEVIATION IS            1.006 KCAL/MOLE
 RELATIVE RMS DEVIATION IS  11.584 %

 MULTIPOLE MOMENTS:
 ---------------------------------------------------------
 STATUS  ACTUAL VALUE       QUANTITY        FITTED VALUE 
 ---------------------------------------------------------
 FIXED       0.0000       TOTAL CHARGE        -0.0000
             1.8877 D    DIPOLE MOMENT         1.8899 D
 FREE       -0.2504 D          DX             -0.2532 D
 FREE        0.9751 D          DY              1.0021 D
 FREE        1.5968 D          DZ              1.5822 D
 FREE        0.0000 BU         QXX             1.0612 BU
 FREE        0.0000 BU         QYY             1.7067 BU
 FREE        0.0000 BU         QZZ            -2.7679 BU
 FREE        0.0000 BU         QXY            -3.8624 BU
 FREE        0.0000 BU         QXZ             1.0576 BU
 FREE        0.0000 BU         QYZ             0.8844 BU
 ---------------------------------------------------------
 ...... END OF PROPERTY EVALUATION ......
 CPU     0: STEP CPU TIME=     0.11 TOTAL CPU TIME=          4.6 (      0.1 MIN)
 TOTAL WALL CLOCK TIME=          8.9 SECONDS, CPU UTILIZATION IS    51.68%
               580000  WORDS OF DYNAMIC MEMORY USED
 EXECUTION OF GAMESS TERMINATED NORMALLY Fri May 22 16:29:40 2020
 DDI: 263640 bytes (0.3 MB / 0 MWords) used by master data server.
Note: The following floating-point exceptions are signalling: IEEE_UNDERFLOW_FLAGNote: The following floating-point exceptions are signalling: IEEE_UNDERFLOW_FLAGNote: The following floating-point exceptions are signalling: IEEE_UNDERFLOW_FLAGNote: The following floating-point exceptions are signalling: IEEE_UNDERFLOW_FLAG IEEE_DENORMAL
Note: The following floating-point exceptions are signalling:
 ----------------------------------------
 CPU timing information for all processes
 ========================================
 0: 4.380 + 0.257 = 4.638
 1: 4.360 + 0.45 = 4.405
 2: 4.187 + 0.60 = 4.248
 3: 3.927 + 0.31 = 3.958
 4: 4.179 + 0.83 = 4.263
 5: 4.105 + 0.21 = 4.126
 6: 4.177 + 0.32 = 4.209
 7: 3.976 + 0.20 = 3.996
 ----------------------------------------
 IEEE_DENORMALNote: The following floating-point exceptions are signalling: IEEE_DENORMAL
 IEEE_DENORMAL
 IEEE_UNDERFLOW_FLAG IEEE_DENORMALNote: The following floating-point exceptions are signalling: IEEE_UNDERFLOW_FLAG
Note: The following floating-point exceptions are signalling: IEEE_UNDERFLOW_FLAG IEEE_UNDERFLOW_FLAG IEEE_DENORMAL
 IEEE_DENORMAL
 IEEE_DENORMAL

 ddikick.x: exited gracefully.
unset echo
----- accounting info -----
Files used on the master node pietdev were:
-rwxr-xr-x 1 piet piet      873 mei 22 16:29 /home/piet/scr/d-hydroxyacetone_charge_geodisk.F05*
-rw-r--r-- 1 piet piet 50790400 mei 22 16:29 /home/piet/scr/d-hydroxyacetone_charge_geodisk.F10
ls: No match.
ls: No match.
ls: No match.
vr 22 mei 2020 16:29:43 CEST
0.113u 0.035s 0:12.12 1.1%	0+0k 0+8io 0pf+0w
