----- GAMESS execution script 'rungms' -----
This job is running on host pietdev
under operating system Linux at vr 22 mei 2020 16:27:28 CEST
Available scratch disk space (Kbyte units) at beginning of the job is
Filesystem     1K-blocks     Used Available Use% Mounted on
/dev/sda2      244568380 31372860 200702464  14% /
GAMESS temporary binary files will be written to /home/piet/scr
GAMESS supplementary output files will be written to /home/piet/gamess/scr
Copying input file d-hydroxyacetone_geoopt.inp to your run's scratch directory...
cp d-hydroxyacetone_geoopt.inp /home/piet/scr/d-hydroxyacetone_geoopt.F05
unset echo
 
Assuming a single but multicore node.
 
/home/piet/gamess/ddikick.x /home/piet/gamess/gamess.03.x d-hydroxyacetone_geoopt -ddi 1 8 pietdev:cpus=8 -scr /home/piet/scr

 Distributed Data Interface kickoff program.
 Initiating 8 compute processes on 1 nodes to run the following command:
 /home/piet/gamess/gamess.03.x d-hydroxyacetone_geoopt 

          ******************************************************
          *         GAMESS VERSION = 30 SEP 2019 (R2)          *
          *             FROM IOWA STATE UNIVERSITY             *
          * M.W.SCHMIDT, K.K.BALDRIDGE, J.A.BOATZ, S.T.ELBERT, *
          *   M.S.GORDON, J.H.JENSEN, S.KOSEKI, N.MATSUNAGA,   *
          *          K.A.NGUYEN, S.J.SU, T.L.WINDUS,           *
          *       TOGETHER WITH M.DUPUIS, J.A.MONTGOMERY       *
          *         J.COMPUT.CHEM.  14, 1347-1363(1993)        *
          **************** 64 BIT LINUX VERSION ****************

  SINCE 1993, STUDENTS AND POSTDOCS WORKING AT IOWA STATE UNIVERSITY
  AND ALSO IN THEIR VARIOUS JOBS AFTER LEAVING ISU HAVE MADE IMPORTANT
  CONTRIBUTIONS TO THE CODE:
     IVANA ADAMOVIC, CHRISTINE AIKENS, YURI ALEXEEV, POOJA ARORA,
     ANDREY ASADCHEV, ROB BELL, PRADIPTA BANDYOPADHYAY, JONATHAN BENTZ,
     COLLEEN BERTONI, BRETT BODE, KURT BRORSEN, CALEB CARLIN, GALINA CHABAN,
     WEI CHEN, CHEOL HO CHOI, PAUL DAY, ALBERT DEFUSCO, NUWAN DESILVA,
     TIM DUDLEY, DMITRI FEDOROV, ALEX FINDLATER, GRAHAM FLETCHER, 
     MARK FREITAG, KURT GLAESEMANN, EMILIE B GUIDEZ, ANASTASIA GUNINA, 
     DAN KEMP, SAROM SOK LEANG, GRANT MERRILL,
     NORIYUKI MINEZAWA, JONATHAN MULLIN,
     TAKESHI NAGATA, SEAN NEDD, HEATHER NETZLOFF, BOSILJKA NJEGIC, RYAN OLSON,
     MIKE PAK, BUU PHAM, DAVID POOLE,
     SPENCER PRUITT, LUKE ROSKOP, TOSAPORN SATTASATHUCHANA,
     JIM SHOEMAKER, LYUDMILA SLIPCHENKO,
     TONY SMITH, JIE SONG, TETSUYA TAKETSUGU, SIMON WEBB,
     JORGE LUIS GALVEZ VALLEJO, PENG XU, SOOHAENG YOO,
     FEDERICO ZAHARIEV

  ADDITIONAL CODE HAS BEEN PROVIDED BY COLLABORATORS IN OTHER GROUPS:
     IOWA STATE UNIVERSITY:
          JOE IVANIC, AARON WEST, LAIMUTIS BYTAUTAS, KLAUS RUEDENBERG
     UNIVERSITY OF TOKYO: KIMIHIKO HIRAO, TAKAHITO NAKAJIMA,
          TAKAO TSUNEDA, MUNEAKI KAMIYA, SUSUMU YANAGISAWA,
          KIYOSHI YAGI, MAHITO CHIBA, SEIKEN TOKURA, NAOAKI KAWAKAMI
     UNIVERSITY OF AARHUS: FRANK JENSEN
     UNIVERSITY OF IOWA: VISVALDAS KAIRYS, HUI LI
     NATIONAL INST. OF STANDARDS AND TECHNOLOGY: WALT STEVENS, DAVID GARMER
     UNIVERSITY OF PISA: BENEDETTA MENNUCCI, JACOPO TOMASI
     UNIVERSITY OF MEMPHIS: HENRY KURTZ, PRAKASHAN KORAMBATH
     UNIVERSITY OF ALBERTA: TOBY ZENG, MARIUSZ KLOBUKOWSKI
     UNIVERSITY OF NEW ENGLAND: MARK SPACKMAN
     MIE UNIVERSITY: HIROAKI UMEDA
     NAT. INST. OF ADVANCED INDUSTRIAL SCIENCE AND TECHNOLOGY: KAZUO KITAURA
     MICHIGAN STATE UNIVERSITY:
          KAROL KOWALSKI, MARTA WLOCH, JEFFREY GOUR, JESSE LUTZ,
          WEI LI, JUN SHEN, J. EMILIANO DEUSTUA, PIOTR PIECUCH
     UNIVERSITY OF MINNESOTA:
          ANDREW SAND, PRACHI SHARMA, YINAN SHU
     UNIVERSITY OF SILESIA: MONIKA MUSIAL, STANISLAW KUCHARSKI
     FACULTES UNIVERSITAIRES NOTRE-DAME DE LA PAIX:
          OLIVIER QUINET, BENOIT CHAMPAGNE
     UNIVERSITY OF CALIFORNIA - SANTA BARBARA: BERNARD KIRTMAN
     INSTITUTE FOR MOLECULAR SCIENCE:
          KAZUYA ISHIMURA, MICHIO KATOUDA, AND SHIGERU NAGASE
     UNIVERSITY OF NOTRE DAME: ANNA POMOGAEVA, DAN CHIPMAN
     KYUSHU UNIVERSITY:
          HARUYUKI NAKANO,
          FENG LONG GU, JACEK KORCHOWIEC, MARCIN MAKOWSKI, AND YURIKO AOKI,
          HIROTOSHI MORI AND EISAKU MIYOSHI
     PENNSYLVANIA STATE UNIVERSITY:
          TZVETELIN IORDANOV, CHET SWALINA, JONATHAN SKONE,
          SHARON HAMMES-SCHIFFER
     WASEDA UNIVERSITY:
          MASATO KOBAYASHI, TOMOKO AKAMA, TSUGUKI TOUMA,
          TAKESHI YOSHIKAWA, YASUHIRO IKABATA, JUNJI SEINO,
          YUYA NAKAJIMA, HIROMI NAKAI
     NANJING UNIVERSITY: SHUHUA LI
     UNIVERSITY OF NEBRASKA:
          PEIFENG SU, DEJUN SI, NANDUN THELLAMUREGE, YALI WANG, HUI LI
     UNIVERSITY OF ZURICH: ROBERTO PEVERATI, KIM BALDRIDGE
     N. COPERNICUS UNIVERSITY AND JACKSON STATE UNIVERSITY:
          MARIA BARYSZ
     UNIVERSITY OF COPENHAGEN: Jimmy Kromann, CASPER STEINMANN
     TOKYO INSTITUTE OF TECHNOLOGY: HIROYA NAKATA
     NAGOYA UNIVERSITY: YOSHIO NISHIMOTO, STEPHAN IRLE
     MOSCOW STATE UNIVERSITY: VLADIMIR MIRONOV
     A.N.NESMEYANOV INSTITUTE OF ORGANOELEMENT COMPOUNDS OF RUSSIAN ACADEMY OF SCIENCES:
          IGOR S. GERASIMOV
     JOHANNES KEPLER UNIVERSITY LINZ:
          CHRISTIAN FRIEDL


 PARALLEL VERSION RUNNING ON        8 PROCESSORS IN        1 NODES.

 EXECUTION OF GAMESS BEGUN Fri May 22 16:27:28 2020

            ECHO OF THE FIRST FEW INPUT CARDS -
 INPUT CARD> $BASIS GBASIS=N21 NGAUSS=3 $END                                                
 INPUT CARD> $CONTRL SCFTYP=RHF RUNTYP=OPTIMIZE DFTTYP=B3LYP MAXIT=60 MULT=1 ICHARG=0 $END  
 INPUT CARD> $SYSTEM MEMDDI=1000 MWORDS=30 $END                                             
 INPUT CARD> $STATPT NSTEP=999 $END                                                         
 INPUT CARD> $SCF DIRSCF=.TRUE. $END                                                        
 INPUT CARD> $DATA                                                                          
 INPUT CARD>                                                                                
 INPUT CARD>C1                                                                              
 INPUT CARD>O 8.0000000 1.59638090 0.17064300 -1.18921850                                   
 INPUT CARD>C 6.0000000 0.78273080 0.50445630 -0.11382850                                   
 INPUT CARD>C 6.0000000 -0.70997110 0.28243810 -0.45917220                                  
 INPUT CARD>C 6.0000000 -1.73532550 0.69518660 0.55856200                                   
 INPUT CARD>O 8.0000000 -0.98211970 -0.24118810 -1.52508800                                 
 INPUT CARD>O 8.0000000 1.00936790 -0.31036510 1.03046460                                   
 INPUT CARD>H 1.0000000 1.07123360 -0.40392560 -1.77771770                                  
 INPUT CARD>H 1.0000000 0.97728080 1.55897900 0.13227540                                    
 INPUT CARD>H 1.0000000 -1.56787960 0.13478460 1.48515180                                   
 INPUT CARD>H 1.0000000 -1.61785050 1.75757780 0.80445420                                   
 INPUT CARD>H 1.0000000 -2.74047110 0.50790600 0.17758300                                   
 INPUT CARD>H 1.0000000 1.96542350 -0.34439250 1.17793380                                   
 INPUT CARD> $END                                                                           
   30000000 WORDS OF MEMORY AVAILABLE

     BASIS OPTIONS
     -------------
     GBASIS=N21          IGAUSS=       3      POLAR=NONE    
     NDFUNC=       0     NFFUNC=       0     DIFFSP=       F
     NPFUNC=       0      DIFFS=       F     BASNAM=        


     RUN TITLE
     ---------
                                                                                 

 THE POINT GROUP OF THE MOLECULE IS C1      
 THE ORDER OF THE PRINCIPAL AXIS IS     0

 ATOM      ATOMIC                      COORDINATES (BOHR)
           CHARGE         X                   Y                   Z
 O           8.0     3.0167224730        0.3224685117       -2.2472971045
 C           6.0     1.4791467342        0.9532841798       -0.2151046746
 C           6.0    -1.3416508382        0.5337306175       -0.8677096392
 C           6.0    -3.2792896945        1.3137121843        1.0555291272
 O           8.0    -1.8559371201       -0.4557794205       -2.8819984272
 O           8.0     1.9074287518       -0.5865049952        1.9472957340
 H           1.0     2.0243379728       -0.7633087034       -3.3593993365
 H           1.0     1.8467929251        2.9460431306        0.2499642609
 H           1.0    -2.9628628257        0.2547059614        2.8065299522
 H           1.0    -3.0572941341        3.3213404441        1.5201980077
 H           1.0    -5.1787394563        0.9598031675        0.3355832101
 H           1.0     3.7141118648       -0.6508074572        2.2259721137

          INTERNUCLEAR DISTANCES (ANGS.)
          ------------------------------

                1 O          2 C          3 C          4 C          5 O     

   1 O       0.0000000    1.3892161 *  2.4217195 *  3.7987038    2.6326942 *
   2 C       1.3892161 *  0.0000000    1.5481322 *  2.6132536 *  2.3795664 *
   3 C       2.4217195 *  1.5481322 *  0.0000000    1.5024965 *  1.2183701 *
   4 C       3.7987038    2.6132536 *  1.5024965 *  0.0000000    2.4053511 *
   5 O       2.6326942 *  2.3795664 *  1.2183701 *  2.4053511 *  0.0000000  
   6 O       2.3458359 *  1.4229213 *  2.3508637 *  2.9609404 *  3.2406261  
   7 H       0.9758279 *  1.9175294 *  2.3199887 *  3.8135318    2.0752265 *
   8 H       2.0142264 *  1.1001977 *  2.1968582 *  2.8785570 *  3.1347576  
   9 H       4.1431977    2.8668387 *  2.1303062 *  1.0957450 *  3.0896624  
  10 H       4.1017528    2.8594313 *  2.1440695 *  1.0967855 *  3.1346428  
  11 H       4.5596248    3.5352347    2.1399120 *  1.0911172 *  2.5596934 *
  12 H       2.4504824 *  1.9462672 *  3.1985573    3.8935703    4.0006236  

                6 O          7 H          8 H          9 H         10 H     

   1 O       2.3458359 *  0.9758279 *  2.0142264 *  4.1431977    4.1017528  
   2 C       1.4229213 *  1.9175294 *  1.1001977 *  2.8668387 *  2.8594313 *
   3 C       2.3508637 *  2.3199887 *  2.1968582 *  2.1303062 *  2.1440695 *
   4 C       2.9609404 *  3.8135318    2.8785570 *  1.0957450 *  1.0967855 *
   5 O       3.2406261    2.0752265 *  3.1347576    3.0896624    3.1346428  
   6 O       0.0000000    2.8104215 *  2.0741795 *  2.6546381 *  3.3510812  
   7 H       2.8104215 *  0.0000000    2.7404188 *  4.2310099    4.3093946  
   8 H       2.0741795 *  2.7404188 *  0.0000000    3.2150343    2.6881169 *
   9 H       2.6546381 *  4.2310099    3.2150343    0.0000000    1.7604840 *
  10 H       3.3510812    4.3093946    2.6881169 *  1.7604840 *  0.0000000  
  11 H       3.9317003    4.3799236    3.8637400    1.7955296 *  1.7930209 *
  12 H       0.9679604 *  3.0885264    2.3859276 *  3.5788580    4.1710453  

               11 H         12 H     

   1 O       4.5596248    2.4504824 *
   2 C       3.5352347    1.9462672 *
   3 C       2.1399120 *  3.1985573  
   4 C       1.0911172 *  3.8935703  
   5 O       2.5596934 *  4.0006236  
   6 O       3.9317003    0.9679604 *
   7 H       4.3799236    3.0885264  
   8 H       3.8637400    2.3859276 *
   9 H       1.7955296 *  3.5788580  
  10 H       1.7930209 *  4.1710453  
  11 H       0.0000000    4.8859552  
  12 H       4.8859552    0.0000000  

  * ... LESS THAN  3.000


     ATOMIC BASIS SET
     ----------------
 THE CONTRACTED PRIMITIVE FUNCTIONS HAVE BEEN UNNORMALIZED
 THE CONTRACTED BASIS FUNCTIONS ARE NOW NORMALIZED TO UNITY

  SHELL TYPE  PRIMITIVE        EXPONENT          CONTRACTION COEFFICIENT(S)

 O         

      1   S       1           322.0370000    0.059239393389
      1   S       2            48.4308000    0.351499960776
      1   S       3            10.4206000    0.707657921031

      2   L       4             7.4029400   -0.404453583190    0.244586106967
      2   L       5             1.5762000    1.221561761397    0.853955373466

      3   L       6             0.3736840    1.000000000000    1.000000000000

 C         

      4   S       7           172.2560000    0.061766907377
      4   S       8            25.9109000    0.358794042852
      4   S       9             5.5333500    0.700713083689

      5   L      10             3.6649800   -0.395895162119    0.236459946619
      5   L      11             0.7705450    1.215834355681    0.860618805716

      6   L      12             0.1958570    1.000000000000    1.000000000000

 C         

      7   S      13           172.2560000    0.061766907377
      7   S      14            25.9109000    0.358794042852
      7   S      15             5.5333500    0.700713083689

      8   L      16             3.6649800   -0.395895162119    0.236459946619
      8   L      17             0.7705450    1.215834355681    0.860618805716

      9   L      18             0.1958570    1.000000000000    1.000000000000

 C         

     10   S      19           172.2560000    0.061766907377
     10   S      20            25.9109000    0.358794042852
     10   S      21             5.5333500    0.700713083689

     11   L      22             3.6649800   -0.395895162119    0.236459946619
     11   L      23             0.7705450    1.215834355681    0.860618805716

     12   L      24             0.1958570    1.000000000000    1.000000000000

 O         

     13   S      25           322.0370000    0.059239393389
     13   S      26            48.4308000    0.351499960776
     13   S      27            10.4206000    0.707657921031

     14   L      28             7.4029400   -0.404453583190    0.244586106967
     14   L      29             1.5762000    1.221561761397    0.853955373466

     15   L      30             0.3736840    1.000000000000    1.000000000000

 O         

     16   S      31           322.0370000    0.059239393389
     16   S      32            48.4308000    0.351499960776
     16   S      33            10.4206000    0.707657921031

     17   L      34             7.4029400   -0.404453583190    0.244586106967
     17   L      35             1.5762000    1.221561761397    0.853955373466

     18   L      36             0.3736840    1.000000000000    1.000000000000

 H         

     19   S      37             5.4471780    0.156284978695
     19   S      38             0.8245472    0.904690876670

     20   S      39             0.1831916    1.000000000000

 H         

     21   S      40             5.4471780    0.156284978695
     21   S      41             0.8245472    0.904690876670

     22   S      42             0.1831916    1.000000000000

 H         

     23   S      43             5.4471780    0.156284978695
     23   S      44             0.8245472    0.904690876670

     24   S      45             0.1831916    1.000000000000

 H         

     25   S      46             5.4471780    0.156284978695
     25   S      47             0.8245472    0.904690876670

     26   S      48             0.1831916    1.000000000000

 H         

     27   S      49             5.4471780    0.156284978695
     27   S      50             0.8245472    0.904690876670

     28   S      51             0.1831916    1.000000000000

 H         

     29   S      52             5.4471780    0.156284978695
     29   S      53             0.8245472    0.904690876670

     30   S      54             0.1831916    1.000000000000

 TOTAL NUMBER OF BASIS SET SHELLS             =   30
 NUMBER OF CARTESIAN GAUSSIAN BASIS FUNCTIONS =   66
 NUMBER OF ELECTRONS                          =   48
 CHARGE OF MOLECULE                           =    0
 SPIN MULTIPLICITY                            =    1
 NUMBER OF OCCUPIED ORBITALS (ALPHA)          =   24
 NUMBER OF OCCUPIED ORBITALS (BETA )          =   24
 TOTAL NUMBER OF ATOMS                        =   12
 THE NUCLEAR REPULSION ENERGY IS      248.3623236140

 SELECTED MURRAY-HANDY-LAMING RADIAL GRID

 LEGACY BECKE'S FUZZY CELL METHOD

 SELECTED ORIGINAL BECKE'S PARTITION FUNCTION

     LEBEDEV GRID-BASED DFT OPTIONS
     ------------------------------
     DFTTYP=B3LYP   
     NRAD  =      96     NLEB  =     302
     NRAD0 =      24     NLEB0 =     110
     SWOFF =    5.00E-03 (PURE SCF -> DFT)
     SWITCH=    3.00E-04 (COARSE -> TIGHT GRID)
     THRESH=    0.00E+00 GTHRE=    1.00E+00

 GRIMME'S EMPIRICAL DISPERSION CORRECTION= F

     $CONTRL OPTIONS
     ---------------
 SCFTYP=RHF          RUNTYP=OPTIMIZE     EXETYP=RUN     
 MPLEVL=       0     CITYP =NONE         CCTYP =NONE         VBTYP =NONE    
 DFTTYP=B3LYP        TDDFT =NONE    
 MULT  =       1     ICHARG=       0     NZVAR =       0     COORD =UNIQUE  
 PP    =NONE         RELWFN=NONE         LOCAL =NONE         NUMGRD=       F
 ISPHER=      -1     NOSYM =       0     MAXIT =      60     UNITS =ANGS    
 PLTORB=       F     MOLPLT=       F     AIMPAC=       F     FRIEND=        
 NPRINT=       7     IREST =       0     GEOM  =INPUT   
 NORMF =       0     NORMP =       0     ITOL  =      20     ICUT  =       9
 INTTYP=BEST         GRDTYP=BEST         QMTTOL= 1.0E-06

     $SYSTEM OPTIONS
     ---------------
  REPLICATED MEMORY=    30000000 WORDS (ON EVERY NODE).
 DISTRIBUTED MEMDDI=        1000 MILLION WORDS IN AGGREGATE,
 MEMDDI DISTRIBUTED OVER   8 PROCESSORS IS   125000000 WORDS/PROCESSOR.
 TOTAL MEMORY REQUESTED ON EACH PROCESSOR=   155000000 WORDS.
 TIMLIM=      525600.00 MINUTES, OR     365.0 DAYS.
 PARALL= T  BALTYP=  DLB     KDIAG=    0  COREFL= F
 MXSEQ2=     300 MXSEQ3=     150  mem10=         0

          ----------------
          PROPERTIES INPUT
          ----------------

     MOMENTS            FIELD           POTENTIAL          DENSITY
 IEMOM =       1   IEFLD =       0   IEPOT =       0   IEDEN =       0
 WHERE =COMASS     WHERE =NUCLEI     WHERE =NUCLEI     WHERE =NUCLEI  
 OUTPUT=BOTH       OUTPUT=BOTH       OUTPUT=BOTH       OUTPUT=BOTH    
 IEMINT=       0   IEFINT=       0                     IEDINT=       0
                                                       MORB  =       0
          EXTRAPOLATION IN EFFECT
          DIIS IN EFFECT
 ORBITAL PRINTING OPTION: NPREO=     1    66     2     1

     -------------------------------
     INTEGRAL TRANSFORMATION OPTIONS
     -------------------------------
     NWORD  =            0
     CUTOFF = 1.0E-09     MPTRAN =       0
     DIRTRF =       T     AOINTS =DUP     

          ----------------------
          INTEGRAL INPUT OPTIONS
          ----------------------
 NOPK  =       1 NORDER=       0 SCHWRZ=       T

     ------------------------------------------
     THE POINT GROUP IS C1 , NAXIS= 0, ORDER= 1
     ------------------------------------------

     DIMENSIONS OF THE SYMMETRY SUBSPACES ARE
 A   =   66

 ..... DONE SETTING UP THE RUN .....
 CPU     0: STEP CPU TIME=     0.02 TOTAL CPU TIME=          0.0 (      0.0 MIN)
 TOTAL WALL CLOCK TIME=          0.0 SECONDS, CPU UTILIZATION IS    66.67%


          -----------------------------
          STATIONARY POINT LOCATION RUN
          -----------------------------

 OBTAINING INITIAL HESSIAN, HESS=GUESS   
 CARTESIAN COORDINATE OPTIMIZATION USING BADGER'S RULE FORCE CONSTANT GUESS

          PARAMETERS CONTROLLING GEOMETRY SEARCH ARE
          METHOD =QA                  UPHESS =BFGS    
          NNEG   =         0          NFRZ   =         0
          NSTEP  =       999          IFOLOW =         1
          HESS   =GUESS               RESTAR =         F
          IHREP  =         0          HSSEND =         F
          NPRT   =         0          NPUN   =         0
          OPTTOL = 1.000E-04          RMIN   = 1.500E-03
          RMAX   = 1.000E-01          RLIM   = 7.000E-02
          DXMAX  = 3.000E-01          PURIFY =         F
          MOVIE  =         F          TRUPD  =         T
          TRMAX  = 5.000E-01          TRMIN  = 5.000E-02
          ITBMAT =         5          STPT   =         F
          STSTEP = 1.000E-02          PROJCT=          T

 BEGINNING GEOMETRY SEARCH POINT NSERCH=   0 ...

 COORDINATES OF ALL ATOMS ARE (ANGS)
   ATOM   CHARGE       X              Y              Z
 ------------------------------------------------------------
 O           8.0   1.5963809000   0.1706430000  -1.1892185000
 C           6.0   0.7827308000   0.5044563000  -0.1138285000
 C           6.0  -0.7099711000   0.2824381000  -0.4591722000
 C           6.0  -1.7353255000   0.6951866000   0.5585620000
 O           8.0  -0.9821197000  -0.2411881000  -1.5250880000
 O           8.0   1.0093679000  -0.3103651000   1.0304646000
 H           1.0   1.0712336000  -0.4039256000  -1.7777177000
 H           1.0   0.9772808000   1.5589790000   0.1322754000
 H           1.0  -1.5678796000   0.1347846000   1.4851518000
 H           1.0  -1.6178505000   1.7575778000   0.8044542000
 H           1.0  -2.7404711000   0.5079060000   0.1775830000
 H           1.0   1.9654235000  -0.3443925000   1.1779338000

          ********************
          1 ELECTRON INTEGRALS
          ********************
 ...... END OF ONE-ELECTRON INTEGRALS ......
 CPU     0: STEP CPU TIME=     0.02 TOTAL CPU TIME=          0.0 (      0.0 MIN)
 TOTAL WALL CLOCK TIME=          0.1 SECONDS, CPU UTILIZATION IS    80.00%

          -------------
          GUESS OPTIONS
          -------------
          GUESS =HUCKEL            NORB  =       0          NORDER=       0
          MIX   =       F          PRTMO =       F          PUNMO =       F
          TOLZ  = 1.0E-08          TOLE  = 1.0E-05
          SYMDEN=       F          PURIFY=       F

 INITIAL GUESS ORBITALS GENERATED BY HUCKEL   ROUTINE.
 HUCKEL GUESS REQUIRES     45708 WORDS.

 SYMMETRIES FOR INITIAL GUESS ORBITALS FOLLOW.   BOTH SET(S).
    24 ORBITALS ARE OCCUPIED (    6 CORE ORBITALS).
     7=A        8=A        9=A       10=A       11=A       12=A       13=A   
    14=A       15=A       16=A       17=A       18=A       19=A       20=A   
    21=A       22=A       23=A       24=A       25=A       26=A       27=A   
    28=A       29=A       30=A       31=A       32=A       33=A       34=A   
 ...... END OF INITIAL ORBITAL SELECTION ......
 CPU     0: STEP CPU TIME=     0.01 TOTAL CPU TIME=          0.0 (      0.0 MIN)
 TOTAL WALL CLOCK TIME=          0.1 SECONDS, CPU UTILIZATION IS    71.43%

                    ----------------------
                    AO INTEGRAL TECHNOLOGY
                    ----------------------
     S,P,L SHELL ROTATED AXIS INTEGRALS, REPROGRAMMED BY
        KAZUYA ISHIMURA (IMS) AND JOSE SIERRA (SYNSTAR).
     S,P,D,L SHELL ROTATED AXIS INTEGRALS PROGRAMMED BY
        KAZUYA ISHIMURA (INSTITUTE FOR MOLECULAR SCIENCE).
     S,P,D,F,G SHELL TO TOTAL QUARTET ANGULAR MOMENTUM SUM 5,
        ERIC PROGRAM BY GRAHAM FLETCHER (ELORET AND NASA ADVANCED
        SUPERCOMPUTING DIVISION, AMES RESEARCH CENTER).
     S,P,D,F,G,L SHELL GENERAL RYS QUADRATURE PROGRAMMED BY
        MICHEL DUPUIS (PACIFIC NORTHWEST NATIONAL LABORATORY).

          --------------------
          2 ELECTRON INTEGRALS
          --------------------

 DIRECT SCF METHOD SKIPS INTEGRAL STORAGE ON DISK.
 DIRECT TRANSFORMATION SKIPS AO INTEGRAL STORAGE ON DISK.
  ...... END OF TWO-ELECTRON INTEGRALS .....
 CPU     0: STEP CPU TIME=     0.01 TOTAL CPU TIME=          0.1 (      0.0 MIN)
 TOTAL WALL CLOCK TIME=          0.1 SECONDS, CPU UTILIZATION IS    85.71%

          --------------------------
             R-B3LYP SCF CALCULATION
          --------------------------

     NUCLEAR ENERGY =       248.3623236140
     MAXIT =   60     NPUNCH=    2
     EXTRAP=T  DAMP=F  SHIFT=F  RSTRCT=F  DIIS=T  DEM=F  SOSCF=F
         DENSITY MATRIX CONVERGENCE THRESHOLD=  2.00E-05
     COARSE -> FINE DFT GRID SWITCH THRESHOLD=  3.00E-04 (SWITCH IN $DFT)
                   HF -> DFT SWITCH THRESHOLD=  5.00E-03 (SWOFF IN $DFT)
     MEMORY REQUIRED FOR RHF ITERS=    487810 WORDS.

 DIRECT SCF CALCULATION, SCHWRZ=T   FDIFF=T,  DIRTHR=  0.00E+00 NITDIR=10
 SCHWARZ INEQUALITY OVERHEAD:      2179 INTEGRALS, T=        0.00

 DFT CODE IS SWITCHING FROM THE FINE GRID NRAD= 96,  NLEB=  302
                      TO THE COARSE GRID NRAD0= 24, NLEB0=  110

     EXCHANGE FUNCTIONAL   =B88&HFX   
     CORRELATION FUNCTIONAL=LYP88&VWN5
     DFT THRESHOLD         =.115E-07
     GRID CHANGE THRESHOLD =.300E-03
 FOR AN EULER-MACLAURIN QUADRATURE USING  96 RADIAL POINTS:
 SMALLEST GAUSSIAN PRIMITIVE EXPONENT=        0.1831915800 OF TYPE -S-
 ON ATOM NUMBER   7 HAS RADIAL NORMALIZATION=  1.000000
  LARGEST GAUSSIAN PRIMITIVE EXPONENT=      322.0370000000 OF TYPE -S-
 ON ATOM NUMBER   1 HAS RADIAL NORMALIZATION=  1.000000
 DFT IS SWITCHED OFF, PERFORMING PURE SCF UNTIL SWOFF THRESHOLD IS REACHED.

                                                                                   NONZERO     BLOCKS
 ITER EX DEM     TOTAL ENERGY        E CHANGE  DENSITY CHANGE    DIIS ERROR      INTEGRALS    SKIPPED
   1  0  0     -338.8145510400  -338.8145510400   0.655635607   0.635222384        1999181      30061
          * * *   INITIATING DIIS PROCEDURE   * * *
   2  1  0     -339.6770971447    -0.8625461048   0.141191277   0.190544167        1996952      31233
   3  2  0     -339.7292728424    -0.0521756976   0.082249064   0.151097956        1987611      33270
   4  3  0     -339.7654311580    -0.0361583156   0.027105537   0.013516375        1976243      34944
   5  4  0     -339.7667422709    -0.0013111130   0.003752338   0.003017758        1953636      36950
 CONVERGED TO SWOFF, SO DFT CALCULATION IS NOW SWITCHED ON.
          * * *   INITIATING DIIS PROCEDURE   * * *
   6  5  0     -341.4671569279    -1.7004146570   0.117071890   0.060092401        1999570      29791
   7  6  0     -341.4891196434    -0.0219627155   0.104792750   0.063306737        1989288      33126
   8  7  0     -341.4849655837     0.0041540597   0.053920798   0.101231349        1979754      34332
   9  8  0     -341.4973832343    -0.0124176506   0.008653465   0.019462815        1969614      35631
  10  9  0     -341.4979388315    -0.0005555971   0.001020374   0.002253434        1938114      38079
  11 10  0     -341.4979501079    -0.0000112764   0.000322401   0.000606765        1862888      42904
  12 11  0     -341.4979510404    -0.0000009325   0.000091283   0.000107403        1813009      45608
 DFT CODE IS SWITCHING BACK TO THE FINE GRID
          * * *   INITIATING DIIS PROCEDURE   * * *
  13 12  0     -341.5002073169    -0.0022562765   0.003313933   0.001506940        1999819      29612
  14 13  0     -341.5002236309    -0.0000163140   0.000953977   0.000869394        1893135      41217
  15 14  0     -341.5002247201    -0.0000010892   0.000507125   0.000808024        1851832      43562
  16 15  0     -341.5002263417    -0.0000016216   0.000252211   0.000364927        1815130      45895
  17 16  0     -341.5002264844    -0.0000001427   0.000035944   0.000099436        1747527      49647
  18 17  0     -341.5002264975    -0.0000000131   0.000013080   0.000007872        1655938      54183
  19 18  0     -341.5002264982    -0.0000000007   0.000002042   0.000003231        1561015      58258

          -----------------
          DENSITY CONVERGED
          -----------------
     TIME TO FORM FOCK OPERATORS=       3.6 SECONDS (       0.2 SEC/ITER)
     FOCK TIME ON FIRST ITERATION=       0.0, LAST ITERATION=       0.4
     TIME TO SOLVE SCF EQUATIONS=       0.1 SECONDS (       0.0 SEC/ITER)

 FINAL R-B3LYP ENERGY IS     -341.5002264982 AFTER  19 ITERATIONS
 DFT EXCHANGE + CORRELATION ENERGY =       -35.5710446911
 TOTAL ELECTRON NUMBER             =        47.9999583166

          ------------
          EIGENVECTORS
          ------------

                      1          2          3          4          5
                  -19.0557   -19.0312   -19.0300   -10.2272   -10.2244
                     A          A          A          A          A   
    1  O  1  S   -0.004180   0.958403  -0.216856  -0.000009  -0.000065
    2  O  1  S   -0.001065   0.104200  -0.022130  -0.000237  -0.000706
    3  O  1  X   -0.000247  -0.003499   0.000869   0.000078  -0.000075
    4  O  1  Y   -0.000102  -0.000810  -0.000161  -0.000063   0.000056
    5  O  1  Z   -0.000432   0.001632   0.000149  -0.000293  -0.000106
    6  O  1  S    0.004187  -0.055855   0.007258  -0.000431   0.009200
    7  O  1  X   -0.000056   0.010831  -0.001444   0.000836  -0.001799
    8  O  1  Y    0.000645   0.001045   0.001390   0.000185   0.000358
    9  O  1  Z    0.002895  -0.008212  -0.002489   0.001058   0.002273
   10  C  2  S    0.000189  -0.001336  -0.000828  -0.139252   0.976593
   11  C  2  S    0.000698  -0.005683  -0.003534  -0.017808   0.109938
   12  C  2  X    0.000289   0.001585   0.000883   0.000388  -0.000688
   13  C  2  Y   -0.000289  -0.000462  -0.000691   0.000094   0.000023
   14  C  2  Z   -0.000010  -0.000848   0.001659   0.000050  -0.000062
   15  C  2  S   -0.001659   0.035412   0.019757   0.029589  -0.083625
   16  C  2  X   -0.003538   0.004380  -0.001371  -0.014018   0.011153
   17  C  2  Y    0.005446  -0.010789  -0.008608   0.001179   0.000882
   18  C  2  Z    0.007547  -0.011569   0.010025   0.000383   0.003148
   19  C  3  S    0.000189   0.000303   0.000080   0.975830   0.138571
   20  C  3  S    0.001197   0.000869  -0.000046   0.106686   0.012214
   21  C  3  X   -0.000650  -0.000372  -0.000614   0.000026  -0.000638
   22  C  3  Y   -0.000747  -0.000283  -0.000068  -0.000406  -0.000075
   23  C  3  Z   -0.001466  -0.000222  -0.000372  -0.000499   0.000128
   24  C  3  S    0.020343  -0.010146  -0.003135  -0.069570   0.013659
   25  C  3  X   -0.003146  -0.009760  -0.003803  -0.005918   0.022038
   26  C  3  Y   -0.013166   0.003896   0.001825  -0.009030  -0.001153
   27  C  3  Z   -0.026450   0.005173  -0.001873  -0.019488  -0.004507
   28  C  4  S   -0.000015   0.000013   0.000119  -0.004275  -0.003695
   29  C  4  S   -0.000226  -0.000073   0.000889  -0.002789  -0.003075
   30  C  4  X   -0.000169  -0.000583   0.000350  -0.000330  -0.001393
   31  C  4  Y   -0.000126   0.000149   0.000197   0.000247  -0.000049
   32  C  4  Z   -0.000207   0.000009   0.000013   0.000665   0.000009
   33  C  4  S    0.006238  -0.004183  -0.002447   0.021025   0.011817
   34  C  4  X    0.007665   0.000928  -0.001327   0.012175   0.006717
   35  C  4  Y    0.002050   0.000032  -0.001036  -0.002594  -0.001284
   36  C  4  Z    0.002917   0.002716   0.000437  -0.007252  -0.003718
   37  O  5  S    0.982770   0.004113   0.000050   0.000379   0.000102
   38  O  5  S    0.107540  -0.000150  -0.000003   0.001569   0.000337
   39  O  5  X    0.001302   0.000046  -0.000180  -0.000155   0.000218
   40  O  5  Y    0.001964  -0.000049   0.000092  -0.000390  -0.000205
   41  O  5  Z    0.003999  -0.000082   0.000090  -0.000903  -0.000464
   42  O  5  S   -0.063670   0.004191  -0.000107  -0.004864  -0.003374
   43  O  5  X   -0.004734   0.001042   0.001078  -0.001399  -0.003648
   44  O  5  Y   -0.007309   0.000548  -0.000611  -0.002540  -0.000420
   45  O  5  Z   -0.014914   0.001516  -0.000240  -0.004714  -0.000522
   46  O  6  S   -0.000994   0.217203   0.958221   0.000012  -0.000109
   47  O  6  S   -0.000235   0.024689   0.102632  -0.000339  -0.000825
   48  O  6  X    0.000092   0.000650   0.001967   0.000864   0.000465
   49  O  6  Y    0.000203   0.000146   0.002022   0.000058   0.000294
   50  O  6  Z    0.000229  -0.001125  -0.002425   0.000660   0.000055
   51  O  6  S    0.000100  -0.016252  -0.049809  -0.001906   0.009286
   52  O  6  X   -0.000368  -0.001803  -0.003185  -0.002397  -0.003133
   53  O  6  Y   -0.001132  -0.000830  -0.006223  -0.000915   0.001001
   54  O  6  Z   -0.001285   0.006515   0.008135  -0.001298  -0.003368
   55  H  7  S   -0.000523   0.003435  -0.000243  -0.000091  -0.000872
   56  H  7  S    0.002037   0.005431  -0.002488   0.000812   0.003598
   57  H  8  S   -0.000516  -0.001708  -0.001158  -0.001677  -0.000744
   58  H  8  S   -0.001914   0.000092  -0.000171  -0.001628   0.016643
   59  H  9  S   -0.000439  -0.000281  -0.000161  -0.001580  -0.001015
   60  H  9  S   -0.001436  -0.000545   0.000628   0.001622   0.000018
   61  H 10  S   -0.000640  -0.000129   0.000450  -0.001655  -0.000781
   62  H 10  S   -0.001627   0.000420   0.000656   0.001490  -0.000839
   63  H 11  S    0.000790   0.000422   0.000122  -0.000616  -0.000637
   64  H 11  S    0.002702   0.001016  -0.000712   0.001911   0.002904
   65  H 12  S    0.000152   0.001394   0.003225   0.001023  -0.000082
   66  H 12  S    0.000311   0.000466   0.005348   0.001215   0.003604

                      6          7          8          9         10
                  -10.1300    -1.0912    -1.0544    -0.9961    -0.7668
                     A          A          A          A          A   
    1  O  1  S   -0.000016  -0.091530   0.124024   0.156801   0.020014
    2  O  1  S   -0.000259   0.085721  -0.112726  -0.146551  -0.018335
    3  O  1  X    0.000203  -0.048492   0.057206   0.072472  -0.003807
    4  O  1  Y   -0.000136  -0.010168   0.013027   0.020673   0.017218
    5  O  1  Z   -0.000108   0.018342  -0.027064  -0.002411   0.017705
    6  O  1  S    0.000361   0.264228  -0.389378  -0.497486  -0.074340
    7  O  1  X   -0.000519  -0.051772   0.060260   0.080782   0.003844
    8  O  1  Y    0.000571  -0.011810   0.016194   0.013730   0.011732
    9  O  1  Z    0.000352   0.017752  -0.039126  -0.012919   0.007056
   10  C  2  S    0.002517  -0.068501   0.081962  -0.002000  -0.058519
   11  C  2  S   -0.001984   0.074829  -0.093169   0.002423   0.063128
   12  C  2  X    0.000828   0.007070  -0.050030  -0.026523  -0.070138
   13  C  2  Y   -0.000167  -0.030997   0.043627  -0.021221   0.019006
   14  C  2  Z   -0.000372  -0.021321  -0.000827   0.123763   0.005383
   15  C  2  S    0.007540   0.081148  -0.123910   0.006808   0.146402
   16  C  2  X   -0.004004   0.008037   0.017997   0.004839  -0.023607
   17  C  2  Y   -0.000972  -0.003825  -0.028122  -0.002973   0.010353
   18  C  2  Z    0.000592  -0.017190  -0.021813  -0.010310   0.000593
   19  C  3  S    0.004338  -0.110878  -0.058628  -0.015243  -0.096047
   20  C  3  S   -0.001918   0.117365   0.063686   0.015768   0.111082
   21  C  3  X    0.000704  -0.011986  -0.044977  -0.007629  -0.018063
   22  C  3  Y   -0.000215  -0.055824  -0.043317  -0.008643   0.068168
   23  C  3  Z   -0.000611  -0.112467  -0.092583  -0.003924   0.143892
   24  C  3  S    0.021707   0.133518   0.065805   0.023939   0.199955
   25  C  3  X   -0.016539   0.020927  -0.003636  -0.010512   0.004958
   26  C  3  Y    0.004056   0.024029   0.034507   0.004596   0.029086
   27  C  3  Z    0.010285   0.058257   0.048457   0.039171   0.053227
   28  C  4  S    0.986360  -0.014734  -0.007786  -0.005785  -0.172322
   29  C  4  S    0.112967   0.015041   0.007515   0.006087   0.168054
   30  C  4  X    0.000286   0.010664   0.001725   0.001807   0.049761
   31  C  4  Y    0.000097  -0.005936  -0.003339  -0.002207  -0.007851
   32  C  4  Z    0.000114  -0.013156  -0.009531  -0.002234  -0.026147
   33  C  4  S   -0.096444   0.004476  -0.007874  -0.010012   0.473880
   34  C  4  X   -0.005770  -0.029265  -0.019390  -0.000465   0.013911
   35  C  4  Y    0.002356  -0.004652  -0.007241   0.006459  -0.001011
   36  C  4  Z    0.005551  -0.010835  -0.000391   0.003200  -0.002778
   37  O  5  S    0.000019  -0.168040  -0.123290  -0.019588   0.062497
   38  O  5  S   -0.000093   0.157912   0.116037   0.018202  -0.062355
   39  O  5  X   -0.000264   0.034797   0.016910  -0.000966  -0.016091
   40  O  5  Y   -0.000095   0.052673   0.038380   0.005335   0.001079
   41  O  5  Z   -0.000166   0.107727   0.077053   0.014452   0.002724
   42  O  5  S   -0.000634   0.522060   0.395997   0.072846  -0.212609
   43  O  5  X    0.002517   0.036121   0.019154  -0.002944  -0.014723
   44  O  5  Y   -0.000320   0.051146   0.036057   0.009308  -0.001314
   45  O  5  Z   -0.000949   0.101969   0.077896   0.015440  -0.000443
   46  O  6  S    0.000069  -0.063183   0.125938  -0.169588   0.030758
   47  O  6  S    0.000594   0.058879  -0.116295   0.159773  -0.028615
   48  O  6  X   -0.000173   0.014534  -0.040054   0.055828  -0.054970
   49  O  6  Y   -0.000018   0.016840  -0.032124   0.035731   0.016410
   50  O  6  Z   -0.000046  -0.026673   0.041489  -0.034340  -0.021711
   51  O  6  S   -0.002242   0.187247  -0.379557   0.529871  -0.112170
   52  O  6  X    0.001172   0.022498  -0.037866   0.048305  -0.041825
   53  O  6  Y   -0.000430   0.019992  -0.031268   0.047254   0.008526
   54  O  6  Z    0.000731  -0.025074   0.054851  -0.042099  -0.008129
   55  H  7  S   -0.000110   0.046529  -0.051836  -0.083929  -0.021053
   56  H  7  S    0.001325   0.006565  -0.002115  -0.012963  -0.023140
   57  H  8  S   -0.000379   0.019692  -0.021237   0.002436   0.036989
   58  H  8  S   -0.000687  -0.006159   0.014640   0.001135   0.001290
   59  H  9  S    0.000084   0.006049   0.002546   0.002347   0.089251
   60  H  9  S    0.016171   0.002036  -0.005873   0.006858  -0.004262
   61  H 10  S    0.000104   0.006089   0.003163   0.001866   0.090829
   62  H 10  S    0.015964  -0.000169   0.002186  -0.002547   0.004079
   63  H 11  S    0.000026   0.002446   0.002084   0.002383   0.079744
   64  H 11  S    0.015889  -0.011360  -0.003351   0.004135  -0.006232
   65  H 12  S   -0.000144   0.027041  -0.062385   0.092569  -0.045400
   66  H 12  S   -0.000035   0.001270  -0.013288   0.017378  -0.024939

                     11         12         13         14         15
                   -0.6859    -0.5754    -0.5241    -0.4976    -0.4842
                     A          A          A          A          A   
    1  O  1  S    0.059294  -0.002878  -0.002682   0.022170  -0.034349
    2  O  1  S   -0.054354   0.003712   0.002493  -0.021109   0.032119
    3  O  1  X   -0.018543   0.039427  -0.017289  -0.046569   0.103739
    4  O  1  Y    0.069623   0.164337   0.065773  -0.011833  -0.042173
    5  O  1  Z    0.095029   0.221936  -0.004299  -0.145002  -0.179866
    6  O  1  S   -0.233392   0.000041   0.012453  -0.087352   0.135601
    7  O  1  X   -0.003001   0.035897  -0.016501  -0.046842   0.099441
    8  O  1  Y    0.054613   0.136296   0.052497  -0.001499  -0.034764
    9  O  1  Z    0.062972   0.185579  -0.012594  -0.121025  -0.162750
   10  C  2  S   -0.149967  -0.051584   0.024182  -0.014973   0.001546
   11  C  2  S    0.152445   0.052670  -0.022544   0.015691  -0.008157
   12  C  2  X   -0.074168   0.234627  -0.056841  -0.105722   0.026784
   13  C  2  Y    0.033127   0.118307   0.138804   0.172401   0.187233
   14  C  2  Z    0.000819  -0.051291  -0.156218  -0.005985   0.220365
   15  C  2  S    0.459030   0.196207  -0.115392   0.043245   0.040984
   16  C  2  X   -0.064799   0.121680   0.008627  -0.086677   0.024095
   17  C  2  Y    0.019539   0.091202   0.090812   0.136072   0.155247
   18  C  2  Z   -0.006746  -0.013754  -0.098451   0.019607   0.141412
   19  C  3  S   -0.040086   0.072655  -0.098448   0.060355  -0.000747
   20  C  3  S    0.050280  -0.079184   0.111613  -0.074779  -0.004477
   21  C  3  X    0.172790  -0.103959  -0.024863   0.190492  -0.180065
   22  C  3  Y    0.013792   0.006542   0.081812   0.094540   0.085413
   23  C  3  Z    0.002144  -0.060943  -0.019509  -0.027164   0.083131
   24  C  3  S    0.090947  -0.233467   0.329325  -0.199812   0.031076
   25  C  3  X    0.025989  -0.089041   0.017530   0.149725  -0.158672
   26  C  3  Y    0.016275   0.004515   0.097324   0.029283   0.061564
   27  C  3  Z    0.019017  -0.050436   0.047241  -0.118870   0.058377
   28  C  4  S    0.104533  -0.036074   0.032326  -0.023374   0.024780
   29  C  4  S   -0.097311   0.035225  -0.025756   0.014497  -0.017959
   30  C  4  X    0.032638  -0.071866   0.087748  -0.038824   0.082170
   31  C  4  Y    0.001739   0.023267   0.000310   0.133126  -0.016672
   32  C  4  Z   -0.001401   0.018385  -0.114619   0.145258  -0.130240
   33  C  4  S   -0.337235   0.123245  -0.148041   0.154394  -0.143571
   34  C  4  X   -0.001821  -0.035648   0.014033   0.021824   0.053529
   35  C  4  Y    0.002994   0.010407  -0.000010   0.079262  -0.001207
   36  C  4  Z    0.012489   0.012052  -0.067919   0.072493  -0.065894
   37  O  5  S    0.020883  -0.041981   0.065550  -0.053436  -0.024072
   38  O  5  S   -0.020470   0.041538  -0.062017   0.048700   0.020163
   39  O  5  X    0.044963  -0.064964   0.013150   0.099231  -0.145337
   40  O  5  Y    0.004329   0.005556   0.101762  -0.016688   0.013531
   41  O  5  Z   -0.000066  -0.026922   0.093080  -0.182493  -0.041195
   42  O  5  S   -0.072851   0.161705  -0.254119   0.205832   0.105924
   43  O  5  X    0.037731  -0.053437   0.010319   0.082980  -0.123936
   44  O  5  Y    0.001866   0.004762   0.088634  -0.014454   0.015788
   45  O  5  Z   -0.000485  -0.020028   0.080873  -0.162530  -0.035357
   46  O  6  S    0.047902   0.029339   0.002077  -0.002438  -0.000949
   47  O  6  S   -0.043276  -0.028251  -0.000594   0.002167   0.000110
   48  O  6  X   -0.107649   0.092556   0.216801   0.065158  -0.065349
   49  O  6  Y    0.055092   0.024396  -0.103553   0.000128   0.129714
   50  O  6  Z   -0.078752   0.007807   0.183235   0.112143   0.003889
   51  O  6  S   -0.192423  -0.114865  -0.005767   0.008246   0.005901
   52  O  6  X   -0.076078   0.078310   0.187650   0.056140  -0.061569
   53  O  6  Y    0.036905   0.019567  -0.088812   0.001617   0.119565
   54  O  6  Z   -0.047694   0.002703   0.162567   0.102535   0.002249
   55  H  7  S   -0.078760  -0.158771  -0.020926   0.081629   0.075007
   56  H  7  S   -0.055137  -0.101087  -0.037630   0.093915   0.081140
   57  H  8  S    0.100327   0.104521   0.031061   0.097284   0.131437
   58  H  8  S    0.009474   0.045583   0.021448   0.066336   0.088611
   59  H  9  S   -0.058522   0.020068  -0.072217   0.044257  -0.072750
   60  H  9  S   -0.014094  -0.000305  -0.048970   0.031498  -0.048494
   61  H 10  S   -0.059126   0.036120  -0.031102   0.113456  -0.040213
   62  H 10  S   -0.007272   0.022245  -0.015221   0.090088  -0.024362
   63  H 11  S   -0.072910   0.054830  -0.048051  -0.004242  -0.034846
   64  H 11  S   -0.023230   0.032443  -0.045096   0.004243  -0.007993
   65  H 12  S   -0.095572   0.039054   0.170491   0.059786  -0.050101
   66  H 12  S   -0.062930   0.024681   0.134647   0.049829  -0.040292

                     16         17         18         19         20
                   -0.4401    -0.4291    -0.4070    -0.3758    -0.3641
                     A          A          A          A          A   
    1  O  1  S    0.009540  -0.010561  -0.033238  -0.036035   0.026094
    2  O  1  S   -0.009171   0.009690   0.029906   0.029991  -0.023643
    3  O  1  X   -0.018090   0.013126   0.128158   0.025522  -0.046462
    4  O  1  Y   -0.054444   0.012613   0.013259   0.177142  -0.130159
    5  O  1  Z    0.001937   0.123568  -0.007759   0.002159   0.022886
    6  O  1  S   -0.038337   0.046395   0.139939   0.174977  -0.116551
    7  O  1  X   -0.017818   0.015301   0.123886   0.021751  -0.050949
    8  O  1  Y   -0.055155   0.015267   0.006601   0.192499  -0.138376
    9  O  1  Z   -0.003639   0.128882  -0.021138  -0.003548   0.021921
   10  C  2  S   -0.004725   0.017467   0.027306   0.028256  -0.014084
   11  C  2  S    0.004936  -0.015764  -0.025623  -0.036042   0.019386
   12  C  2  X    0.013046   0.012589   0.066903  -0.037060   0.039755
   13  C  2  Y   -0.084993  -0.121241   0.019457   0.025150  -0.064252
   14  C  2  Z    0.037476  -0.065822   0.087379  -0.088617   0.047297
   15  C  2  S    0.015874  -0.066627  -0.130212  -0.057595   0.028992
   16  C  2  X    0.004248  -0.002964   0.117167  -0.085537   0.060780
   17  C  2  Y   -0.078116  -0.101835   0.017506   0.029021  -0.060830
   18  C  2  Z    0.009881  -0.035102   0.051300  -0.061793   0.038035
   19  C  3  S    0.000573  -0.003162  -0.015572   0.010034  -0.003327
   20  C  3  S    0.006319  -0.010242   0.025947  -0.015328   0.005509
   21  C  3  X   -0.013441  -0.028433  -0.033670  -0.005746  -0.026835
   22  C  3  Y    0.108418   0.142117  -0.089194   0.111371   0.161642
   23  C  3  Z   -0.171727   0.183716  -0.173516  -0.078216  -0.065009
   24  C  3  S   -0.030315   0.066811   0.031859  -0.050213   0.023197
   25  C  3  X   -0.007760  -0.055091   0.030709  -0.034051  -0.007536
   26  C  3  Y    0.120841   0.079474   0.004959   0.092920   0.192897
   27  C  3  Z   -0.096739   0.063328   0.020110  -0.050728  -0.098091
   28  C  4  S   -0.002634   0.005489   0.004592   0.005603  -0.005713
   29  C  4  S    0.001443  -0.001993  -0.005633  -0.004146   0.003919
   30  C  4  X   -0.136126   0.246785   0.152398  -0.033234   0.052933
   31  C  4  Y    0.243131   0.140892   0.121843  -0.071619  -0.169824
   32  C  4  Z   -0.143170  -0.030039   0.213503   0.040027   0.089667
   33  C  4  S    0.009754  -0.042790  -0.036529  -0.055955   0.050080
   34  C  4  X   -0.106451   0.192798   0.100276  -0.004085   0.035097
   35  C  4  Y    0.182926   0.118587   0.089983  -0.048576  -0.159206
   36  C  4  Z   -0.117400  -0.003838   0.162487   0.026552   0.089335
   37  O  5  S    0.030689  -0.059394   0.042008  -0.003970   0.002155
   38  O  5  S   -0.026044   0.050325  -0.037286   0.005137  -0.002003
   39  O  5  X    0.020042  -0.095929   0.074417  -0.046220  -0.006608
   40  O  5  Y    0.188975  -0.053587   0.111267   0.192030   0.280636
   41  O  5  Z    0.029719  -0.213339   0.232063  -0.082097  -0.133324
   42  O  5  S   -0.128636   0.250851  -0.145045   0.014987  -0.013135
   43  O  5  X    0.017316  -0.084694   0.071139  -0.048271  -0.004887
   44  O  5  Y    0.178597  -0.049186   0.113404   0.205881   0.283565
   45  O  5  Z    0.024650  -0.199345   0.235120  -0.090132  -0.136628
   46  O  6  S   -0.006039  -0.000624  -0.001763  -0.082314   0.040641
   47  O  6  S    0.005135   0.001145   0.000665   0.070134  -0.036194
   48  O  6  X   -0.047773   0.003657  -0.035260  -0.263875   0.127450
   49  O  6  Y    0.032965  -0.065476   0.063437  -0.107608   0.080853
   50  O  6  Z   -0.101071  -0.032981  -0.010453   0.138931  -0.131533
   51  O  6  S    0.028002  -0.001021   0.014529   0.374200  -0.179977
   52  O  6  X   -0.035348   0.003255  -0.039963  -0.278067   0.133845
   53  O  6  Y    0.034394  -0.066801   0.066865  -0.109938   0.085789
   54  O  6  Z   -0.098549  -0.034910  -0.008816   0.145185  -0.139363
   55  H  7  S    0.017845  -0.061865  -0.028831  -0.074127   0.044611
   56  H  7  S   -0.006406  -0.030666  -0.038091  -0.076344   0.030872
   57  H  8  S   -0.038604  -0.098670   0.009963  -0.041996  -0.017281
   58  H  8  S   -0.024445  -0.069927   0.023963  -0.033959  -0.036683
   59  H  9  S   -0.173702  -0.047698   0.097329   0.051083   0.136818
   60  H  9  S   -0.135698  -0.047539   0.089913   0.113081   0.097017
   61  H 10  S    0.131268   0.100785   0.129782  -0.056612  -0.109172
   62  H 10  S    0.112613   0.078880   0.125472  -0.065865  -0.117265
   63  H 11  S    0.089291  -0.165243  -0.174345   0.016781  -0.034070
   64  H 11  S    0.065891  -0.122708  -0.164765   0.033005  -0.040451
   65  H 12  S   -0.050338   0.002863  -0.028606  -0.119023   0.044022
   66  H 12  S   -0.053303   0.008785  -0.024848  -0.086398   0.021646

                     21         22         23         24         25
                   -0.3299    -0.2797    -0.2706    -0.2559    -0.0271
                     A          A          A          A          A   
    1  O  1  S   -0.065516  -0.005037  -0.003791   0.026597  -0.001865
    2  O  1  S    0.063125  -0.002367   0.007209  -0.018564   0.003572
    3  O  1  X    0.396019  -0.112151  -0.076214  -0.038020   0.017674
    4  O  1  Y    0.046231   0.153540   0.356191  -0.005924  -0.031208
    5  O  1  Z    0.006791   0.018434  -0.263879   0.007017   0.019617
    6  O  1  S    0.249715   0.070928  -0.015917  -0.165346  -0.002529
    7  O  1  X    0.433763  -0.168881  -0.073587  -0.046423   0.029308
    8  O  1  Y    0.042991   0.182778   0.387302   0.003528  -0.055206
    9  O  1  Z   -0.006885   0.031849  -0.310597   0.018963   0.027683
   10  C  2  S    0.023303   0.028773  -0.000108   0.027876   0.006372
   11  C  2  S   -0.020701  -0.010286   0.005340  -0.020432  -0.010589
   12  C  2  X   -0.115908   0.084063  -0.021597   0.206542  -0.003331
   13  C  2  Y   -0.033982  -0.094830  -0.059962   0.101764   0.026050
   14  C  2  Z    0.085660  -0.004143   0.034659   0.042222  -0.032263
   15  C  2  S   -0.142062  -0.225832  -0.003749  -0.223175   0.017618
   16  C  2  X    0.097661   0.108526   0.028374   0.200421  -0.020071
   17  C  2  Y   -0.007418   0.068827   0.050512   0.018510   0.093695
   18  C  2  Z    0.034311   0.095340  -0.113191  -0.002163  -0.092372
   19  C  3  S   -0.033638  -0.008938   0.000941   0.008875  -0.000844
   20  C  3  S    0.026187   0.012463  -0.006179  -0.013181  -0.003217
   21  C  3  X    0.164131  -0.049958  -0.008189  -0.168309  -0.026686
   22  C  3  Y    0.038989   0.007164  -0.012208   0.002478   0.396296
   23  C  3  Z    0.038517   0.041236   0.007283   0.007775  -0.191595
   24  C  3  S    0.241998   0.034589   0.034149  -0.054697   0.012313
   25  C  3  X    0.200320   0.151466  -0.011330   0.036359  -0.051226
   26  C  3  Y    0.076721  -0.038851  -0.017586  -0.011646   0.489373
   27  C  3  Z    0.097505  -0.087191   0.017226  -0.003370  -0.197694
   28  C  4  S   -0.001852  -0.020829  -0.002657  -0.031004  -0.002262
   29  C  4  S    0.003533   0.004781   0.002755   0.023522   0.003005
   30  C  4  X   -0.070643   0.058942   0.014699   0.103576   0.001156
   31  C  4  Y   -0.033035  -0.020605   0.004939  -0.049480  -0.017739
   32  C  4  Z   -0.036644  -0.092522   0.022497  -0.119628   0.015070
   33  C  4  S   -0.004192   0.234874   0.015388   0.228446   0.003456
   34  C  4  X   -0.090810   0.108068  -0.008839   0.108439  -0.026593
   35  C  4  Y   -0.028734  -0.029424   0.000486  -0.049249   0.070537
   36  C  4  Z   -0.023344  -0.123499   0.032691  -0.141526  -0.013539
   37  O  5  S   -0.010081   0.004001   0.000549   0.006257  -0.000398
   38  O  5  S    0.004690  -0.001749   0.000053  -0.007647  -0.000338
   39  O  5  X    0.177641   0.217033  -0.050506   0.365104   0.020564
   40  O  5  Y   -0.005844  -0.019034  -0.002987  -0.004779  -0.320376
   41  O  5  Z   -0.109231  -0.057964   0.009593  -0.057514   0.149434
   42  O  5  S    0.075751  -0.046953  -0.007133  -0.013980   0.010520
   43  O  5  X    0.160087   0.222313  -0.054666   0.404833   0.030637
   44  O  5  Y    0.000358  -0.021119   0.002268  -0.002511  -0.433910
   45  O  5  Z   -0.096654  -0.068713   0.001900  -0.063469   0.204168
   46  O  6  S    0.023162  -0.003425   0.008210  -0.024714  -0.034452
   47  O  6  S   -0.017204  -0.001374  -0.015329   0.017119   0.022789
   48  O  6  X    0.068526  -0.010069   0.108785  -0.072674  -0.010430
   49  O  6  Y    0.007244   0.372524  -0.038353  -0.216041   0.025785
   50  O  6  Z   -0.048153   0.153947  -0.274504  -0.116657  -0.070183
   51  O  6  S   -0.115299   0.045862   0.029312   0.140261   0.246319
   52  O  6  X    0.055449  -0.016234   0.101877  -0.082678   0.018625
   53  O  6  Y    0.005697   0.429265  -0.018198  -0.244963   0.047345
   54  O  6  Z   -0.057449   0.163418  -0.332703  -0.138377  -0.106936
   55  H  7  S   -0.112518  -0.017527  -0.007093   0.046972  -0.007335
   56  H  7  S   -0.032338   0.008770  -0.015929   0.137544  -0.005330
   57  H  8  S   -0.054849  -0.125356  -0.054935   0.113426  -0.056722
   58  H  8  S   -0.067553  -0.191150  -0.099480   0.189716  -0.166508
   59  H  9  S   -0.018564  -0.033423   0.014284  -0.021292   0.094335
   60  H  9  S   -0.037868  -0.038232  -0.026322  -0.029103   0.227266
   61  H 10  S   -0.039727  -0.016623   0.011940  -0.023671  -0.085328
   62  H 10  S   -0.048416  -0.046420   0.007269  -0.044603  -0.232428
   63  H 11  S    0.070501  -0.003453  -0.018298  -0.019968  -0.008318
   64  H 11  S    0.061239  -0.027901  -0.025600  -0.090208  -0.034104
   65  H 12  S    0.042071  -0.008612   0.033365  -0.059026  -0.049084
   66  H 12  S    0.060508  -0.037383  -0.017909  -0.073008  -0.137552

                     26         27         28         29         30
                    0.1167     0.1347     0.1385     0.1613     0.1815
                     A          A          A          A          A   
    1  O  1  S    0.026807   0.025331   0.099987   0.018113   0.017885
    2  O  1  S   -0.025489  -0.015815  -0.057305  -0.009813  -0.011520
    3  O  1  X   -0.010362   0.001287   0.194512  -0.001751   0.025261
    4  O  1  Y    0.097841   0.030862   0.080552   0.055231   0.055096
    5  O  1  Z    0.003419   0.006339   0.043874   0.079349   0.016663
    6  O  1  S   -0.175158  -0.209987  -0.880727  -0.155244  -0.156154
    7  O  1  X    0.007016   0.016296   0.352145  -0.007712   0.056518
    8  O  1  Y    0.173496   0.032911   0.146976   0.097617   0.128451
    9  O  1  Z    0.053988   0.018886   0.052560   0.157843   0.019676
   10  C  2  S    0.013199  -0.065240  -0.023481  -0.013083   0.095461
   11  C  2  S    0.003393   0.052556   0.030969  -0.004709  -0.065970
   12  C  2  X    0.036434   0.053745   0.107475   0.122250   0.036358
   13  C  2  Y   -0.130730   0.117749  -0.028544   0.118671  -0.244591
   14  C  2  Z    0.061019   0.095109  -0.153479   0.080543  -0.095432
   15  C  2  S   -0.296564   0.676988   0.112615   0.299736  -1.158822
   16  C  2  X    0.041138   0.196142   0.388947   0.199037   0.119252
   17  C  2  Y   -0.212482   0.413877   0.011057   0.347989  -0.712204
   18  C  2  Z    0.108922   0.212962  -0.248974   0.333820  -0.196025
   19  C  3  S   -0.003994   0.003468  -0.042599  -0.023135  -0.015256
   20  C  3  S   -0.027101   0.017841   0.002553   0.012754   0.009921
   21  C  3  X   -0.016094   0.003941   0.015066   0.051598   0.096822
   22  C  3  Y    0.083752   0.012623  -0.022835   0.020532   0.044093
   23  C  3  Z   -0.049802   0.028161  -0.013319   0.077023  -0.004526
   24  C  3  S    0.157822  -0.019878   0.658353   0.266243   0.152036
   25  C  3  X    0.008268   0.034039  -0.009891  -0.012301   0.205943
   26  C  3  Y    0.057851  -0.070452  -0.081527   0.018930   0.128069
   27  C  3  Z   -0.070422   0.171526  -0.049011   0.137600  -0.079085
   28  C  4  S    0.064052  -0.105335   0.005933   0.101659  -0.053904
   29  C  4  S   -0.037847   0.052379   0.008333  -0.051905   0.024582
   30  C  4  X    0.001937  -0.025428  -0.081928   0.188313   0.110463
   31  C  4  Y    0.038562   0.163634  -0.014408   0.049927   0.055129
   32  C  4  Z   -0.063752   0.094206  -0.026239   0.079634   0.163180
   33  C  4  S   -0.789368   1.364234  -0.095917  -1.305635   0.716696
   34  C  4  X    0.104795  -0.116109  -0.444027   0.646929   0.494956
   35  C  4  Y    0.168274   0.576625  -0.073798   0.194390   0.209699
   36  C  4  Z   -0.257216   0.344696  -0.145341   0.332997   0.537959
   37  O  5  S    0.014191  -0.012985   0.049001   0.000550   0.004312
   38  O  5  S   -0.011124   0.006331  -0.039413  -0.008020  -0.005860
   39  O  5  X   -0.016201  -0.032285  -0.127770  -0.005720  -0.076485
   40  O  5  Y   -0.038674   0.032048  -0.006436   0.035221  -0.006417
   41  O  5  Z    0.019960   0.051390  -0.051289   0.047741   0.032031
   42  O  5  S   -0.113316   0.133720  -0.384804   0.026410  -0.027369
   43  O  5  X   -0.034357  -0.024967  -0.177682  -0.005084  -0.119954
   44  O  5  Y   -0.064492   0.078220  -0.050186   0.047998  -0.028290
   45  O  5  Z   -0.003728   0.083457  -0.154669   0.059593   0.047755
   46  O  6  S    0.086258   0.034092  -0.027400  -0.009656  -0.016268
   47  O  6  S   -0.055883  -0.018247   0.011588   0.003338   0.013089
   48  O  6  X   -0.216022  -0.087646   0.034148   0.095752   0.000018
   49  O  6  Y   -0.008789  -0.070709   0.049449  -0.067132   0.056695
   50  O  6  Z   -0.005565   0.044751   0.065202   0.022316   0.014315
   51  O  6  S   -0.728469  -0.305529   0.257188   0.102054   0.119699
   52  O  6  X   -0.434672  -0.153738   0.054197   0.168776   0.008100
   53  O  6  Y   -0.002106  -0.133306   0.060212  -0.140518   0.126398
   54  O  6  Z   -0.017398   0.055746   0.070946   0.055249   0.030468
   55  H  7  S    0.044931   0.057991   0.123090   0.077163   0.016554
   56  H  7  S    0.323717   0.283054   0.909522   0.454329   0.165630
   57  H  8  S   -0.030033  -0.021104  -0.013604  -0.053744   0.042402
   58  H  8  S    0.291975  -0.921613  -0.081043  -0.693369   1.396222
   59  H  9  S    0.038360  -0.026121   0.025268  -0.020092  -0.029665
   60  H  9  S    0.695446  -0.507373   0.231110   0.132215  -0.784095
   61  H 10  S   -0.024601  -0.045324   0.042435  -0.015265  -0.068522
   62  H 10  S    0.136661  -1.298010   0.254233   0.086347  -0.777888
   63  H 11  S    0.013781   0.003125  -0.076454   0.093657   0.064988
   64  H 11  S    0.334123  -0.349702  -0.568623   1.506557   0.605783
   65  H 12  S    0.110596   0.031623  -0.061648  -0.033786  -0.033799
   66  H 12  S    1.037126   0.317019  -0.325658  -0.394409  -0.105910

                     31         32         33         34         35
                    0.1885     0.2243     0.2597     0.2725     0.3354
                     A          A          A          A          A   
    1  O  1  S   -0.010800  -0.028788   0.030611   0.028842  -0.022995
    2  O  1  S    0.009992   0.025330  -0.011874  -0.028060   0.013815
    3  O  1  X   -0.014237  -0.149531   0.042581   0.026479  -0.087441
    4  O  1  Y   -0.021146   0.011991  -0.192156  -0.024219   0.007904
    5  O  1  Z   -0.067392   0.010335  -0.172680  -0.254623   0.129148
    6  O  1  S    0.087113   0.230178  -0.309300  -0.167103   0.249186
    7  O  1  X   -0.039865  -0.262862   0.113985   0.019277  -0.197611
    8  O  1  Y   -0.037236   0.024255  -0.381543  -0.068932   0.022774
    9  O  1  Z   -0.149376   0.005412  -0.416781  -0.486874   0.237266
   10  C  2  S    0.000960   0.081033   0.019327  -0.100849   0.136475
   11  C  2  S    0.000419  -0.044898  -0.018585   0.109179  -0.105925
   12  C  2  X    0.038262   0.208538   0.210612   0.276085   0.098125
   13  C  2  Y   -0.064845  -0.001163   0.182342  -0.239352   0.214182
   14  C  2  Z    0.012126   0.199842  -0.300830   0.117175   0.047712
   15  C  2  S   -0.078541  -0.940500  -0.108663   0.721191  -1.613768
   16  C  2  X    0.185740   0.690620   0.744605   0.748107   0.754566
   17  C  2  Y   -0.262272  -0.046971   0.488919  -0.400000   0.550792
   18  C  2  Z    0.075116   0.363282  -0.858400   0.431901   0.405383
   19  C  3  S   -0.016962  -0.170138  -0.063276   0.014144  -0.002527
   20  C  3  S    0.011029   0.082564   0.004811   0.004657  -0.003813
   21  C  3  X    0.046946   0.004343   0.048903   0.192859   0.490497
   22  C  3  Y   -0.087491   0.128455  -0.067828   0.095457  -0.022813
   23  C  3  Z    0.043396   0.165919   0.016570  -0.126471  -0.040764
   24  C  3  S    0.201400   2.208060   0.939563  -0.237221  -0.134721
   25  C  3  X    0.121203   0.052351   0.204323   0.665717   1.791825
   26  C  3  Y   -0.234657   0.411572  -0.216335   0.060807  -0.022729
   27  C  3  Z    0.052323   0.660581   0.077415  -0.552437  -0.025320
   28  C  4  S    0.018759   0.073278   0.021662  -0.036018  -0.056670
   29  C  4  S   -0.011332  -0.030664   0.003158   0.006225   0.004336
   30  C  4  X   -0.017195  -0.222983   0.126305   0.078525  -0.053554
   31  C  4  Y    0.288561  -0.002450   0.076575  -0.128446  -0.033257
   32  C  4  Z   -0.163313   0.147424   0.053785  -0.013807  -0.130660
   33  C  4  S   -0.218782  -0.896774  -0.361245   0.596332   0.953903
   34  C  4  X   -0.105275  -1.041859   0.159205   0.412646   0.242844
   35  C  4  Y    1.035431   0.062504   0.171320  -0.512752  -0.426988
   36  C  4  Z   -0.620052   0.664156   0.196411  -0.360089  -1.054677
   37  O  5  S    0.002760   0.009467   0.021862   0.001956  -0.027185
   38  O  5  S    0.002137  -0.014073  -0.009004   0.008501   0.012591
   39  O  5  X   -0.000575   0.001075  -0.010469  -0.038693  -0.156050
   40  O  5  Y    0.023753  -0.056260  -0.026573  -0.052006   0.040239
   41  O  5  Z   -0.047617  -0.074782  -0.099563   0.007042   0.077449
   42  O  5  S   -0.059072  -0.047362  -0.251605  -0.104655   0.318993
   43  O  5  X   -0.017014   0.023978  -0.063836  -0.135119  -0.343009
   44  O  5  Y    0.050465  -0.093910  -0.031941  -0.093933   0.111029
   45  O  5  Z   -0.085047  -0.126479  -0.205951   0.022626   0.210410
   46  O  6  S   -0.000709   0.004306  -0.039337   0.052391  -0.030313
   47  O  6  S   -0.004761  -0.001277   0.018243  -0.033224   0.023772
   48  O  6  X    0.127157  -0.007367  -0.143169   0.015913  -0.024595
   49  O  6  Y   -0.019063  -0.052953   0.128358  -0.143500   0.016611
   50  O  6  Z    0.049947   0.032504  -0.109632   0.233996  -0.135326
   51  O  6  S    0.050912  -0.039202   0.376630  -0.479359   0.248862
   52  O  6  X    0.198698  -0.011573  -0.334824   0.068241  -0.100823
   53  O  6  Y   -0.052314  -0.088044   0.264481  -0.284500   0.036376
   54  O  6  Z    0.142150   0.059579  -0.285951   0.471396  -0.248048
   55  H  7  S   -0.029012   0.024461  -0.035232  -0.020618   0.087754
   56  H  7  S   -0.287250  -0.148186  -0.580224  -0.454395   0.101793
   57  H  8  S    0.064099  -0.007711   0.012662  -0.006366  -0.046950
   58  H  8  S    0.305449   0.158385  -0.406791  -0.221912  -0.139978
   59  H  9  S    0.097241  -0.049770  -0.020792   0.022448   0.019366
   60  H  9  S    1.432780  -0.118835   0.000576  -0.274728   0.294042
   61  H 10  S   -0.069643  -0.037364   0.047905   0.034252   0.032809
   62  H 10  S   -1.001054   0.228003  -0.148965   0.406676   0.244463
   63  H 11  S   -0.012438  -0.028907  -0.014157   0.014273   0.088805
   64  H 11  S   -0.060166  -0.394568   0.526915   0.018432  -0.459350
   65  H 12  S   -0.022376  -0.026350   0.006213  -0.066758   0.001138
   66  H 12  S   -0.436905  -0.119742   0.340796  -0.251989  -0.007276

                     36         37         38         39         40
                    0.4104     0.6550     0.6896     0.7459     0.7547
                     A          A          A          A          A   
    1  O  1  S    0.053439   0.002823  -0.004457  -0.009296  -0.011647
    2  O  1  S   -0.027427  -0.047309   0.002075   0.007410   0.012103
    3  O  1  X    0.022571   0.122560   0.007506  -0.018511   0.046983
    4  O  1  Y   -0.026183  -0.027209   0.031035   0.069062  -0.011641
    5  O  1  Z   -0.098926  -0.126031  -0.030645  -0.050928   0.013279
    6  O  1  S   -0.597513   0.362528   0.095712   0.149890   0.126609
    7  O  1  X    0.161263   0.003214  -0.058186  -0.113002   0.042686
    8  O  1  Y   -0.072342   0.035969   0.027717   0.097274  -0.007902
    9  O  1  Z   -0.247647   0.048370  -0.026335  -0.057022   0.094002
   10  C  2  S   -0.044162  -0.017860   0.010055   0.010816  -0.001389
   11  C  2  S    0.091376  -0.014827  -0.034679  -0.060276   0.013916
   12  C  2  X    0.045763   0.550302  -0.132753  -0.254971   0.448638
   13  C  2  Y   -0.144318  -0.015582   0.131020   0.406839  -0.123409
   14  C  2  Z   -0.210863  -0.564518  -0.329304  -0.507306   0.213355
   15  C  2  S   -0.019163   0.423027  -0.060551  -0.009560   0.287699
   16  C  2  X    0.460557  -0.930093   0.225050   0.396092  -0.990365
   17  C  2  Y   -0.266507   0.043559  -0.130233  -0.653984   0.114999
   18  C  2  Z   -0.762688   0.757932   0.476904   0.964627  -0.345681
   19  C  3  S    0.052847  -0.009091  -0.000830   0.003375   0.006192
   20  C  3  S    0.018396   0.022399   0.014585   0.016400   0.007198
   21  C  3  X   -0.059907  -0.055435  -0.085806   0.033068   0.147264
   22  C  3  Y    0.105704  -0.092789   0.765764  -0.014662  -0.107622
   23  C  3  Z    0.257664   0.121867  -0.302404  -0.119317  -0.256957
   24  C  3  S   -0.530546  -0.695569   0.102701   0.673489   0.218681
   25  C  3  X    0.128251  -0.272108   0.217337   0.019782  -0.880555
   26  C  3  Y    0.897953  -0.163277  -0.644688  -0.087095  -0.041874
   27  C  3  Z    1.938220  -0.726298   0.099365  -0.146748  -0.062065
   28  C  4  S    0.025249   0.009399   0.002552  -0.020878  -0.034829
   29  C  4  S    0.044371  -0.099039  -0.014792   0.039755   0.075775
   30  C  4  X    0.029200  -0.588048  -0.061333   0.285580   0.228544
   31  C  4  Y   -0.065559  -0.024593   0.288822  -0.583470  -0.093391
   32  C  4  Z   -0.151225   0.103854  -0.148319  -0.159292  -0.770996
   33  C  4  S   -0.934485   0.365070   0.117412   0.128100  -0.043432
   34  C  4  X   -0.814290   0.945405   0.133968  -0.367791  -0.198341
   35  C  4  Y    0.009611   0.108310  -0.478260   0.979385   0.224345
   36  C  4  Z    0.082535   0.005087   0.201779   0.219911   1.437074
   37  O  5  S   -0.127607   0.013931  -0.000220   0.012076   0.025337
   38  O  5  S    0.063428  -0.003855   0.009903   0.011148  -0.015972
   39  O  5  X    0.031318   0.024840   0.016912  -0.029302  -0.130299
   40  O  5  Y    0.094327   0.005988   0.036227   0.007304  -0.014433
   41  O  5  Z    0.179248   0.009156  -0.003852  -0.000869  -0.007170
   42  O  5  S    1.631376  -0.283393  -0.078015  -0.247543  -0.284051
   43  O  5  X    0.202235   0.007943  -0.027675  -0.031933   0.051612
   44  O  5  Y    0.324370  -0.047250   0.056344  -0.058378  -0.088486
   45  O  5  Z    0.634813  -0.039169  -0.035672  -0.119715  -0.176658
   46  O  6  S   -0.003062   0.008605   0.011150   0.002699   0.004419
   47  O  6  S   -0.008975   0.001040  -0.005495   0.050142  -0.024885
   48  O  6  X   -0.006623   0.019905   0.068081  -0.034809  -0.000764
   49  O  6  Y    0.037613   0.001151   0.051978   0.062493  -0.014521
   50  O  6  Z    0.048151  -0.097847  -0.044438  -0.089662   0.007347
   51  O  6  S    0.130905  -0.230293  -0.177843  -0.439004   0.118701
   52  O  6  X   -0.026795   0.091430  -0.000850   0.063830   0.037663
   53  O  6  Y    0.117746  -0.078823  -0.050929  -0.108380   0.051059
   54  O  6  Z    0.042956  -0.008954   0.046729   0.160113  -0.061244
   55  H  7  S    0.018145  -0.092811  -0.021788  -0.058545  -0.089770
   56  H  7  S    0.132767   0.130675   0.005187   0.043633   0.091147
   57  H  8  S   -0.030042  -0.100115   0.133971   0.122770   0.076690
   58  H  8  S    0.202527  -0.055491  -0.025141   0.049895   0.014684
   59  H  9  S   -0.033190  -0.063328  -0.300399   0.137174  -0.373219
   60  H  9  S    0.270082  -0.048023  -0.031145  -0.040405  -0.273772
   61  H 10  S   -0.050305  -0.176229   0.275089  -0.368553  -0.179192
   62  H 10  S    0.270924  -0.037822   0.022048  -0.170242  -0.202660
   63  H 11  S    0.062557   0.270434   0.038307  -0.084668   0.045031
   64  H 11  S   -0.287445   0.064902   0.017367  -0.025951   0.044060
   65  H 12  S    0.003110   0.026655   0.109705  -0.023540   0.052102
   66  H 12  S   -0.036970   0.028645  -0.192512  -0.182752   0.151276

                     41         42         43         44         45
                    0.7800     0.8237     0.8519     0.9233     0.9438
                     A          A          A          A          A   
    1  O  1  S    0.014114   0.004054   0.004899   0.008986  -0.025480
    2  O  1  S   -0.033439   0.016086   0.002882  -0.015380   0.029001
    3  O  1  X   -0.017368   0.011980  -0.042150   0.072552   0.106776
    4  O  1  Y   -0.053039   0.016037   0.029694  -0.117244   0.067431
    5  O  1  Z   -0.000307   0.034308   0.006245   0.088990   0.043996
    6  O  1  S   -0.074461  -0.217049   0.050946   0.079445   0.382769
    7  O  1  X   -0.091485   0.124250   0.021666  -0.035777  -0.195849
    8  O  1  Y   -0.036297  -0.028295   0.022397  -0.078637   0.007627
    9  O  1  Z   -0.055481  -0.006339   0.078919   0.074860   0.065942
   10  C  2  S   -0.010648   0.003630  -0.008334   0.000736   0.039941
   11  C  2  S    0.021429   0.023668   0.157798   0.018168   0.035560
   12  C  2  X   -0.442281   0.276491   0.155100  -0.225090   0.004357
   13  C  2  Y   -0.091176   0.113684  -0.285434  -0.704849  -0.348133
   14  C  2  Z   -0.094503   0.407077  -0.321260  -0.055411  -0.254793
   15  C  2  S   -0.694281  -0.320492  -0.020826   0.314593  -0.557390
   16  C  2  X    1.280019  -0.256087  -0.229142   0.378485   0.320360
   17  C  2  Y    0.427378  -0.187423   0.320293   1.715849   0.438814
   18  C  2  Z    0.370984  -1.009400   0.209922   0.042716   0.980723
   19  C  3  S   -0.035321  -0.031515  -0.029294   0.006047  -0.026553
   20  C  3  S    0.063415   0.143536   0.163304  -0.106615   0.207857
   21  C  3  X   -0.558487  -0.336699   0.338315   0.146823  -0.288387
   22  C  3  Y   -0.424996   0.197890  -0.291731   0.333068  -0.167423
   23  C  3  Z   -0.456960  -0.486904  -0.685845   0.060766   0.273667
   24  C  3  S    0.999999  -0.364706   0.166012   0.547018   0.144773
   25  C  3  X    1.287235   0.382767  -0.632461  -0.139627   1.244602
   26  C  3  Y    0.359174  -0.363787   0.533087  -1.168933   0.257359
   27  C  3  Z    0.102683   1.033499   1.339671  -0.351041  -0.708103
   28  C  4  S    0.004789   0.022709  -0.018374  -0.004601   0.037696
   29  C  4  S    0.007900  -0.000659   0.018914  -0.007742  -0.080366
   30  C  4  X   -0.123533  -0.077904   0.239035  -0.206638   0.312669
   31  C  4  Y    0.080782  -0.337949   0.177951  -0.476123   0.057632
   32  C  4  Z   -0.186326   0.299946   0.305645  -0.095498  -0.049146
   33  C  4  S    0.142144  -0.284328  -0.716829   0.186365   0.653403
   34  C  4  X    0.340568   0.024966  -0.995746   0.556399  -0.300151
   35  C  4  Y   -0.275861   0.798644  -0.214502   1.145611  -0.528726
   36  C  4  Z    0.187124  -0.651358  -0.321791   0.105807  -0.354353
   37  O  5  S    0.029828   0.000975   0.000828   0.010613   0.004847
   38  O  5  S   -0.018859  -0.028128  -0.018214   0.017694   0.002418
   39  O  5  X   -0.084544  -0.120047   0.093163   0.087378  -0.096440
   40  O  5  Y   -0.095684  -0.005987  -0.072846   0.093786  -0.079855
   41  O  5  Z   -0.139439  -0.154883  -0.187300   0.048930   0.054484
   42  O  5  S   -0.110586   0.396785   0.474891  -0.487861  -0.130756
   43  O  5  X   -0.199542  -0.020623   0.093304  -0.031410  -0.136729
   44  O  5  Y   -0.145633   0.100117  -0.016975   0.049998  -0.035452
   45  O  5  Z   -0.220541  -0.027899  -0.062455  -0.172401   0.009898
   46  O  6  S    0.002420   0.010307   0.003790  -0.010301   0.009013
   47  O  6  S   -0.020022  -0.047391  -0.002697  -0.002731   0.016520
   48  O  6  X    0.067915   0.014784  -0.034595  -0.025531  -0.196542
   49  O  6  Y   -0.106598   0.095232  -0.018550  -0.140360  -0.018265
   50  O  6  Z    0.008225   0.102623  -0.030736  -0.040596  -0.037086
   51  O  6  S    0.029468   0.262432   0.011109   0.339685  -0.120066
   52  O  6  X   -0.084775  -0.070317   0.011130  -0.149883  -0.037616
   53  O  6  Y   -0.041928   0.135135  -0.019604   0.005751  -0.091165
   54  O  6  Z   -0.003255  -0.087292  -0.048357  -0.191123  -0.021786
   55  H  7  S    0.108935   0.015262   0.128738   0.419649  -0.051163
   56  H  7  S   -0.094658  -0.077803   0.267949  -0.271299   0.072815
   57  H  8  S   -0.364072   0.232359   0.052683  -0.074594   0.710362
   58  H  8  S   -0.122439   0.099073  -0.169923  -0.879874  -0.857894
   59  H  9  S   -0.135100   0.245711  -0.020103   0.055310   0.160589
   60  H  9  S   -0.054493   0.316122   0.141716   0.148918  -0.043252
   61  H 10  S    0.005253  -0.122216  -0.023598  -0.052622   0.363920
   62  H 10  S    0.063531  -0.106528   0.181108  -0.591603   0.064859
   63  H 11  S    0.317437   0.288402  -0.314988  -0.073779   0.265101
   64  H 11  S    0.032180  -0.128011  -0.286350   0.418379  -0.447516
   65  H 12  S   -0.039796   0.318131   0.168337   0.199667   0.484233
   66  H 12  S   -0.166053  -0.079533  -0.081010  -0.062544  -0.368598

                     46         47         48         49         50
                    0.9849     1.0043     1.0142     1.0273     1.0668
                     A          A          A          A          A   
    1  O  1  S    0.002959  -0.034149   0.000289   0.012996   0.016561
    2  O  1  S   -0.033345   0.029532   0.027906  -0.021880   0.002019
    3  O  1  X    0.232982  -0.066812  -0.258983   0.129139  -0.076741
    4  O  1  Y   -0.026499  -0.181412  -0.131184   0.126575   0.108836
    5  O  1  Z    0.010778  -0.023955  -0.029244   0.024178   0.026296
    6  O  1  S    0.253148   0.315412  -0.415195  -0.009078  -0.352980
    7  O  1  X   -0.131094  -0.194295   0.071346   0.037982   0.133853
    8  O  1  Y    0.105013  -0.093667  -0.058966   0.051411  -0.073608
    9  O  1  Z    0.080890   0.048784  -0.248138   0.033368  -0.129926
   10  C  2  S   -0.020434   0.025037   0.002679  -0.001555   0.016770
   11  C  2  S    0.119007   0.007122  -0.159911  -0.036929  -0.234162
   12  C  2  X    0.114416   0.065064  -0.220726   0.051376  -0.319295
   13  C  2  Y    0.205989  -0.340912   0.063018   0.122106  -0.135923
   14  C  2  Z   -0.010862  -0.054868   0.088059   0.035061   0.082264
   15  C  2  S   -0.765963  -0.641659   0.363896   0.083850   0.917807
   16  C  2  X    0.225178   0.168764   0.738319  -0.212694   0.445140
   17  C  2  Y   -0.176695   1.238650  -0.242364  -0.532939  -0.082688
   18  C  2  Z    0.449562   0.548476  -0.219930  -0.159117  -0.435660
   19  C  3  S    0.030274   0.013169   0.007901   0.008405   0.008790
   20  C  3  S   -0.403638  -0.204353  -0.153681  -0.058110  -0.117904
   21  C  3  X   -0.239661  -0.223618   0.173868  -0.014712   0.212428
   22  C  3  Y    0.073075   0.160275  -0.160392  -0.158547  -0.059519
   23  C  3  Z    0.200327   0.032804  -0.032403   0.062081   0.016914
   24  C  3  S    0.385108   0.369523   0.427815  -0.227063   0.098848
   25  C  3  X    1.117045   1.167934  -0.355744  -0.087835  -0.663960
   26  C  3  Y   -0.115023  -0.575931   0.399511   0.307491   0.140507
   27  C  3  Z   -0.591191  -0.186025   0.282439  -0.091959  -0.048572
   28  C  4  S   -0.050030  -0.027591  -0.018964  -0.016612  -0.032099
   29  C  4  S    0.066649   0.017578   0.071469   0.034952   0.135500
   30  C  4  X    0.254329   0.424822  -0.356181   0.040935  -0.156898
   31  C  4  Y    0.240350  -0.066996  -0.214905  -0.481335   0.311985
   32  C  4  Z    0.177462   0.424379   0.030556   0.327972   0.144537
   33  C  4  S    0.585979   0.526146  -0.495236  -0.042767  -0.559672
   34  C  4  X   -0.337732  -0.640502   0.437291  -0.036177   0.480737
   35  C  4  Y   -0.488836   0.132278   0.264748   0.480344  -0.319446
   36  C  4  Z   -0.546422  -1.043586   0.274906  -0.328236   0.260805
   37  O  5  S   -0.003594   0.011618   0.002299  -0.009310   0.000636
   38  O  5  S    0.011238  -0.023617  -0.013533   0.017718   0.002478
   39  O  5  X   -0.038090  -0.098315   0.036514   0.006781   0.072084
   40  O  5  Y    0.031677   0.087065  -0.041852  -0.109531  -0.028973
   41  O  5  Z    0.075813   0.075656   0.072484   0.015092   0.014229
   42  O  5  S   -0.180034  -0.163933   0.066116   0.078340  -0.075561
   43  O  5  X   -0.117173  -0.145119   0.009776   0.037595   0.065826
   44  O  5  Y   -0.013342   0.029441  -0.002165   0.028476  -0.016892
   45  O  5  Z    0.022936  -0.051954  -0.015084   0.034688  -0.025637
   46  O  6  S    0.029354  -0.011699   0.024349   0.005460  -0.005780
   47  O  6  S   -0.062237  -0.003205  -0.044927  -0.013918   0.029309
   48  O  6  X   -0.145970   0.147262  -0.158022   0.130336   0.015840
   49  O  6  Y   -0.101549  -0.088983  -0.028360   0.073805   0.149207
   50  O  6  Z    0.025686  -0.076489   0.075702  -0.041134   0.046409
   51  O  6  S   -0.057020   0.149397  -0.004274  -0.097022  -0.014068
   52  O  6  X   -0.102965   0.009274  -0.194904  -0.007388  -0.081224
   53  O  6  Y    0.022132  -0.029430   0.015618  -0.010519  -0.067768
   54  O  6  Z   -0.020238  -0.107520   0.007029   0.094726   0.037794
   55  H  7  S    0.424873  -0.732065  -0.701476   0.487647   0.176585
   56  H  7  S   -0.468015   0.588047   0.548898  -0.442134  -0.197332
   57  H  8  S   -0.401583  -0.097085   0.003818   0.145309   0.658302
   58  H  8  S    0.473235  -0.582808  -0.027683   0.210002  -0.768303
   59  H  9  S   -0.242305  -0.396655  -0.355229  -0.892108  -0.341635
   60  H  9  S    0.188542   0.840622   0.265759   1.165591   0.056850
   61  H 10  S   -0.477063  -0.253220   0.185640   0.518576  -0.790232
   62  H 10  S    0.617953   0.216176  -0.389975  -0.803099   0.941590
   63  H 11  S   -0.177431   0.138194  -0.265315   0.033079   0.381886
   64  H 11  S   -0.315842  -0.761147   0.577747  -0.104302  -0.124736
   65  H 12  S    0.720055  -0.353193   0.772754  -0.171477  -0.035670
   66  H 12  S   -0.586153   0.304193  -0.686992   0.145131   0.007499

                     51         52         53         54         55
                    1.1009     1.3762     1.4651     1.5133     1.5779
                     A          A          A          A          A   
    1  O  1  S   -0.008462   0.004391   0.014935   0.022218  -0.017735
    2  O  1  S    0.000975  -0.015923  -0.037898  -0.083102   0.046726
    3  O  1  X    0.107295  -0.069121   0.056514   0.040327   0.071752
    4  O  1  Y    0.050402  -0.015676  -0.479653   0.046199   0.386203
    5  O  1  Z    0.005755  -0.073779   0.363381   0.126246  -0.313174
    6  O  1  S    0.153767   0.018239  -0.126759  -0.222354   0.090438
    7  O  1  X   -0.127040   0.035709  -0.013928   0.030573  -0.124387
    8  O  1  Y   -0.045210   0.002580   0.514568  -0.100715  -0.492813
    9  O  1  Z    0.029209   0.078175  -0.452959  -0.306924   0.444228
   10  C  2  S    0.039822   0.026488  -0.013917  -0.012164   0.018253
   11  C  2  S   -0.173405  -0.400599   0.105629  -0.648155   0.029264
   12  C  2  X    0.070897   0.113242   0.020477   0.005546  -0.048765
   13  C  2  Y   -0.139723  -0.072048   0.055492  -0.018124  -0.005925
   14  C  2  Z   -0.012397  -0.085183   0.010520  -0.007688  -0.013641
   15  C  2  S   -0.628092  -0.118662   0.235324   1.378464  -0.527004
   16  C  2  X    0.408212   0.398848   0.083468   0.023129  -0.205230
   17  C  2  Y    0.363844   0.353436  -0.484308  -0.175117   0.675535
   18  C  2  Z    0.277350   0.207899  -0.025111  -0.162563  -0.380981
   19  C  3  S    0.002575   0.020060  -0.003685  -0.001451  -0.004596
   20  C  3  S   -0.024254  -1.220620   0.161935  -0.471110  -0.041131
   21  C  3  X   -0.455174  -0.057369   0.060754   0.065302   0.058509
   22  C  3  Y   -0.046086  -0.130195   0.030344   0.051063   0.115742
   23  C  3  Z   -0.024282  -0.186692   0.029830   0.104459  -0.050802
   24  C  3  S   -0.216767   2.288401  -0.291436  -0.498600  -0.016181
   25  C  3  X    1.771656   0.225931  -0.212499  -0.287092  -0.102710
   26  C  3  Y    0.057487   0.262573  -0.087409   0.202234  -0.610743
   27  C  3  Z   -0.092908   0.523269   0.126496   0.238244   0.373790
   28  C  4  S   -0.060743   0.035266  -0.000251   0.002108   0.000566
   29  C  4  S    0.157532  -0.485680   0.057938  -0.534598  -0.107762
   30  C  4  X   -0.367900   0.095625   0.013021   0.045069  -0.026452
   31  C  4  Y    0.042660  -0.001266   0.037690  -0.008217  -0.033671
   32  C  4  Z   -0.072226  -0.076272  -0.023155  -0.044375   0.035617
   33  C  4  S    0.406215   0.339910  -0.111749   0.879925   0.067268
   34  C  4  X    0.436502  -0.696336   0.000547  -0.148983   0.007989
   35  C  4  Y   -0.365500   0.060456  -0.017711   0.007764   0.355260
   36  C  4  Z   -0.525366   0.356068   0.071799   0.180091  -0.126637
   37  O  5  S   -0.011181   0.008746  -0.008585  -0.055510  -0.004041
   38  O  5  S    0.015516  -0.022781   0.027069   0.162745   0.008833
   39  O  5  X   -0.160579   0.150637   0.038233  -0.143761  -0.082475
   40  O  5  Y   -0.024689   0.010721  -0.656094  -0.206682  -0.634709
   41  O  5  Z    0.000097   0.265638   0.199558  -0.753933   0.232943
   42  O  5  S    0.214160  -0.167438   0.078305   0.288480   0.029457
   43  O  5  X   -0.129382  -0.168127   0.002847   0.263723   0.107385
   44  O  5  Y    0.047195  -0.046468   0.701257   0.330533   0.804128
[...]
   20  C  3  S   -0.007957   0.074454  -0.029673  -0.025609
   21  C  3  X   -0.028837   0.011584  -0.050594   0.161230
   22  C  3  Y    0.076329   0.149204   0.033541   0.073346
   23  C  3  Z   -0.022782   0.105775  -0.060987  -0.159061
   24  C  3  S    0.006886   1.755068  -1.382295  -0.938816
   25  C  3  X   -0.054028   0.102519  -0.249771   0.554087
   26  C  3  Y    0.224883   0.426065   0.108736   0.036716
   27  C  3  Z    0.031120   0.458084  -0.263667  -0.642407
   28  C  4  S   -0.041972   0.051920  -0.039947  -0.060508
   29  C  4  S    0.023369  -0.022541   0.008983   0.023283
   30  C  4  X    0.028654  -0.203215  -0.080834   0.151607
   31  C  4  Y   -0.227748  -0.070700  -0.107285  -0.147949
   32  C  4  Z    0.206405   0.133394  -0.074909  -0.036409
   33  C  4  S    0.523273  -0.603008   0.585201   0.856846
   34  C  4  X    0.193305  -0.896919   0.024241   0.708480
   35  C  4  Y   -0.834515  -0.182892  -0.268612  -0.584709
   36  C  4  Z    0.766650   0.541021  -0.327597  -0.433125
   37  O  5  S   -0.000534   0.004470  -0.016463  -0.009829
   38  O  5  S   -0.004740  -0.008564   0.007454   0.018590
   39  O  5  X   -0.032728   0.011174  -0.004262  -0.025091
   40  O  5  Y   -0.015229  -0.067444   0.036762  -0.039044
   41  O  5  Z    0.046784  -0.057743   0.114183   0.038759
   42  O  5  S    0.048683  -0.016780   0.187079   0.002670
   43  O  5  X   -0.030015   0.031741   0.030396  -0.101211
   44  O  5  Y   -0.033785  -0.110621   0.044807  -0.067959
   45  O  5  Z    0.079061  -0.084281   0.215434   0.084793
   46  O  6  S   -0.015998   0.026081   0.032323   0.039929
   47  O  6  S    0.018857  -0.014970  -0.014404  -0.027912
   48  O  6  X   -0.145077   0.014375   0.115398  -0.023945
   49  O  6  Y    0.072177  -0.122687  -0.114073  -0.104869
   50  O  6  Z   -0.067960   0.126442   0.095968   0.197841
   51  O  6  S    0.068524  -0.228238  -0.311610  -0.351239
   52  O  6  X   -0.236062   0.055655   0.259062  -0.011015
   53  O  6  Y    0.152430  -0.221674  -0.233325  -0.191636
   54  O  6  Z   -0.181733   0.244309   0.246658   0.366590
   55  H  7  S    0.041678   0.006764   0.048562  -0.042886
   56  H  7  S    0.325025  -0.210536   0.609345  -0.422774
   57  H  8  S   -0.042155  -0.006249  -0.010023  -0.014946
   58  H  8  S    0.045467   0.165835   0.403465  -0.105952
   59  H  9  S   -0.115824  -0.043403   0.031109   0.021078
   60  H  9  S   -1.563161  -0.174025  -0.025993  -0.440597
   61  H 10  S    0.051601  -0.029343  -0.028405   0.046113
   62  H 10  S    0.668702   0.371571   0.178896   0.420724
   63  H 11  S    0.018286  -0.026899   0.011376   0.028556
   64  H 11  S   -0.026083  -0.540050  -0.522646   0.118479
   65  H 12  S    0.022509  -0.041509  -0.002915  -0.053561
   66  H 12  S    0.440528  -0.227162  -0.253011  -0.106782

     ---------------------------------------------------------------------
     PROPERTIES FOR THE B3LYP    DFT FUNCTIONAL (RHF  TYPE) DENSITY MATRIX
     ---------------------------------------------------------------------

          -----------------
          ENERGY COMPONENTS
          -----------------

         WAVEFUNCTION NORMALIZATION =       1.0000000000

                ONE ELECTRON ENERGY =    -957.9696184252
                TWO ELECTRON ENERGY =     368.7598564157
           NUCLEAR REPULSION ENERGY =     247.7053187067
                                      ------------------
                       TOTAL ENERGY =    -341.5044433028

 ELECTRON-ELECTRON POTENTIAL ENERGY =     368.7598564157
  NUCLEUS-ELECTRON POTENTIAL ENERGY =   -1296.9215813572
   NUCLEUS-NUCLEUS POTENTIAL ENERGY =     247.7053187067
                                      ------------------
             TOTAL POTENTIAL ENERGY =    -680.4564062348
               TOTAL KINETIC ENERGY =     338.9519629320
                 VIRIAL RATIO (V/T) =       2.0075305077

          ---------------------------------------
          MULLIKEN AND LOWDIN POPULATION ANALYSES
          ---------------------------------------

     ATOMIC MULLIKEN POPULATION IN EACH MOLECULAR ORBITAL

                      1          2          3          4          5

                  2.000000   2.000000   2.000000   2.000000   2.000000

    1             0.000010   0.015993   1.978628  -0.000006   0.001137
    2            -0.000100   0.003763   0.004373   0.020154   1.971099
    3             0.008000  -0.000198  -0.000237   1.976135   0.022616
    4             0.000029  -0.000006  -0.000001   0.005584   0.000490
    5             1.991993   0.000005   0.000015  -0.002004  -0.000082
    6             0.000003   1.979518   0.016186   0.000002   0.001205
    7             0.000059  -0.000005   0.001019   0.000015   0.000146
    8            -0.000001   0.000008   0.000011   0.000006   0.003247
    9            -0.000001   0.000009   0.000001   0.000019   0.000002
   10            -0.000001   0.000000  -0.000000   0.000053  -0.000005
   11             0.000009  -0.000000   0.000000   0.000045   0.000005
   12            -0.000000   0.000913   0.000006  -0.000003   0.000140

                      6          7          8          9         10

                  2.000000   2.000000   2.000000   2.000000   2.000000

    1             0.000000   0.258606   0.590178   0.815307   0.014653
    2             0.000170   0.125868   0.219666   0.079337   0.153045
    3             0.006804   0.330870   0.065427   0.018241   0.502676
    4             1.983388  -0.000125   0.000704  -0.000607   1.003465
    5            -0.000006   1.150529   0.454972   0.017195   0.099531
    6            -0.000001   0.108850   0.606083   0.937656   0.062268
    7             0.000000   0.021882   0.022551   0.058048   0.005752
    8            -0.000002  -0.000005  -0.003862   0.000046   0.008895
    9             0.003292   0.000767   0.000272   0.001492   0.042936
   10             0.003205   0.000029   0.000049  -0.000118   0.054237
   11             0.003150  -0.001860  -0.000175   0.000263   0.033812
   12             0.000000   0.004589   0.044136   0.073138   0.018728

                     11         12         13         14         15

                  2.000000   2.000000   2.000000   2.000000   2.000000

    1             0.186456   0.496085   0.044579   0.201989   0.368496
    2             0.714115   0.579649   0.189507   0.366156   0.495522
    3             0.211382   0.277879   0.322477   0.348534   0.326919
    4             0.373815   0.105149   0.233035   0.221622   0.222198
    5             0.031190   0.107504   0.403454   0.277542   0.180257
    6             0.190493   0.087939   0.501176   0.239066   0.150321
    7             0.039695   0.158561   0.029470   0.075501   0.035396
    8             0.075001   0.123692   0.000805   0.093172   0.125755
    9             0.030754   0.001122   0.073484   0.003348   0.035239
   10             0.029518   0.019678   0.017708   0.112159   0.019822
   11             0.055278   0.035275   0.017606   0.002865   0.019165
   12             0.062304   0.007466   0.166701   0.058046   0.020912

                     16         17         18         19         20

                  2.000000   2.000000   2.000000   2.000000   2.000000

    1             0.040605   0.136963   0.148050   0.197895   0.129837
    2             0.064589   0.142580   0.076973   0.105015   0.059021
    3             0.232800   0.191741   0.133737   0.139582   0.226345
    4             0.734143   0.614232   0.536940   0.051776   0.258665
    5             0.261776   0.390199   0.541244   0.405318   0.682893
    6             0.148157   0.040129   0.081225   0.868716   0.400764
    7             0.003455   0.027454   0.017068   0.037679   0.008850
    8             0.008902   0.087336   0.002448   0.021522   0.006570
    9             0.248093   0.018485   0.138844   0.021137   0.103090
   10             0.165237   0.105707   0.091074   0.038304   0.105047
   11             0.061085   0.244936   0.218255   0.023522   0.003376
   12             0.031159   0.000238   0.014142   0.089535   0.015542

                     21         22         23         24

                  2.000000   2.000000   2.000000   2.000000

    1             1.317259   0.136771   1.483132   0.012565
    2             0.077109   0.104665   0.036460   0.205237
    3             0.181106   0.005080   0.001570   0.073362
    4             0.049826   0.118399   0.003382   0.121615
    5             0.197009   0.524221   0.002401   0.720671
    6             0.037555   1.009462   0.412758   0.675167
    7             0.060019   0.002372   0.000242   0.044178
    8             0.013061   0.074625   0.049673   0.113917
    9             0.007176   0.009083   0.001670   0.002418
   10             0.005939   0.007018   0.000286   0.003008
   11             0.037945   0.002037   0.002736   0.014362
   12             0.015996   0.006267   0.005690   0.013501

               ----- POPULATIONS IN EACH AO -----
                             MULLIKEN      LOWDIN
              1  O  1  S      1.98501     1.97915
              2  O  1  S      0.42452     0.58220
              3  O  1  X      0.71107     0.70312
              4  O  1  Y      0.78207     0.77619
              5  O  1  Z      0.64266     0.62420
              6  O  1  S      1.50824     1.03712
              7  O  1  X      0.88127     0.90566
              8  O  1  Y      0.90514     0.93432
              9  O  1  Z      0.73522     0.79140
             10  C  2  S      1.98682     1.97301
             11  C  2  S      0.38632     0.43716
             12  C  2  X      0.55713     0.53639
             13  C  2  Y      0.55750     0.51824
             14  C  2  Z      0.46827     0.44736
             15  C  2  S      0.87370     0.56010
             16  C  2  X      0.32333     0.48813
             17  C  2  Y      0.42991     0.51437
             18  C  2  Z      0.21099     0.41236
             19  C  3  S      1.98615     1.97486
             20  C  3  S      0.42671     0.45196
             21  C  3  X      0.61565     0.58520
             22  C  3  Y      0.40739     0.38910
             23  C  3  Z      0.57688     0.54949
             24  C  3  S      0.73295     0.54150
             25  C  3  X      0.32764     0.49421
             26  C  3  Y      0.36355     0.43815
             27  C  3  Z      0.16594     0.42196
             28  C  4  S      1.98681     1.97428
             29  C  4  S      0.36808     0.42840
             30  C  4  X      0.57103     0.53831
             31  C  4  Y      0.56802     0.52777
             32  C  4  Z      0.57348     0.54172
             33  C  4  S      1.13449     0.58084
             34  C  4  X      0.44134     0.56107
             35  C  4  Y      0.52652     0.59030
             36  C  4  Z      0.46795     0.57110
             37  O  5  S      1.98597     1.98050
             38  O  5  S      0.43821     0.59599
             39  O  5  X      0.84142     0.83658
             40  O  5  Y      0.59427     0.57929
             41  O  5  Z      0.67003     0.65424
             42  O  5  S      1.56088     1.05212
             43  O  5  X      0.90649     0.96234
             44  O  5  Y      0.70998     0.73748
             45  O  5  Z      0.73056     0.78464
             46  O  6  S      1.98485     1.97929
             47  O  6  S      0.42458     0.58582
             48  O  6  X      0.64504     0.62193
             49  O  6  Y      0.78290     0.78079
             50  O  6  Z      0.69902     0.69237
             51  O  6  S      1.50740     1.05802
             52  O  6  X      0.75790     0.78805
             53  O  6  Y      0.91824     0.95443
             54  O  6  Z      0.83477     0.88352
             55  H  7  S      0.40646     0.41681
             56  H  7  S      0.24295     0.34955
             57  H  8  S      0.48628     0.49244
             58  H  8  S      0.31854     0.44201
             59  H  9  S      0.45695     0.45213
             60  H  9  S      0.28578     0.41137
             61  H 10  S      0.46127     0.45702
             62  H 10  S      0.31668     0.42402
             63  H 11  S      0.46630     0.46169
             64  H 11  S      0.30739     0.42448
             65  H 12  S      0.42005     0.42994
             66  H 12  S      0.22909     0.33043

          ----- MULLIKEN ATOMIC OVERLAP POPULATIONS -----
          (OFF-DIAGONAL ELEMENTS NEED TO BE MULTIPLIED BY 2)

             1           2           3           4           5

    1    8.1955929
    2    0.2586406   5.3008601
    3   -0.0233871   0.0598735   5.1233602
    4    0.0020052  -0.1402426   0.1229890   5.7068734
    5   -0.0108626  -0.0881345   0.5207662  -0.0801850   8.0425059
    6   -0.0356913   0.2042336  -0.0449447  -0.0001049   0.0001254
    7    0.2329929  -0.0807765  -0.0028833   0.0026847   0.0476797
    8   -0.0488188   0.3108406  -0.0559326  -0.0003499   0.0017554
    9    0.0000648   0.0012731  -0.0392808   0.3387507   0.0010262
   10   -0.0000132   0.0032657  -0.0323856   0.3421787   0.0010612
   11   -0.0000114   0.0045621  -0.0315465   0.3434423   0.0021464
   12    0.0046766  -0.0404207   0.0062176  -0.0003240  -0.0000594

             6           7           8           9          10

    6    8.2202121
    7    0.0025673   0.4406741
    8   -0.0484930   0.0070367   0.6365682
    9    0.0152820  -0.0000720   0.0006170   0.4619766
   10   -0.0001460  -0.0000320   0.0017761  -0.0199430   0.5019671
   11    0.0000340  -0.0000433  -0.0001426  -0.0167014  -0.0197693
   12    0.2416245  -0.0004219  -0.0000371  -0.0002621  -0.0000054

            11          12

   11    0.4917177
   12    0.0000036   0.4381543

          TOTAL MULLIKEN AND LOWDIN ATOMIC POPULATIONS
       ATOM         MULL.POP.    CHARGE          LOW.POP.     CHARGE
    1 O             8.575188   -0.575188         8.333363   -0.333363
    2 C             5.793975    0.206025         5.887123    0.112877
    3 C             5.602846    0.397154         5.846422    0.153578
    4 C             6.637717   -0.637717         6.313791   -0.313791
    5 O             8.437825   -0.437825         8.183188   -0.183188
    6 O             8.554699   -0.554699         8.344218   -0.344218
    7 H             0.649406    0.350594         0.766355    0.233645
    8 H             0.804820    0.195180         0.934451    0.065549
    9 H             0.742731    0.257269         0.863504    0.136496
   10 H             0.777954    0.222046         0.881034    0.118966
   11 H             0.773692    0.226308         0.886179    0.113821
   12 H             0.649146    0.350854         0.760372    0.239628

          -------------------------------
          BOND ORDER AND VALENCE ANALYSIS     BOND ORDER THRESHOLD=0.050
          -------------------------------

                   BOND                       BOND                       BOND
  ATOM PAIR DIST  ORDER      ATOM PAIR DIST  ORDER      ATOM PAIR DIST  ORDER
    1   2  1.414  1.001        1   7  1.008  0.747        2   3  1.542  0.808
    2   6  1.460  0.922        2   8  1.097  0.844        3   4  1.499  0.885
    3   5  1.237  1.858        4   9  1.096  0.873        4  10  1.098  0.897
    4  11  1.091  0.909        5   7  1.952  0.103        6  12  0.996  0.816

                       TOTAL       BONDED        FREE
      ATOM            VALENCE     VALENCE     VALENCE
    1 O                 1.905       1.905      -0.000
    2 C                 3.602       3.602      -0.000
    3 C                 3.589       3.589      -0.000
    4 C                 3.588       3.588      -0.000
    5 O                 2.095       2.095      -0.000
    6 O                 1.876       1.876       0.000
    7 H                 0.879       0.879       0.000
    8 H                 0.898       0.898       0.000
    9 H                 0.910       0.910       0.000
   10 H                 0.910       0.910      -0.000
   11 H                 0.914       0.914       0.000
   12 H                 0.858       0.858      -0.000

          ---------------------
          ELECTROSTATIC MOMENTS
          ---------------------

 POINT   1           X           Y           Z (BOHR)    CHARGE
                 0.084521    0.339758   -0.525680       -0.00 (A.U.)
         DX          DY          DZ         /D/  (DEBYE)
    -0.250366    0.975155    1.596804    1.887696
 ...... END OF PROPERTY EVALUATION ......
 CPU     0: STEP CPU TIME=     0.03 TOTAL CPU TIME=        106.9 (      1.8 MIN)
 TOTAL WALL CLOCK TIME=        108.3 SECONDS, CPU UTILIZATION IS    98.75%
  $VIB   
          IVIB=   0 IATOM=   0 ICOORD=   0 E=     -341.5044433028
 -2.611981516E-05-5.253015732E-06-1.347458581E-05 4.910560602E-05 3.571418319E-05
 -2.665165019E-05-2.148968245E-05 1.853387414E-05-2.325028489E-05-5.651169467E-05
  2.022177759E-05 6.905965888E-05 4.516127883E-05-1.176746652E-05-2.444800561E-05
 -6.445994169E-05-3.309936932E-05 7.359176600E-06-1.878586153E-05 7.436552556E-06
  1.317363846E-05 4.193562247E-06 5.253716151E-06-1.994288491E-05-1.653668902E-05
  1.135523715E-05 4.339555731E-06 1.425421311E-06-3.189875608E-05-1.384802319E-05
  1.527857515E-05 1.825419350E-06-7.532749368E-06 8.873924097E-05-1.832215248E-05
  3.521615430E-05
 -2.503659223E-01 9.751554983E-01 1.596804251E+00
 ......END OF GEOMETRY SEARCH......
 CPU     0: STEP CPU TIME=     0.01 TOTAL CPU TIME=        106.9 (      1.8 MIN)
 TOTAL WALL CLOCK TIME=        108.3 SECONDS, CPU UTILIZATION IS    98.75%
               580000  WORDS OF DYNAMIC MEMORY USED
 EXECUTION OF GAMESS TERMINATED NORMALLY Fri May 22 16:29:16 2020
 DDI: 263640 bytes (0.3 MB / 0 MWords) used by master data server.
Note: The following floating-point exceptions are signalling:Note: The following floating-point exceptions are signalling:Note: The following floating-point exceptions are signalling: IEEE_UNDERFLOW_FLAG IEEE_UNDERFLOW_FLAG IEEE_DENORMALNote: The following floating-point exceptions are signalling: IEEE_UNDERFLOW_FLAGNote: The following floating-point exceptions are signalling: IEEE_UNDERFLOW_FLAG IEEE_UNDERFLOW_FLAG IEEE_DENORMALNote: The following floating-point exceptions are signalling: IEEE_UNDERFLOW_FLAG
 ----------------------------------------
 CPU timing information for all processes
 ========================================
 0: 104.222 + 2.726 = 106.948
 1: 104.577 + 0.588 = 105.165
 2: 104.849 + 0.804 = 105.653
 3: 104.596 + 0.496 = 105.92
 4: 104.654 + 0.792 = 105.446
 5: 104.322 + 0.544 = 104.866
 6: 104.332 + 0.755 = 105.88
 7: 104.243 + 0.503 = 104.747
 ----------------------------------------
 IEEE_DENORMAL

 IEEE_DENORMAL
 IEEE_DENORMAL

 IEEE_DENORMAL
Note: The following floating-point exceptions are signalling: IEEE_UNDERFLOW_FLAG IEEE_DENORMAL
Note: The following floating-point exceptions are signalling: IEEE_UNDERFLOW_FLAG IEEE_DENORMAL
 ddikick.x: exited gracefully.
unset echo
----- accounting info -----
Files used on the master node pietdev were:
-rwxr-xr-x 1 piet piet      770 mei 22 16:27 /home/piet/scr/d-hydroxyacetone_geoopt.F05*
-rw-r--r-- 1 piet piet 57344000 mei 22 16:29 /home/piet/scr/d-hydroxyacetone_geoopt.F10
-rw-r--r-- 1 piet piet  3254464 mei 22 16:29 /home/piet/scr/d-hydroxyacetone_geoopt.F22
-rw-r--r-- 1 piet piet  3254464 mei 22 16:29 /home/piet/scr/d-hydroxyacetone_geoopt.F22.001
-rw-r--r-- 1 piet piet  3254464 mei 22 16:29 /home/piet/scr/d-hydroxyacetone_geoopt.F22.002
-rw-r--r-- 1 piet piet  3254464 mei 22 16:29 /home/piet/scr/d-hydroxyacetone_geoopt.F22.003
-rw-r--r-- 1 piet piet  3254464 mei 22 16:29 /home/piet/scr/d-hydroxyacetone_geoopt.F22.004
-rw-r--r-- 1 piet piet  3254464 mei 22 16:29 /home/piet/scr/d-hydroxyacetone_geoopt.F22.005
-rw-r--r-- 1 piet piet  3254464 mei 22 16:29 /home/piet/scr/d-hydroxyacetone_geoopt.F22.006
-rw-r--r-- 1 piet piet  3254464 mei 22 16:29 /home/piet/scr/d-hydroxyacetone_geoopt.F22.007
ls: No match.
ls: No match.
ls: No match.
vr 22 mei 2020 16:29:19 CEST
0.119u 0.028s 1:51.45 0.1%	0+0k 8+8io 0pf+0w
