----- GAMESS execution script 'rungms' -----
This job is running on host pietdev
under operating system Linux at za 16 mei 2020 22:18:11 CEST
Available scratch disk space (Kbyte units) at beginning of the job is
Filesystem     1K-blocks     Used Available Use% Mounted on
/dev/sda2      244568380 30379680 201695644  14% /
GAMESS temporary binary files will be written to /home/piet/scr
GAMESS supplementary output files will be written to /home/piet/gamess/scr
Copying input file boricacid_charge_geodisk.inp to your run's scratch directory...
cp boricacid_charge_geodisk.inp /home/piet/scr/boricacid_charge_geodisk.F05
unset echo
 
Assuming a single but multicore node.
 
/home/piet/gamess/ddikick.x /home/piet/gamess/gamess.03.x boricacid_charge_geodisk -ddi 1 6 pietdev:cpus=6 -scr /home/piet/scr

 Distributed Data Interface kickoff program.
 Initiating 6 compute processes on 1 nodes to run the following command:
 /home/piet/gamess/gamess.03.x boricacid_charge_geodisk 

          ******************************************************
          *         GAMESS VERSION = 30 SEP 2019 (R2)          *
          *             FROM IOWA STATE UNIVERSITY             *
          * M.W.SCHMIDT, K.K.BALDRIDGE, J.A.BOATZ, S.T.ELBERT, *
          *   M.S.GORDON, J.H.JENSEN, S.KOSEKI, N.MATSUNAGA,   *
          *          K.A.NGUYEN, S.J.SU, T.L.WINDUS,           *
          *       TOGETHER WITH M.DUPUIS, J.A.MONTGOMERY       *
          *         J.COMPUT.CHEM.  14, 1347-1363(1993)        *
          **************** 64 BIT LINUX VERSION ****************

  SINCE 1993, STUDENTS AND POSTDOCS WORKING AT IOWA STATE UNIVERSITY
  AND ALSO IN THEIR VARIOUS JOBS AFTER LEAVING ISU HAVE MADE IMPORTANT
  CONTRIBUTIONS TO THE CODE:
     IVANA ADAMOVIC, CHRISTINE AIKENS, YURI ALEXEEV, POOJA ARORA,
     ANDREY ASADCHEV, ROB BELL, PRADIPTA BANDYOPADHYAY, JONATHAN BENTZ,
     COLLEEN BERTONI, BRETT BODE, KURT BRORSEN, CALEB CARLIN, GALINA CHABAN,
     WEI CHEN, CHEOL HO CHOI, PAUL DAY, ALBERT DEFUSCO, NUWAN DESILVA,
     TIM DUDLEY, DMITRI FEDOROV, ALEX FINDLATER, GRAHAM FLETCHER, 
     MARK FREITAG, KURT GLAESEMANN, EMILIE B GUIDEZ, ANASTASIA GUNINA, 
     DAN KEMP, SAROM SOK LEANG, GRANT MERRILL,
     NORIYUKI MINEZAWA, JONATHAN MULLIN,
     TAKESHI NAGATA, SEAN NEDD, HEATHER NETZLOFF, BOSILJKA NJEGIC, RYAN OLSON,
     MIKE PAK, BUU PHAM, DAVID POOLE,
     SPENCER PRUITT, LUKE ROSKOP, TOSAPORN SATTASATHUCHANA,
     JIM SHOEMAKER, LYUDMILA SLIPCHENKO,
     TONY SMITH, JIE SONG, TETSUYA TAKETSUGU, SIMON WEBB,
     JORGE LUIS GALVEZ VALLEJO, PENG XU, SOOHAENG YOO,
     FEDERICO ZAHARIEV

  ADDITIONAL CODE HAS BEEN PROVIDED BY COLLABORATORS IN OTHER GROUPS:
     IOWA STATE UNIVERSITY:
          JOE IVANIC, AARON WEST, LAIMUTIS BYTAUTAS, KLAUS RUEDENBERG
     UNIVERSITY OF TOKYO: KIMIHIKO HIRAO, TAKAHITO NAKAJIMA,
          TAKAO TSUNEDA, MUNEAKI KAMIYA, SUSUMU YANAGISAWA,
          KIYOSHI YAGI, MAHITO CHIBA, SEIKEN TOKURA, NAOAKI KAWAKAMI
     UNIVERSITY OF AARHUS: FRANK JENSEN
     UNIVERSITY OF IOWA: VISVALDAS KAIRYS, HUI LI
     NATIONAL INST. OF STANDARDS AND TECHNOLOGY: WALT STEVENS, DAVID GARMER
     UNIVERSITY OF PISA: BENEDETTA MENNUCCI, JACOPO TOMASI
     UNIVERSITY OF MEMPHIS: HENRY KURTZ, PRAKASHAN KORAMBATH
     UNIVERSITY OF ALBERTA: TOBY ZENG, MARIUSZ KLOBUKOWSKI
     UNIVERSITY OF NEW ENGLAND: MARK SPACKMAN
     MIE UNIVERSITY: HIROAKI UMEDA
     NAT. INST. OF ADVANCED INDUSTRIAL SCIENCE AND TECHNOLOGY: KAZUO KITAURA
     MICHIGAN STATE UNIVERSITY:
          KAROL KOWALSKI, MARTA WLOCH, JEFFREY GOUR, JESSE LUTZ,
          WEI LI, JUN SHEN, J. EMILIANO DEUSTUA, PIOTR PIECUCH
     UNIVERSITY OF MINNESOTA:
          ANDREW SAND, PRACHI SHARMA, YINAN SHU
     UNIVERSITY OF SILESIA: MONIKA MUSIAL, STANISLAW KUCHARSKI
     FACULTES UNIVERSITAIRES NOTRE-DAME DE LA PAIX:
          OLIVIER QUINET, BENOIT CHAMPAGNE
     UNIVERSITY OF CALIFORNIA - SANTA BARBARA: BERNARD KIRTMAN
     INSTITUTE FOR MOLECULAR SCIENCE:
          KAZUYA ISHIMURA, MICHIO KATOUDA, AND SHIGERU NAGASE
     UNIVERSITY OF NOTRE DAME: ANNA POMOGAEVA, DAN CHIPMAN
     KYUSHU UNIVERSITY:
          HARUYUKI NAKANO,
          FENG LONG GU, JACEK KORCHOWIEC, MARCIN MAKOWSKI, AND YURIKO AOKI,
          HIROTOSHI MORI AND EISAKU MIYOSHI
     PENNSYLVANIA STATE UNIVERSITY:
          TZVETELIN IORDANOV, CHET SWALINA, JONATHAN SKONE,
          SHARON HAMMES-SCHIFFER
     WASEDA UNIVERSITY:
          MASATO KOBAYASHI, TOMOKO AKAMA, TSUGUKI TOUMA,
          TAKESHI YOSHIKAWA, YASUHIRO IKABATA, JUNJI SEINO,
          YUYA NAKAJIMA, HIROMI NAKAI
     NANJING UNIVERSITY: SHUHUA LI
     UNIVERSITY OF NEBRASKA:
          PEIFENG SU, DEJUN SI, NANDUN THELLAMUREGE, YALI WANG, HUI LI
     UNIVERSITY OF ZURICH: ROBERTO PEVERATI, KIM BALDRIDGE
     N. COPERNICUS UNIVERSITY AND JACKSON STATE UNIVERSITY:
          MARIA BARYSZ
     UNIVERSITY OF COPENHAGEN: Jimmy Kromann, CASPER STEINMANN
     TOKYO INSTITUTE OF TECHNOLOGY: HIROYA NAKATA
     NAGOYA UNIVERSITY: YOSHIO NISHIMOTO, STEPHAN IRLE
     MOSCOW STATE UNIVERSITY: VLADIMIR MIRONOV
     A.N.NESMEYANOV INSTITUTE OF ORGANOELEMENT COMPOUNDS OF RUSSIAN ACADEMY OF SCIENCES:
          IGOR S. GERASIMOV
     JOHANNES KEPLER UNIVERSITY LINZ:
          CHRISTIAN FRIEDL


 PARALLEL VERSION RUNNING ON        6 PROCESSORS IN        1 NODES.

 EXECUTION OF GAMESS BEGUN Sat May 16 22:18:11 2020

            ECHO OF THE FIRST FEW INPUT CARDS -
 INPUT CARD> $BASIS GBASIS=N21 NGAUSS=3 $END                                                
 INPUT CARD> $CONTRL SCFTYP=RHF DFTTYP=B3LYP MAXIT=60 MULT=1 ICHARG=0 $END                  
 INPUT CARD> $SYSTEM MEMDDI=1000 MWORDS=30 $END                                             
 INPUT CARD> $SCF DIRSCF=.TRUE. $END                                                        
 INPUT CARD> $ELPOT  IEPOT=1 WHERE=PDC $END                                                 
 INPUT CARD> $PDC PTSEL=GEODESIC CONSTR=CHARGE $END                                         
 INPUT CARD> $DATA                                                                          
 INPUT CARD>                                                                                
 INPUT CARD>C1                                                                              
 INPUT CARD>B 5.0000000 -4.6657129675 -1.4293907785 -0.0536036489                           
 INPUT CARD>O 8.0000000 -3.3559538541 -1.3932956678 -0.5116796890                           
 INPUT CARD>H 1.0000000 -3.0068163818 -0.4850776627 -0.6811405866                           
 INPUT CARD>O 8.0000000 -5.3691479064 -0.2470703360 0.1306190367                            
 INPUT CARD>H 1.0000000 -6.2921473904 -0.3678330352 0.4607116107                            
 INPUT CARD>O 8.0000000 -5.2719516283 -2.6475904431 0.2200820461                            
 INPUT CARD>H 1.0000000 -4.6973298715 -3.4351520768 0.0618012309                            
 INPUT CARD> $END                                                                           
   30000000 WORDS OF MEMORY AVAILABLE

     BASIS OPTIONS
     -------------
     GBASIS=N21          IGAUSS=       3      POLAR=NONE    
     NDFUNC=       0     NFFUNC=       0     DIFFSP=       F
     NPFUNC=       0      DIFFS=       F     BASNAM=        


     RUN TITLE
     ---------
                                                                                 

 THE POINT GROUP OF THE MOLECULE IS C1      
 THE ORDER OF THE PRINCIPAL AXIS IS     0

 ATOM      ATOMIC                      COORDINATES (BOHR)
           CHARGE         X                   Y                   Z
 B           5.0    -8.8169190459       -2.7011569007       -0.1012962084
 O           8.0    -6.3418332117       -2.6329470320       -0.9669344057
 H           1.0    -5.6820590570       -0.9166638653       -1.2871690678
 O           8.0   -10.1462183306       -0.4668952347        0.2468341881
 H           1.0   -11.8904344422       -0.6951036458        0.8706187036
 O           8.0    -9.9625439980       -5.0032204652        0.4158947619
 H           1.0    -8.8766663311       -6.4914961513        0.1167873921

          INTERNUCLEAR DISTANCES (ANGS.)
          ------------------------------

                1 B          2 O          3 H          4 O          5 H     

   1 B       0.0000000    1.3880221 *  2.0093451 *  1.3880347 *  2.0091575 *
   2 O       1.3880221 *  0.0000000    0.9876608 *  2.4040238 *  3.2585811  
   3 H       2.0093451 *  0.9876608 *  0.0000000    2.5092253 *  3.4800823  
   4 O       1.3880347 *  2.4040238 *  2.5092253 *  0.0000000    0.9876603 *
   5 H       2.0091575 *  3.2585811    3.4800823    0.9876603 *  0.0000000  
   6 O       1.3879624 *  2.4041169 *  3.2587577    2.4041521 *  2.5091823 *
   7 H       2.0093273 *  2.5094516 *  3.4803358    3.2588250    3.4800889  

                6 O          7 H     

   1 B       1.3879624 *  2.0093273 *
   2 O       2.4041169 *  2.5094516 *
   3 H       3.2587577    3.4803358  
   4 O       2.4041521 *  3.2588250  
   5 H       2.5091823 *  3.4800889  
   6 O       0.0000000    0.9876722 *
   7 H       0.9876722 *  0.0000000  

  * ... LESS THAN  3.000


     ATOMIC BASIS SET
     ----------------
 THE CONTRACTED PRIMITIVE FUNCTIONS HAVE BEEN UNNORMALIZED
 THE CONTRACTED BASIS FUNCTIONS ARE NOW NORMALIZED TO UNITY

  SHELL TYPE  PRIMITIVE        EXPONENT          CONTRACTION COEFFICIENT(S)

 B         

      1   S       1           116.4340000    0.062960465890
      1   S       2            17.4314000    0.363303803175
      1   S       3             3.6801600    0.697254622252

      2   L       4             2.2818700   -0.368663477319    0.231151902315
      2   L       5             0.4652480    1.199444806451    0.866763633704

      3   L       6             0.1243280    1.000000000000    1.000000000000

 O         

      4   S       7           322.0370000    0.059239393389
      4   S       8            48.4308000    0.351499960776
      4   S       9            10.4206000    0.707657921031

      5   L      10             7.4029400   -0.404453583190    0.244586106967
      5   L      11             1.5762000    1.221561761397    0.853955373466

      6   L      12             0.3736840    1.000000000000    1.000000000000

 H         

      7   S      13             5.4471780    0.156284978695
      7   S      14             0.8245472    0.904690876670

      8   S      15             0.1831916    1.000000000000

 O         

      9   S      16           322.0370000    0.059239393389
      9   S      17            48.4308000    0.351499960776
      9   S      18            10.4206000    0.707657921031

     10   L      19             7.4029400   -0.404453583190    0.244586106967
     10   L      20             1.5762000    1.221561761397    0.853955373466

     11   L      21             0.3736840    1.000000000000    1.000000000000

 H         

     12   S      22             5.4471780    0.156284978695
     12   S      23             0.8245472    0.904690876670

     13   S      24             0.1831916    1.000000000000

 O         

     14   S      25           322.0370000    0.059239393389
     14   S      26            48.4308000    0.351499960776
     14   S      27            10.4206000    0.707657921031

     15   L      28             7.4029400   -0.404453583190    0.244586106967
     15   L      29             1.5762000    1.221561761397    0.853955373466

     16   L      30             0.3736840    1.000000000000    1.000000000000

 H         

     17   S      31             5.4471780    0.156284978695
     17   S      32             0.8245472    0.904690876670

     18   S      33             0.1831916    1.000000000000

 TOTAL NUMBER OF BASIS SET SHELLS             =   18
 NUMBER OF CARTESIAN GAUSSIAN BASIS FUNCTIONS =   42
 NUMBER OF ELECTRONS                          =   32
 CHARGE OF MOLECULE                           =    0
 SPIN MULTIPLICITY                            =    1
 NUMBER OF OCCUPIED ORBITALS (ALPHA)          =   16
 NUMBER OF OCCUPIED ORBITALS (BETA )          =   16
 TOTAL NUMBER OF ATOMS                        =    7
 THE NUCLEAR REPULSION ENERGY IS      114.2361671989

 SELECTED MURRAY-HANDY-LAMING RADIAL GRID

 LEGACY BECKE'S FUZZY CELL METHOD

 SELECTED ORIGINAL BECKE'S PARTITION FUNCTION

     LEBEDEV GRID-BASED DFT OPTIONS
     ------------------------------
     DFTTYP=B3LYP   
     NRAD  =      96     NLEB  =     302
     NRAD0 =      24     NLEB0 =     110
     SWOFF =    5.00E-03 (PURE SCF -> DFT)
     SWITCH=    3.00E-04 (COARSE -> TIGHT GRID)
     THRESH=    0.00E+00 GTHRE=    1.00E+00

 GRIMME'S EMPIRICAL DISPERSION CORRECTION= F

     $CONTRL OPTIONS
     ---------------
 SCFTYP=RHF          RUNTYP=ENERGY       EXETYP=RUN     
 MPLEVL=       0     CITYP =NONE         CCTYP =NONE         VBTYP =NONE    
 DFTTYP=B3LYP        TDDFT =NONE    
 MULT  =       1     ICHARG=       0     NZVAR =       0     COORD =UNIQUE  
 PP    =NONE         RELWFN=NONE         LOCAL =NONE         NUMGRD=       F
 ISPHER=      -1     NOSYM =       0     MAXIT =      60     UNITS =ANGS    
 PLTORB=       F     MOLPLT=       F     AIMPAC=       F     FRIEND=        
 NPRINT=       7     IREST =       0     GEOM  =INPUT   
 NORMF =       0     NORMP =       0     ITOL  =      20     ICUT  =       9
 INTTYP=BEST         GRDTYP=BEST         QMTTOL= 1.0E-06

     $SYSTEM OPTIONS
     ---------------
  REPLICATED MEMORY=    30000000 WORDS (ON EVERY NODE).
 DISTRIBUTED MEMDDI=        1000 MILLION WORDS IN AGGREGATE,
 MEMDDI DISTRIBUTED OVER   6 PROCESSORS IS   166666666 WORDS/PROCESSOR.
 TOTAL MEMORY REQUESTED ON EACH PROCESSOR=   196666666 WORDS.
 TIMLIM=      525600.00 MINUTES, OR     365.0 DAYS.
 PARALL= T  BALTYP=  DLB     KDIAG=    0  COREFL= F
 MXSEQ2=     300 MXSEQ3=     150  mem10=         0

     INPUT FOR POTENTIAL-DERIVED CHARGES 
     -----------------------------------
     VDWSCL=    1.40   RMAX=    3.00   DELR=    0.80
     VDWINC=    0.20 PTDENS=    0.28
     LAYER =       4  NFREQ=      30 MAXPDC=   10000
     CONSTR=CHARGE    UNITS=ANGS      PTSEL=GEODESIC
     CENTER=  0.0000  0.0000  0.0000
     DPOLE =  0.0000  0.0000  0.0000
     QPOLE =  0.0000  0.0000  0.0000  0.0000  0.0000  0.0000


          ----------------
          PROPERTIES INPUT
          ----------------

     MOMENTS            FIELD           POTENTIAL          DENSITY
 IEMOM =       1   IEFLD =       0   IEPOT =       1   IEDEN =       0
 WHERE =COMASS     WHERE =NUCLEI     WHERE =PDC        WHERE =NUCLEI  
 OUTPUT=BOTH       OUTPUT=BOTH       OUTPUT=BOTH       OUTPUT=BOTH    
 IEMINT=       0   IEFINT=       0                     IEDINT=       0
                                                       MORB  =       0
          EXTRAPOLATION IN EFFECT
          DIIS IN EFFECT
 ORBITAL PRINTING OPTION: NPREO=     1    42     2     1

     -------------------------------
     INTEGRAL TRANSFORMATION OPTIONS
     -------------------------------
     NWORD  =            0
     CUTOFF = 1.0E-09     MPTRAN =       0
     DIRTRF =       T     AOINTS =DUP     

          ----------------------
          INTEGRAL INPUT OPTIONS
          ----------------------
 NOPK  =       1 NORDER=       0 SCHWRZ=       T

     ------------------------------------------
     THE POINT GROUP IS C1 , NAXIS= 0, ORDER= 1
     ------------------------------------------

     DIMENSIONS OF THE SYMMETRY SUBSPACES ARE
 A   =   42

 ..... DONE SETTING UP THE RUN .....
 CPU     0: STEP CPU TIME=     0.02 TOTAL CPU TIME=          0.0 (      0.0 MIN)
 TOTAL WALL CLOCK TIME=          0.0 SECONDS, CPU UTILIZATION IS    66.67%

          ********************
          1 ELECTRON INTEGRALS
          ********************
 ...... END OF ONE-ELECTRON INTEGRALS ......
 CPU     0: STEP CPU TIME=     0.00 TOTAL CPU TIME=          0.0 (      0.0 MIN)
 TOTAL WALL CLOCK TIME=          0.0 SECONDS, CPU UTILIZATION IS    50.00%

          -------------
          GUESS OPTIONS
          -------------
          GUESS =HUCKEL            NORB  =       0          NORDER=       0
          MIX   =       F          PRTMO =       F          PUNMO =       F
          TOLZ  = 1.0E-08          TOLE  = 1.0E-05
          SYMDEN=       F          PURIFY=       F

 INITIAL GUESS ORBITALS GENERATED BY HUCKEL   ROUTINE.
 HUCKEL GUESS REQUIRES     20196 WORDS.

 SYMMETRIES FOR INITIAL GUESS ORBITALS FOLLOW.   BOTH SET(S).
    16 ORBITALS ARE OCCUPIED (    4 CORE ORBITALS).
     5=A        6=A        7=A        8=A        9=A       10=A       11=A   
    12=A       13=A       14=A       15=A       16=A       17=A       18=A   
    19=A       20=A       21=A       22=A       23=A       24=A       25=A   
    26=A   
 ...... END OF INITIAL ORBITAL SELECTION ......
 CPU     0: STEP CPU TIME=     0.02 TOTAL CPU TIME=          0.0 (      0.0 MIN)
 TOTAL WALL CLOCK TIME=          0.1 SECONDS, CPU UTILIZATION IS    66.67%

                    ----------------------
                    AO INTEGRAL TECHNOLOGY
                    ----------------------
     S,P,L SHELL ROTATED AXIS INTEGRALS, REPROGRAMMED BY
        KAZUYA ISHIMURA (IMS) AND JOSE SIERRA (SYNSTAR).
     S,P,D,L SHELL ROTATED AXIS INTEGRALS PROGRAMMED BY
        KAZUYA ISHIMURA (INSTITUTE FOR MOLECULAR SCIENCE).
     S,P,D,F,G SHELL TO TOTAL QUARTET ANGULAR MOMENTUM SUM 5,
        ERIC PROGRAM BY GRAHAM FLETCHER (ELORET AND NASA ADVANCED
        SUPERCOMPUTING DIVISION, AMES RESEARCH CENTER).
     S,P,D,F,G,L SHELL GENERAL RYS QUADRATURE PROGRAMMED BY
        MICHEL DUPUIS (PACIFIC NORTHWEST NATIONAL LABORATORY).

          --------------------
          2 ELECTRON INTEGRALS
          --------------------

 DIRECT SCF METHOD SKIPS INTEGRAL STORAGE ON DISK.
 DIRECT TRANSFORMATION SKIPS AO INTEGRAL STORAGE ON DISK.
  ...... END OF TWO-ELECTRON INTEGRALS .....
 CPU     0: STEP CPU TIME=     0.02 TOTAL CPU TIME=          0.1 (      0.0 MIN)
 TOTAL WALL CLOCK TIME=          0.1 SECONDS, CPU UTILIZATION IS    85.71%

          --------------------------
             R-B3LYP SCF CALCULATION
          --------------------------

     NUCLEAR ENERGY =       114.2361671989
     MAXIT =   60     NPUNCH=    2
     EXTRAP=T  DAMP=F  SHIFT=F  RSTRCT=F  DIIS=T  DEM=F  SOSCF=F
         DENSITY MATRIX CONVERGENCE THRESHOLD=  2.00E-05
     COARSE -> FINE DFT GRID SWITCH THRESHOLD=  3.00E-04 (SWITCH IN $DFT)
                   HF -> DFT SWITCH THRESHOLD=  5.00E-03 (SWOFF IN $DFT)
     MEMORY REQUIRED FOR RHF ITERS=    315377 WORDS.

 DIRECT SCF CALCULATION, SCHWRZ=T   FDIFF=T,  DIRTHR=  0.00E+00 NITDIR=10
 SCHWARZ INEQUALITY OVERHEAD:       900 INTEGRALS, T=        0.00

 DFT CODE IS SWITCHING FROM THE FINE GRID NRAD= 96,  NLEB=  302
                      TO THE COARSE GRID NRAD0= 24, NLEB0=  110

     EXCHANGE FUNCTIONAL   =B88&HFX   
     CORRELATION FUNCTIONAL=LYP88&VWN5
     DFT THRESHOLD         =.197E-07
     GRID CHANGE THRESHOLD =.300E-03
 FOR AN EULER-MACLAURIN QUADRATURE USING  96 RADIAL POINTS:
 SMALLEST GAUSSIAN PRIMITIVE EXPONENT=        0.1243280000 OF TYPE -P-
 ON ATOM NUMBER   1 HAS RADIAL NORMALIZATION=  1.000000
  LARGEST GAUSSIAN PRIMITIVE EXPONENT=      322.0370000000 OF TYPE -S-
 ON ATOM NUMBER   2 HAS RADIAL NORMALIZATION=  1.000000
 DFT IS SWITCHED OFF, PERFORMING PURE SCF UNTIL SWOFF THRESHOLD IS REACHED.

                                                                                   NONZERO     BLOCKS
 ITER EX DEM     TOTAL ENERGY        E CHANGE  DENSITY CHANGE    DIIS ERROR      INTEGRALS    SKIPPED
   1  0  0     -249.0675738567  -249.0675738567   0.564395216   0.941239719         360161       2828
          * * *   INITIATING DIIS PROCEDURE   * * *
   2  1  0     -249.7702533084    -0.7026794517   0.128604374   0.076933570         359952       2908
   3  2  0     -249.8032497056    -0.0329963972   0.026092141   0.033116458         358115       3282
   4  3  0     -249.8064190119    -0.0031693063   0.013207856   0.011219597         355032       3586
   5  4  0     -249.8069690226    -0.0005500107   0.001649674   0.003140510         352522       3850
 CONVERGED TO SWOFF, SO DFT CALCULATION IS NOW SWITCHED ON.
          * * *   INITIATING DIIS PROCEDURE   * * *
   6  5  0     -250.9605601307    -1.1535911081   0.068010774   0.100925842         360191       2831
   7  6  0     -250.9848216171    -0.0242614864   0.023474720   0.018861297         359057       3145
   8  7  0     -250.9856965599    -0.0008749427   0.007646351   0.010278969         355004       3579
   9  8  0     -250.9860397173    -0.0003431574   0.000659199   0.001379371         352358       3872
  10  9  0     -250.9860431975    -0.0000034801   0.000249111   0.000663372         342382       4389
 DFT CODE IS SWITCHING BACK TO THE FINE GRID
          * * *   INITIATING DIIS PROCEDURE   * * *
  11 10  0     -250.9672270019     0.0188161956   0.004007508   0.006768110         360233       2802
  12 11  0     -250.9673200438    -0.0000930419   0.001848711   0.003969337         348330       4062
  13 12  0     -250.9673318490    -0.0000118052   0.000714693   0.002052593         345775       4186
  14 13  0     -250.9673408559    -0.0000090070   0.000106739   0.000095883         342839       4349
  15 14  0     -250.9673408954    -0.0000000395   0.000033774   0.000070118         328967       4833
  16 15  0     -250.9673409028    -0.0000000074   0.000012674   0.000035151         319953       5133
  17 16  0     -250.9673409049    -0.0000000021   0.000000944   0.000000920         308620       5507

          -----------------
          DENSITY CONVERGED
          -----------------
     TIME TO FORM FOCK OPERATORS=       1.7 SECONDS (       0.1 SEC/ITER)
     FOCK TIME ON FIRST ITERATION=       0.0, LAST ITERATION=       0.2
     TIME TO SOLVE SCF EQUATIONS=       0.1 SECONDS (       0.0 SEC/ITER)

 FINAL R-B3LYP ENERGY IS     -250.9673409049 AFTER  17 ITERATIONS
 DFT EXCHANGE + CORRELATION ENERGY =       -24.9205400420
 TOTAL ELECTRON NUMBER             =        32.0000390643

          ------------
          EIGENVECTORS
          ------------

                      1          2          3          4          5
                  -19.0319   -19.0319   -19.0319    -6.7700    -1.0294
                     A          A          A          A          A   
    1  B  1  S    0.000171   0.000051   0.000064   0.986037  -0.105738
    2  B  1  S    0.004487   0.001351   0.001668   0.105746   0.093057
    3  B  1  X   -0.001554  -0.000943   0.004943  -0.000001  -0.000036
    4  B  1  Y   -0.001727   0.005284   0.000365  -0.000001  -0.000018
    5  B  1  Z    0.000631   0.000058  -0.001741   0.000001   0.000021
    6  B  1  S    0.016348   0.004925   0.006080  -0.025903   0.031672
    7  B  1  X   -0.005589   0.000671   0.014488   0.000001   0.000004
    8  B  1  Y   -0.003826   0.015792  -0.002502  -0.000001   0.000010
    9  B  1  Z    0.002143  -0.001048  -0.004918  -0.000002  -0.000000
   10  O  2  S    0.239117   0.128042   0.944314   0.000318  -0.128876
   11  O  2  S    0.025782   0.013775   0.101284   0.002515   0.118794
   12  O  2  X   -0.000553  -0.000539  -0.002041   0.000137  -0.035501
   13  O  2  Y    0.000352   0.001264   0.001733   0.000332   0.041861
   14  O  2  Z    0.000174   0.000123   0.000619  -0.000065   0.010160
   15  O  2  S   -0.012144  -0.006304  -0.048473  -0.007844   0.396069
   16  O  2  X    0.002187   0.001735   0.006516   0.008825  -0.048416
   17  O  2  Y   -0.000021  -0.005118  -0.002321  -0.001281   0.039632
   18  O  2  Z   -0.000759  -0.000340  -0.002146  -0.003006   0.014777
   19  H  3  S    0.000221   0.002246   0.002649   0.000522   0.061762
   20  H  3  S    0.002428  -0.002670   0.002827   0.003020   0.016115
   21  O  4  S    0.462932   0.835393  -0.230463   0.000318  -0.128960
   22  O  4  S    0.049777   0.089596  -0.024651   0.002515   0.118875
   23  O  4  X   -0.000582  -0.000043   0.000608  -0.000343  -0.016017
   24  O  4  Y   -0.001809  -0.002109   0.001145  -0.000036  -0.052856
   25  O  4  Z    0.000298   0.000128  -0.000271   0.000122   0.008412
   26  O  4  S   -0.023489  -0.042979   0.011743  -0.007844   0.396323
   27  O  4  X    0.001056  -0.002703  -0.002408  -0.003489  -0.007546
   28  O  4  Y    0.005681   0.005083  -0.003586   0.008706  -0.063612
   29  O  4  Z   -0.000664   0.000673   0.001024   0.000764   0.006010
   30  H  5  S    0.002217   0.001575  -0.002172   0.000525   0.061809
   31  H  5  S    0.000610   0.003821   0.002459   0.003022   0.016130
   32  O  6  S    0.832984  -0.501000  -0.142962   0.000318  -0.129001
   33  O  6  S    0.089444  -0.053663  -0.015267   0.002514   0.118912
   34  O  6  X    0.002163  -0.001692   0.000514   0.000205   0.051581
   35  O  6  Y    0.000895  -0.000354  -0.000396  -0.000297   0.010962
   36  O  6  Z   -0.000796   0.000606  -0.000159  -0.000056  -0.018452
   37  O  6  S   -0.042644   0.025700   0.007616  -0.007844   0.396455
   38  O  6  X   -0.004657   0.004513  -0.003178  -0.005335   0.056029
   39  O  6  Y   -0.004644   0.001358   0.002106  -0.007424   0.023941
   40  O  6  Z    0.001855  -0.001639   0.001000   0.002237  -0.020666
   41  H  7  S    0.002158  -0.002436   0.001233   0.000523   0.061823
   42  H  7  S    0.003491   0.000817  -0.002855   0.003019   0.016131

                      6          7          8          9         10
                   -0.9852    -0.9852    -0.5556    -0.5183    -0.5182
                     A          A          A          A          A   
    1  B  1  S    0.000016  -0.000032  -0.147324   0.000067  -0.000025
    2  B  1  S   -0.000015   0.000033   0.186184  -0.000084   0.000026
    3  B  1  X   -0.017524   0.106170  -0.000053  -0.154135  -0.177476
    4  B  1  Y   -0.111963  -0.020414  -0.000126  -0.184865   0.166111
    5  B  1  Z    0.011861  -0.035947  -0.000046   0.063154   0.053102
    6  B  1  S   -0.000010   0.000008   0.189794  -0.000113   0.000057
    7  B  1  X    0.001810  -0.018188  -0.000021  -0.054848  -0.052226
    8  B  1  Y    0.019208   0.002235  -0.000001  -0.054222   0.058935
    9  B  1  Z   -0.001620   0.006228  -0.000012   0.021885   0.015048
   10  O  2  S    0.051061  -0.184028   0.014976  -0.012570   0.034198
   11  O  2  S   -0.049402   0.174376  -0.018488   0.009729  -0.032746
   12  O  2  X    0.006709  -0.032967  -0.186481   0.145473   0.177651
   13  O  2  Y   -0.030659   0.066291  -0.123436   0.061155   0.228684
   14  O  2  Z   -0.000734   0.007988   0.071443  -0.053962  -0.073920
   15  O  2  S   -0.152827   0.566595  -0.045240   0.062207  -0.128480
   16  O  2  X    0.010345  -0.033952  -0.173681   0.120751   0.143492
   17  O  2  Y   -0.030763   0.061595  -0.101590   0.057828   0.204378
   18  O  2  Z   -0.001999   0.008579   0.065838  -0.045170  -0.060738
   19  H  3  S   -0.030602   0.098242  -0.133065   0.085500   0.167201
   20  H  3  S   -0.017341   0.023992  -0.101857   0.074291   0.141567
   21  O  4  S    0.133845   0.136147   0.015003   0.035882  -0.006216
   22  O  4  S   -0.126315  -0.129892  -0.018512  -0.033205   0.007951
   23  O  4  X    0.021472   0.037391   0.196865  -0.179048   0.247433
   24  O  4  Y    0.043495   0.049342  -0.110955  -0.006799  -0.115632
   25  O  4  Z   -0.009845  -0.015701  -0.063226   0.062943  -0.080760
   26  O  4  S   -0.414279  -0.415384  -0.045352  -0.142282   0.010380
   27  O  4  X    0.018598   0.033677   0.172409  -0.154279   0.215338
   28  O  4  Y    0.040616   0.051584  -0.109834  -0.013182  -0.087669
   29  O  4  Z   -0.008693  -0.014514  -0.054719   0.054610  -0.070959
   30  H  5  S   -0.069778  -0.075588  -0.132995   0.102181  -0.157617
   31  H  5  S   -0.012106  -0.027001  -0.101806   0.085560  -0.135116
   32  O  6  S   -0.184827   0.047754   0.014976  -0.023329  -0.027973
   33  O  6  S    0.175644  -0.044368  -0.018488   0.023498   0.024787
   34  O  6  X    0.075056  -0.010572  -0.010620  -0.077275  -0.068349
   35  O  6  Y   -0.008235  -0.006379   0.234579   0.325164  -0.002262
   36  O  6  Z   -0.025599   0.003980  -0.008570   0.009921   0.023858
   37  O  6  S    0.566867  -0.150819  -0.045242   0.080128   0.118065
   38  O  6  X    0.073069  -0.007287   0.001062  -0.079040  -0.058646
   39  O  6  Y   -0.003733  -0.005196   0.211581   0.275048  -0.003092
   40  O  6  Z   -0.025142   0.002770  -0.011425   0.013148   0.020538
   41  H  7  S    0.100337  -0.022597  -0.133178  -0.187468  -0.009658
   42  H  7  S    0.029437   0.003023  -0.101936  -0.159686  -0.006521

                     11         12         13         14         15
                   -0.3834    -0.3397    -0.3396    -0.3258    -0.2866
                     A          A          A          A          A   
    1  B  1  S   -0.000119   0.000029  -0.000090  -0.063839   0.000004
    2  B  1  S    0.000134  -0.000046   0.000126   0.084560  -0.000005
    3  B  1  X    0.081254   0.014430  -0.170481   0.000148   0.000093
    4  B  1  Y    0.012383  -0.180489  -0.012067  -0.000039  -0.000073
    5  B  1  Z    0.234118   0.004603   0.059920  -0.000292  -0.000063
    6  B  1  S    0.000166  -0.000035   0.000055   0.031858  -0.000019
    7  B  1  X    0.077212   0.148347   0.060439  -0.000098  -0.000396
    8  B  1  Y    0.011394   0.061321  -0.157821   0.000193   0.000081
    9  B  1  Z    0.222277  -0.054502  -0.012995  -0.000194   0.000087
   10  O  2  S   -0.000009   0.029364  -0.048615   0.053422   0.000002
   11  O  2  S   -0.000007  -0.015451   0.048441  -0.051528  -0.000022
   12  O  2  X    0.081705   0.068529   0.275890  -0.132707  -0.050223
   13  O  2  Y    0.012328   0.061010  -0.251980   0.240400  -0.007344
   14  O  2  Z    0.234327  -0.026696  -0.083124   0.032708  -0.143074
   15  O  2  S    0.000106  -0.193096   0.179999  -0.218861   0.000129
   16  O  2  X    0.081924   0.085465   0.298372  -0.161237  -0.059064
   17  O  2  Y    0.012396   0.051352  -0.263808   0.250811  -0.008666
   18  O  2  Z    0.235086  -0.032083  -0.090342   0.041967  -0.168219
   19  H  3  S    0.000002   0.068038  -0.046596   0.091070   0.000000
   20  H  3  S    0.000054   0.041424  -0.026399   0.060732   0.000061
   21  O  4  S    0.000202  -0.056889  -0.001032   0.053342  -0.000029
   22  O  4  S   -0.000191   0.049781  -0.010926  -0.051444   0.000046
   23  O  4  X    0.081893   0.098577   0.041197  -0.128564  -0.091510
   24  O  4  Y    0.011324   0.308591  -0.216570  -0.237057  -0.013346
   25  O  4  Z    0.234357  -0.050175  -0.003784   0.057479  -0.261233
   26  O  4  S   -0.000832   0.252845   0.076864  -0.218610   0.000007
   27  O  4  X    0.082174   0.097327   0.042802  -0.122404  -0.107591
   28  O  4  Y    0.011340   0.321331  -0.247289  -0.268126  -0.015681
   29  O  4  Z    0.235108  -0.050415  -0.002834   0.057005  -0.307235
   30  H  5  S    0.000144  -0.074534  -0.035484   0.091016  -0.000044
   31  H  5  S    0.000011  -0.043684  -0.022597   0.060711  -0.000032
   32  O  6  S    0.000047   0.027455   0.049855   0.053295   0.000026
   33  O  6  S   -0.000040  -0.034263  -0.037718  -0.051425  -0.000019
   34  O  6  X    0.081466   0.286673   0.185295   0.260615   0.140348
   35  O  6  Y    0.012112   0.153558  -0.019958  -0.002571   0.021008
   36  O  6  Z    0.234563  -0.107167  -0.063248  -0.090593   0.404646
   37  O  6  S   -0.000222  -0.059468  -0.257702  -0.218260  -0.000164
   38  O  6  X    0.081719   0.312601   0.181686   0.282973   0.165086
   39  O  6  Y    0.012168   0.171394  -0.021788   0.018156   0.024691
   40  O  6  Z    0.235330  -0.117074  -0.061869  -0.099432   0.475850
   41  H  7  S    0.000090   0.006389   0.082413   0.090875   0.000015
   42  H  7  S    0.000013   0.002204   0.049201   0.060621   0.000085

                     16         17         18         19         20
                   -0.2866     0.0813     0.1137     0.1268     0.1268
                     A          A          A          A          A   
    1  B  1  S   -0.000053  -0.067324  -0.000083   0.000016   0.000020
    2  B  1  S    0.000063  -0.005223  -0.000071   0.000021  -0.000042
    3  B  1  X    0.000056  -0.000173   0.171648  -0.132903  -0.041330
    4  B  1  Y   -0.000055  -0.000041   0.024462  -0.042150   0.141400
    5  B  1  Z    0.000010  -0.000346   0.491856   0.048666   0.009786
    6  B  1  S    0.000029   0.496861   0.001075  -0.000172  -0.000076
    7  B  1  X   -0.000193  -0.000214   0.218104  -0.154622   0.070254
    8  B  1  Y    0.000151   0.000041   0.031053   0.075940   0.162645
    9  B  1  Z    0.000081  -0.000293   0.628612   0.050297  -0.029092
   10  O  2  S    0.000054   0.072863   0.000396  -0.049425  -0.059122
   11  O  2  S   -0.000064  -0.049979  -0.000245   0.022617   0.035670
   12  O  2  X    0.133590   0.015797  -0.074711   0.004434   0.097129
   13  O  2  Y    0.020630  -0.130813  -0.011803   0.171709   0.132146
   14  O  2  Z    0.384521   0.001542  -0.212729  -0.010682  -0.042059
   15  O  2  S   -0.000139  -0.574047  -0.003170   0.469543   0.490589
   16  O  2  X    0.157091   0.013359  -0.104341   0.019657   0.169172
   17  O  2  Y    0.024164  -0.242278  -0.017082   0.269131   0.292132
   18  O  2  Z    0.452209   0.008331  -0.296552  -0.021162  -0.076091
   19  H  3  S    0.000129   0.081553   0.000938  -0.048374  -0.137494
   20  H  3  S    0.000057   0.606551   0.005085  -0.614203  -0.853968
   21  O  4  S    0.000037   0.072891  -0.000368  -0.026517   0.072314
   22  O  4  S   -0.000025  -0.049990   0.000193   0.019604  -0.037381
   23  O  4  X   -0.110937   0.099096  -0.075355  -0.065770   0.202496
   24  O  4  Y   -0.016666   0.077951  -0.011187   0.061407   0.055894
   25  O  4  Z   -0.315875  -0.038719  -0.212535   0.019934  -0.075179
   26  O  4  S   -0.000218  -0.574343   0.003174   0.190309  -0.651605
   27  O  4  X   -0.130418   0.191653  -0.105461  -0.167643   0.362197
   28  O  4  Y   -0.019567   0.129802  -0.015594   0.068094   0.090431
   29  O  4  Z   -0.371466  -0.073892  -0.296221   0.055288  -0.133532
   30  H  5  S    0.000109   0.081570  -0.000789  -0.094926   0.110567
   31  H  5  S   -0.000050   0.606861  -0.004783  -0.432761   0.958554
   32  O  6  S    0.000061   0.072924   0.000082   0.075857  -0.013232
   33  O  6  S   -0.000055  -0.050016  -0.000007  -0.042161   0.001741
   34  O  6  X   -0.023367  -0.114883  -0.074599  -0.122035   0.089063
   35  O  6  Y   -0.003577   0.053058  -0.011246   0.182562  -0.001499
   36  O  6  Z   -0.068357   0.037162  -0.212814   0.032684  -0.032188
   37  O  6  S   -0.000274  -0.574570  -0.001069  -0.659189   0.161299
   38  O  6  X   -0.027523  -0.205073  -0.103864  -0.241391   0.103611
   39  O  6  Y   -0.004159   0.112816  -0.015959   0.343244   0.017215
   40  O  6  Z   -0.080407   0.065389  -0.296788   0.065639  -0.038674
   41  H  7  S    0.000132   0.081658  -0.000342   0.143209   0.026875
   42  H  7  S    0.000154   0.607238  -0.000067   1.046257  -0.104862

                     21         22         23         24         25
                    0.2496     0.3438     0.3438     0.4448     0.6063
                     A          A          A          A          A   
    1  B  1  S   -0.147610  -0.000012  -0.000025  -0.000022  -0.000004
    2  B  1  S   -0.074878   0.000030  -0.000043  -0.000074  -0.000089
    3  B  1  X   -0.000052  -0.221390   0.033622  -0.344767   0.990351
    4  B  1  Y   -0.000004   0.039649   0.233373  -0.051282  -0.794326
    5  B  1  Z   -0.000095   0.075437  -0.024035  -0.989512  -0.304040
    6  B  1  S    1.947155   0.000023   0.000292   0.000433   0.000236
    7  B  1  X   -0.000290  -1.118564   1.347915   0.373641  -0.651712
    8  B  1  Y   -0.000123   1.444858   1.158945   0.055207   0.825131
    9  B  1  Z   -0.000258   0.315117  -0.528381   1.076907   0.184499
   10  O  2  S    0.040475  -0.062542   0.036916  -0.000020   0.019084
   11  O  2  S   -0.028891   0.038094  -0.011784   0.000006  -0.031300
   12  O  2  X    0.179240  -0.059280   0.113037  -0.010860   0.220973
   13  O  2  Y    0.085077  -0.174748  -0.033375  -0.001676   0.024565
   14  O  2  Z   -0.066832   0.029605  -0.037899  -0.030794  -0.078287
   15  O  2  S   -0.336147   0.593926  -0.496162   0.000286   0.057130
   16  O  2  X    0.395861  -0.213118   0.285397  -0.035185   0.299179
   17  O  2  Y    0.196667  -0.362867  -0.010368  -0.005338  -0.040448
   18  O  2  Z   -0.148134   0.092946  -0.099304  -0.100264  -0.102144
   19  H  3  S   -0.050152  -0.065081  -0.119047   0.000061   0.034381
   20  H  3  S   -0.535961   0.268544  -0.572777   0.000730  -0.136824
   21  O  4  S    0.040474   0.063228   0.035740  -0.000044  -0.025639
   22  O  4  S   -0.028894  -0.029250  -0.027115   0.000058   0.046976
   23  O  4  X   -0.161829  -0.113469  -0.135008  -0.010846   0.070616
   24  O  4  Y    0.122965   0.088496  -0.086348  -0.001509  -0.219377
   25  O  4  Z    0.050344   0.035231   0.051238  -0.030814  -0.013249
   26  O  4  S   -0.336156  -0.726488  -0.266699   0.000250  -0.029014
   27  O  4  X   -0.364599  -0.323083  -0.283222  -0.035091   0.138455
   28  O  4  Y    0.267279   0.240400  -0.116641  -0.005065  -0.302705
   29  O  4  Z    0.113880   0.100784   0.104321  -0.100310  -0.032582
   30  H  5  S   -0.050209  -0.070543   0.115896  -0.000093   0.087998
   31  H  5  S   -0.536098  -0.630337   0.053943  -0.001132  -0.315739
   32  O  6  S    0.040490  -0.000687  -0.072616   0.000038   0.006560
   33  O  6  S   -0.028902  -0.008846   0.038874  -0.000021  -0.015674
   34  O  6  X   -0.017272   0.128368  -0.057981  -0.010675  -0.056209
   35  O  6  Y   -0.208008   0.002690   0.168030  -0.001820   0.043917
   36  O  6  Z    0.016950  -0.044975   0.011444  -0.030854   0.017267
   37  O  6  S   -0.336311   0.132603   0.762493  -0.000343  -0.028186
   38  O  6  X   -0.030982   0.224145  -0.094345  -0.034840   0.001636
   39  O  6  Y   -0.463921   0.030793   0.458712  -0.005632  -0.020581
   40  O  6  Z    0.035057  -0.079895   0.008970  -0.100354   0.000434
   41  H  7  S   -0.050187   0.135677   0.003122   0.000055  -0.122250
   42  H  7  S   -0.536104   0.361607   0.518849  -0.000636   0.452235

                     26         27         28         29         30
                    0.6064     0.7621     0.9877     0.9877     0.9938
                     A          A          A          A          A   
    1  B  1  S   -0.000008  -0.100249  -0.000002   0.000080  -0.022102
    2  B  1  S    0.000079   1.669621   0.000600   0.001209  -0.375075
    3  B  1  X    0.734438   0.000052  -0.186664  -0.027044  -0.000262
    4  B  1  Y    1.034173  -0.000073  -0.025172   0.197735   0.000768
    5  B  1  Z   -0.309176   0.000021   0.066354  -0.000883   0.000142
    6  B  1  S   -0.000117  -1.429461  -0.000762  -0.002260   0.672888
    7  B  1  X   -0.768993   0.000214  -0.450653   0.097023   0.000084
    8  B  1  Y   -0.674825  -0.000008   0.110681   0.475039   0.001649
    9  B  1  Z    0.303048  -0.000117   0.151575  -0.058594   0.000143
   10  O  2  S    0.018592   0.022145  -0.030994   0.024712   0.018304
   11  O  2  S   -0.036173  -0.048096   0.055416  -0.051082  -0.031550
   12  O  2  X    0.119499   0.181943  -0.026182   0.017084  -0.016093
   13  O  2  Y   -0.069884  -0.053953   0.039987  -0.285986  -0.225690
   14  O  2  Z   -0.038034  -0.060513   0.006842   0.009105   0.017269
   15  O  2  S    0.000478   0.081883   0.199847   0.083760  -0.008539
   16  O  2  X    0.191235   0.073554  -0.079525  -0.087075  -0.050960
   17  O  2  Y   -0.010089  -0.037450   0.005143  -0.128721  -0.026187
   18  O  2  Z   -0.066097  -0.023645   0.027464   0.037077   0.019216
   19  H  3  S   -0.121366   0.096179  -0.269483   1.028195   0.743942
   20  H  3  S    0.443142   0.115273   0.297265  -0.901212  -0.667647
   21  O  4  S    0.007251   0.022125   0.036936   0.014382   0.018321
   22  O  4  S   -0.009042  -0.048073  -0.072037  -0.022277  -0.031545
   23  O  4  X   -0.113808  -0.049418   0.205078  -0.096991   0.192035
   24  O  4  Y    0.093344   0.192795   0.155660  -0.040152   0.094323
   25  O  4  Z    0.034925   0.007143  -0.079953   0.036133  -0.072239
   26  O  4  S    0.049096   0.081987  -0.027301  -0.214933  -0.009710
   27  O  4  X   -0.059649  -0.007201   0.111788  -0.107193   0.046827
   28  O  4  Y    0.164370   0.085461   0.022574   0.074087  -0.033581
   29  O  4  Z    0.012350  -0.001992  -0.040386   0.033619  -0.014739
   30  H  5  S    0.090414   0.095871   1.026505  -0.285023   0.740498
   31  H  5  S   -0.340059   0.115739  -0.930256   0.197030  -0.664914
   32  O  6  S   -0.025847   0.022135  -0.005977  -0.039283   0.018100
   33  O  6  S    0.045211  -0.048078   0.016663   0.073695  -0.031139
   34  O  6  X    0.133071  -0.132582   0.187997   0.161525  -0.175594
   35  O  6  Y    0.223016  -0.138843  -0.116252  -0.063482   0.130169
   36  O  6  Z   -0.057856   0.053196  -0.059337  -0.052630   0.054245
   37  O  6  S   -0.049460   0.082002  -0.172436   0.131231  -0.008648
   38  O  6  X    0.205019  -0.066419   0.033274   0.068620   0.003710
   39  O  6  Y    0.304415  -0.048079  -0.161805  -0.012479   0.059473
   40  O  6  Z   -0.087075   0.025546  -0.003152  -0.023184  -0.004479
   41  H  7  S    0.030881   0.096181  -0.758734  -0.750753   0.737509
   42  H  7  S   -0.102998   0.115315   0.634568   0.711016  -0.661933

                     31         32         33         34         35
                    1.4339     1.4340     1.5652     1.6208     1.6209
                     A          A          A          A          A   
    1  B  1  S    0.000016  -0.000024   0.041906   0.000002   0.000008
    2  B  1  S    0.000277  -0.000532   0.714078   0.000174   0.000270
    3  B  1  X    0.000003  -0.000110   0.000049   0.170368  -0.401677
    4  B  1  Y   -0.000333  -0.000300  -0.000059   0.421735   0.187197
    5  B  1  Z    0.000024   0.000054  -0.000086  -0.080861   0.130159
    6  B  1  S   -0.000087   0.000220   0.400357   0.000243   0.000029
    7  B  1  X   -0.000452  -0.000418   0.000299  -0.580362  -0.375279
    8  B  1  Y   -0.000265  -0.000128   0.000212   0.407417  -0.607843
    9  B  1  Z    0.000200   0.000137  -0.000094   0.183445   0.161607
   10  O  2  S   -0.000014  -0.000059   0.032032  -0.003390  -0.046565
   11  O  2  S    0.000049   0.000167  -0.097517   0.038362   0.193989
   12  O  2  X   -0.108680   0.253647  -0.508003  -0.338796   0.513326
   13  O  2  Y   -0.016439   0.037459   0.185324   0.348965  -0.309265
   14  O  2  Z   -0.311846   0.726945   0.167580   0.102421  -0.163752
   15  O  2  S    0.000105   0.000263  -0.083822   0.097771   0.086997
   16  O  2  X    0.104478  -0.244003   0.722525   0.360445  -0.756926
   17  O  2  Y    0.015866  -0.035867  -0.183030  -0.549518   0.381753
   18  O  2  Z    0.299808  -0.698914  -0.242430  -0.100067   0.245026
   19  H  3  S   -0.000154  -0.000282   0.118175   0.165291  -0.186736
   20  H  3  S    0.000294   0.000002  -0.225071   0.078432   0.387178
   21  O  4  S   -0.000029  -0.000042   0.032005   0.042040   0.020357
   22  O  4  S    0.000069   0.000119  -0.097425  -0.187242  -0.063819
   23  O  4  X   -0.165536  -0.221659   0.109894   0.066060  -0.090881
   24  O  4  Y   -0.024455  -0.032591  -0.555035  -0.297497  -0.726421
   25  O  4  Z   -0.473540  -0.633326  -0.009963  -0.006025   0.068713
   26  O  4  S    0.000129   0.000147  -0.083697  -0.124270   0.041254
   27  O  4  X    0.159128   0.213167  -0.222168  -0.200091   0.190505
   28  O  4  Y    0.023498   0.031242   0.750313   0.462781   0.957164
   29  O  4  Z    0.455311   0.608921   0.039058   0.043882  -0.115359
   30  H  5  S   -0.000295  -0.000046   0.118097   0.079051   0.236760
   31  H  5  S   -0.000048  -0.000373  -0.224975  -0.374952  -0.125625
   32  O  6  S    0.000069   0.000024   0.032011  -0.038630   0.026246
   33  O  6  S   -0.000192  -0.000112  -0.097424   0.148810  -0.130317
   34  O  6  X    0.273637  -0.032379   0.398516  -0.659721  -0.138964
   35  O  6  Y    0.040967  -0.004711   0.370032  -0.335173   0.042012
   36  O  6  Z    0.785605  -0.093514  -0.158136   0.249525   0.045386
   37  O  6  S   -0.000337  -0.000124  -0.083686   0.026456  -0.128248
   38  O  6  X   -0.263235   0.031170  -0.500809   0.900814   0.201517
   39  O  6  Y   -0.039490   0.004408  -0.567625   0.454520  -0.207235
   40  O  6  Z   -0.755300   0.089927   0.203939  -0.340102  -0.058438
   41  H  7  S    0.000262  -0.000072   0.118187  -0.244413  -0.049715
   42  H  7  S    0.000050  -0.000037  -0.224876   0.296205  -0.261768

                     36         37         38         39         40
                    1.6487     1.7675     1.7827     1.7828     3.0259
                     A          A          A          A          A   
    1  B  1  S   -0.000037  -0.022187   0.000052  -0.000009   0.015898
    2  B  1  S   -0.000504  -0.217785   0.000677  -0.000008  -0.425236
    3  B  1  X   -0.021570   0.000289   0.058467   0.270606   0.000134
    4  B  1  Y   -0.002331  -0.000246  -0.286918   0.056821   0.000257
    5  B  1  Z   -0.066789   0.000191  -0.005274  -0.096882  -0.000106
    6  B  1  S   -0.000509  -0.469173   0.000654   0.000159  -0.976618
    7  B  1  X   -0.189858   0.000300  -0.021764   0.513252   0.000267
    8  B  1  Y   -0.026620  -0.000623  -0.541831  -0.032399   0.000555
    9  B  1  Z   -0.540688   0.000746   0.036152  -0.176546  -0.000076
   10  O  2  S    0.000058   0.005811  -0.014452   0.018981   0.037362
   11  O  2  S   -0.000211  -0.006725   0.023094  -0.138844  -0.994492
   12  O  2  X   -0.197697   0.194379  -0.423348  -0.237161   0.093467
   13  O  2  Y   -0.027889   0.534193  -0.422651  -0.497444  -0.038162
   14  O  2  Z   -0.560325  -0.094884   0.169948   0.109174  -0.030549
   15  O  2  S    0.000399  -0.003898   0.135971  -0.003059   1.347452
   16  O  2  X    0.245718  -0.392447   0.560902   0.507377  -0.324062
   17  O  2  Y    0.034321  -0.784536   0.724713   0.777359   0.133242
   18  O  2  Z    0.696752   0.176773  -0.233821  -0.218192   0.105854
   19  H  3  S    0.000999   0.339551  -0.231542  -0.250205  -0.159109
   20  H  3  S   -0.000549   0.152347  -0.204194  -0.380851  -0.071273
   21  O  4  S    0.000057   0.005803  -0.009202  -0.022025   0.037359
   22  O  4  S   -0.000306  -0.006489   0.108595   0.089552  -0.994528
   23  O  4  X   -0.196843  -0.539028  -0.738881   0.223442  -0.016688
   24  O  4  Y   -0.029329  -0.080761   0.070785  -0.169963   0.104269
   25  O  4  Z   -0.560530   0.193193   0.255475  -0.068727   0.000374
   26  O  4  S   -0.000270  -0.004272  -0.065351   0.119174   1.347481
   27  O  4  X    0.244411   0.846867   1.215833  -0.314665   0.057180
   28  O  4  Y    0.036375   0.020650  -0.157082   0.096096  -0.361825
   29  O  4  Z    0.697084  -0.298116  -0.418181   0.104195  -0.000986
   30  H  5  S    0.000029   0.340304   0.331580  -0.075261  -0.159425
   31  H  5  S   -0.000376   0.153392   0.431429   0.013908  -0.071094
   32  O  6  S   -0.000145   0.005835   0.023660   0.003032   0.037412
   33  O  6  S    0.000610  -0.006742  -0.131806   0.049346  -0.995855
   34  O  6  X   -0.197036   0.343348  -0.183106   0.267804  -0.076785
   35  O  6  Y   -0.031522  -0.454082   0.108335  -0.760189  -0.066058
   36  O  6  Z   -0.560340  -0.095124   0.058635  -0.053207   0.030082
   37  O  6  S   -0.000027  -0.004305  -0.070555  -0.116149   1.349363
   38  O  6  X    0.245235  -0.452625   0.177813  -0.473301   0.266982
   39  O  6  Y    0.039579   0.764767  -0.307414   1.199339   0.228482
   40  O  6  Z    0.696642   0.116648  -0.046638   0.101631  -0.104509
   41  H  7  S   -0.000639   0.339764  -0.101468   0.325211  -0.159425
   42  H  7  S    0.001652   0.152742  -0.228081   0.366802  -0.071112

                     41         42
                    3.0684     3.0685
                     A          A   
    1  B  1  S    0.000005  -0.000027
    2  B  1  S   -0.000009   0.000199
    3  B  1  X   -0.436959   0.106683
    4  B  1  Y    0.120602   0.460181
    5  B  1  Z    0.146050  -0.060809
    6  B  1  S   -0.000107   0.000611
    7  B  1  X   -0.939751   0.289954
    8  B  1  Y    0.323306   0.988717
    9  B  1  Z    0.310780  -0.151952
   10  O  2  S    0.049152  -0.014006
   11  O  2  S   -1.315557   0.438754
   12  O  2  X    0.113940  -0.069145
   13  O  2  Y    0.050421   0.152745
   14  O  2  Z   -0.042249   0.016207
   15  O  2  S    1.883480  -0.610366
   16  O  2  X   -0.403441   0.171745
   17  O  2  Y   -0.081009  -0.470137
   18  O  2  Z    0.144553  -0.035521
   19  H  3  S   -0.138520   0.258089
   20  H  3  S   -0.001716  -0.183307
   21  O  4  S   -0.036680  -0.035586
   22  O  4  S    1.036953   0.920795
   23  O  4  X   -0.027536   0.131292
   24  O  4  Y   -0.158945  -0.000525
   25  O  4  Z    0.017784  -0.045705
   26  O  4  S   -1.469153  -1.327284
   27  O  4  X    0.119902  -0.385593
   28  O  4  Y    0.498689   0.093578
   29  O  4  Z   -0.067669   0.129455
   30  H  5  S    0.292650  -0.008876
   31  H  5  S   -0.158008   0.093179
   32  O  6  S   -0.012455   0.049523
   33  O  6  S    0.278151  -1.357634
   34  O  6  X   -0.130396  -0.091368
   35  O  6  Y    0.078425  -0.105138
   36  O  6  Z    0.041413   0.037184
   37  O  6  S   -0.413694   1.935009
   38  O  6  X    0.340840   0.346096
   39  O  6  Y   -0.279079   0.313589
   40  O  6  Z   -0.104396  -0.136421
   41  H  7  S   -0.154230  -0.248832
   42  H  7  S    0.159590   0.090326
 ...... END OF RHF CALCULATION ......
 CPU     0: STEP CPU TIME=     1.82 TOTAL CPU TIME=          1.9 (      0.0 MIN)
 TOTAL WALL CLOCK TIME=          2.6 SECONDS, CPU UTILIZATION IS    73.44%

     ---------------------------------------------------------------------
     PROPERTIES FOR THE B3LYP    DFT FUNCTIONAL (RHF  TYPE) DENSITY MATRIX
     ---------------------------------------------------------------------

          -----------------
          ENERGY COMPONENTS
          -----------------

         WAVEFUNCTION NORMALIZATION =       1.0000000000

                ONE ELECTRON ENERGY =    -571.7053009446
                TWO ELECTRON ENERGY =     206.5017928408
           NUCLEAR REPULSION ENERGY =     114.2361671989
                                      ------------------
                       TOTAL ENERGY =    -250.9673409049

 ELECTRON-ELECTRON POTENTIAL ENERGY =     206.5017928408
  NUCLEUS-ELECTRON POTENTIAL ENERGY =    -820.5268068569
   NUCLEUS-NUCLEUS POTENTIAL ENERGY =     114.2361671989
                                      ------------------
             TOTAL POTENTIAL ENERGY =    -499.7888468171
               TOTAL KINETIC ENERGY =     248.8215059122
                 VIRIAL RATIO (V/T) =       2.0086239933

          ---------------------------------------
          MULLIKEN AND LOWDIN POPULATION ANALYSES
          ---------------------------------------

     ATOMIC MULLIKEN POPULATION IN EACH MOLECULAR ORBITAL

                      1          2          3          4          5

                  2.000000   2.000000   2.000000   2.000000   2.000000

    1             0.003222   0.003728   0.003700   2.008671   0.149448
    2             0.118231   0.033905   1.843734  -0.003034   0.573926
    3             0.000096  -0.000047   0.000531   0.000144   0.042279
    4             0.443147   1.442902   0.109820  -0.003034   0.574655
    5             0.000100   0.000540  -0.000060   0.000144   0.042346
    6             1.434666   0.518968   0.042236  -0.003035   0.574988
    7             0.000538   0.000004   0.000038   0.000144   0.042359

                      6          7          8          9         10

                  2.000000   2.000000   2.000000   2.000000   2.000000

    1             0.085230   0.085217   0.333056   0.297454   0.297423
    2             0.089207   1.080790   0.427966   0.196828   0.664738
    3             0.013398   0.093770   0.127542   0.053040   0.220584
    4             0.568516   0.600748   0.427607   0.300004   0.561855
    5             0.043193   0.063913   0.127392   0.085021   0.188741
    6             1.096384   0.072562   0.428679   0.795292   0.065596
    7             0.104072   0.003000   0.127758   0.272361   0.001063

                     11         12         13         14         15

                  2.000000   2.000000   2.000000   2.000000   2.000000

    1             0.615699   0.186362   0.186307   0.038938   0.000000
    2             0.461219   0.068764   1.099724   0.615146   0.162440
    3            -0.000000   0.027959   0.010536   0.040685  -0.000000
    4             0.461379   0.850244   0.321684   0.611702   0.541394
    5             0.000000   0.029842   0.008723   0.040643   0.000000
    6             0.461703   0.836759   0.334433   0.612384   1.296165
    7             0.000000   0.000070   0.038593   0.040502   0.000000

                     16

                  2.000000

    1             0.000000
    2             1.171102
    3             0.000000
    4             0.792008
    5             0.000000
    6             0.036889
    7             0.000000

               ----- POPULATIONS IN EACH AO -----
                             MULLIKEN      LOWDIN
              1  B  1  S      1.98376     1.97106
              2  B  1  S      0.38057     0.39883
              3  B  1  X      0.45504     0.46771
              4  B  1  Y      0.47544     0.49059
              5  B  1  Z      0.30445     0.29885
              6  B  1  S      0.16888     0.34427
              7  B  1  X      0.12237     0.31809
              8  B  1  Y      0.09744     0.31171
              9  B  1  Z      0.30650     0.36492
             10  O  2  S      1.98418     1.97821
             11  O  2  S      0.42109     0.56252
             12  O  2  X      0.70839     0.69396
             13  O  2  Y      0.67088     0.64788
             14  O  2  Z      0.78578     0.78659
             15  O  2  S      1.45217     0.99076
             16  O  2  X      0.82306     0.84322
             17  O  2  Y      0.78989     0.82478
             18  O  2  Z      0.96925     0.96026
             19  H  3  S      0.41931     0.42141
             20  H  3  S      0.21121     0.30178
             21  O  4  S      1.98418     1.97821
             22  O  4  S      0.42110     0.56253
             23  O  4  X      0.62985     0.60124
             24  O  4  Y      0.75541     0.74776
             25  O  4  Z      0.77975     0.77938
             26  O  4  S      1.45219     0.99078
             27  O  4  X      0.71318     0.75310
             28  O  4  Y      0.90673     0.92015
             29  O  4  Z      0.96223     0.95497
             30  H  5  S      0.41932     0.42142
             31  H  5  S      0.21122     0.30178
             32  O  6  S      1.98418     1.97821
             33  O  6  S      0.42109     0.56251
             34  O  6  X      0.74777     0.73833
             35  O  6  Y      0.62241     0.59308
             36  O  6  Z      0.79487     0.79702
             37  O  6  S      1.45216     0.99073
             38  O  6  X      0.91013     0.92560
             39  O  6  Y      0.68564     0.72676
             40  O  6  Z      0.98641     0.97588
             41  H  7  S      0.41929     0.42139
             42  H  7  S      0.21121     0.30178

          ----- MULLIKEN ATOMIC OVERLAP POPULATIONS -----
          (OFF-DIAGONAL ELEMENTS NEED TO BE MULTIPLIED BY 2)

             1           2           3           4           5

    1    3.3178450
    2    0.3558889   8.0321381
    3   -0.0303675   0.2628699   0.3987407
    4    0.3559153  -0.0227475  -0.0015365   8.0320686
    5   -0.0303777   0.0008091   0.0000024   0.2628546   0.3987847
    6    0.3559133  -0.0227343   0.0008079  -0.0227311  -0.0015384
    7   -0.0303618  -0.0015374   0.0000023   0.0008080   0.0000022

             6           7

    6    8.0320812
    7    0.2628695   0.3987192

          TOTAL MULLIKEN AND LOWDIN ATOMIC POPULATIONS
       ATOM         MULL.POP.    CHARGE          LOW.POP.     CHARGE
    1 B             4.294456    0.705544         4.966031    0.033969
    2 O             8.604687   -0.604687         8.288159   -0.288159
    3 H             0.630519    0.369481         0.723192    0.276808
    4 O             8.604631   -0.604631         8.288131   -0.288131
    5 H             0.630537    0.369463         0.723201    0.276799
    6 O             8.604668   -0.604668         8.288114   -0.288114
    7 H             0.630502    0.369498         0.723172    0.276828

          -------------------------------
          BOND ORDER AND VALENCE ANALYSIS     BOND ORDER THRESHOLD=0.050
          -------------------------------

                   BOND                       BOND                       BOND
  ATOM PAIR DIST  ORDER      ATOM PAIR DIST  ORDER      ATOM PAIR DIST  ORDER
    1   2  1.388  1.104        1   4  1.388  1.104        1   6  1.388  1.104
    2   3  0.988  0.814        4   5  0.988  0.814        6   7  0.988  0.814

                       TOTAL       BONDED        FREE
      ATOM            VALENCE     VALENCE     VALENCE
    1 B                 3.374       3.374       0.000
    2 O                 2.010       2.010      -0.000
    3 H                 0.841       0.841      -0.000
    4 O                 2.010       2.010      -0.000
    5 H                 0.841       0.841      -0.000
    6 O                 2.010       2.010      -0.000
    7 H                 0.841       0.841       0.000

          ---------------------
          ELECTROSTATIC MOMENTS
          ---------------------

 POINT   1           X           Y           Z (BOHR)    CHARGE
                -8.816851   -2.701048   -0.101311       -0.00 (A.U.)
         DX          DY          DZ         /D/  (DEBYE)
     0.001386   -0.000743    0.004825    0.005075

          -----------------------
          ELECTROSTATIC POTENTIAL
          -----------------------

   POINT      X          Y          Z           ELECTRONIC      NUCLEAR         TOTAL
                       (BOHR)                                    (A.U.)
 GAVEZZOTTI RADII USED FOR CHARGE FITTING
 {3,5+}NH,NK TEMPLATE USED, NH= 3 NK= 0
 NUMBER OF POINTS SELECTED FOR FITTING =     747
      1   -8.81692   -5.27429    4.06212        -6.219777       6.205606      -0.014171
      2   -7.21901   -4.67628    4.08208        -5.975380       5.970965      -0.004415
      3   -5.62110   -3.68872    3.47173        -5.969620       5.961535      -0.008085
      4   -4.65350   -2.70116    2.47184        -6.218488       6.201684      -0.016804
      5   -8.81692   -3.68872    4.69243        -5.951780       5.944034      -0.007746
      6   -7.07049   -2.70116    4.47091        -5.833609       5.830015      -0.003594
      7   -5.62110   -1.71360    3.47173        -5.958204       5.952777      -0.005428
      8   -8.81692   -1.71360    4.69243        -5.920398       5.915962      -0.004436
      9   -7.21901   -0.72603    4.08208        -5.917721       5.911555      -0.006166
     10   -8.81692   -0.12802    4.06212        -6.119005       6.106630      -0.012375
     11   -5.24389   -5.89697    0.88627        -6.392915       6.382308      -0.010606
     12   -4.63354   -4.29906    1.87383        -6.327570       6.302007      -0.025563
     13   -5.99114   -5.52693    2.72448        -6.137402       6.135875      -0.001527
     14   -5.99114    0.12462    2.72448        -6.089519       6.087507      -0.002013
     15   -6.84180    1.48222    1.49661        -6.331693       6.322568      -0.009125
     16   -7.82936    0.87187    3.09452        -6.224268       6.204153      -0.020115
     17   -8.81692   -5.27429   -4.26471        -6.022151       6.017867      -0.004284
     18   -7.21901   -4.67628   -4.28467        -6.200308       6.182164      -0.018145
     19   -7.82936   -6.27419   -3.29711        -6.239446       6.242757       0.003312
     20   -8.81692   -0.12802   -4.26471        -6.071312       6.066683      -0.004629
     21   -7.21901   -0.72603   -4.28467        -6.265542       6.270750       0.005207
     22   -8.81692   -1.71360   -4.89502        -5.944265       5.939903      -0.004362
     23   -7.07049   -2.70116   -4.67350        -6.246450       6.231382      -0.015068
     24   -8.81692   -3.68872   -4.89502        -5.921696       5.915091      -0.006605
     25   -7.82936    0.87187   -3.29711        -6.289569       6.294302       0.004734
     26   -9.80448    0.87187   -3.29711        -6.295191       6.272327      -0.022864
     27  -10.41483   -0.72603   -4.28467        -5.976661       5.967878      -0.008783
     28  -13.00030   -1.10325   -2.07642        -6.348995       6.355473       0.006477
     29  -12.01273   -1.71360   -3.67433        -5.983972       5.978759      -0.005212
     30  -12.98034   -2.70116   -2.67443        -6.076716       6.074274      -0.002441
     31  -12.01273   -3.68872   -3.67433        -5.940993       5.934129      -0.006864
     32  -10.56335   -2.70116   -4.67350        -5.833690       5.830014      -0.003676
     33  -10.41483   -4.67628   -4.28467        -5.925954       5.920974      -0.004980
     34  -10.41483   -0.72603    4.08208        -6.259283       6.258576      -0.000707
     35  -13.61064   -2.70116   -1.08886        -6.298653       6.307881       0.009228
     36  -13.00030   -4.29906   -2.07642        -6.225932       6.208162      -0.017771
     37   -9.80448   -6.27419   -3.29711        -6.237815       6.238671       0.000856
     38  -11.64270   -5.52693   -2.92707        -6.245018       6.227244      -0.017775
     39  -12.01273   -3.68872    3.47173        -6.362831       6.349172      -0.013659
     40  -10.41483   -4.67628    4.08208        -6.311198       6.286155      -0.025043
     41  -10.56335   -2.70116    4.47091        -6.083412       6.079167      -0.004244
     42   -3.92338   -3.38029    1.73698        -6.039829       6.014736      -0.025094
     43   -3.19114   -2.63295    0.98030        -5.775596       5.758087      -0.017509
     44   -3.92338   -1.88560    1.73698        -6.034509       6.023717      -0.010792
     45   -4.39460   -5.78364   -0.96693        -6.017585       5.987513      -0.030072
     46   -3.63792   -5.05140   -0.21959        -5.835275       5.801946      -0.033329
     47   -3.17603   -3.84217    0.52775        -5.747606       5.719087      -0.028519
     48   -4.84715   -5.79875    0.24229        -6.333451       6.311325      -0.022126
     49   -4.20341   -4.77137    1.17149        -6.125371       6.096074      -0.029298
     50   -2.71415   -2.63295   -0.21959        -5.591275       5.577749      -0.013526
     51   -2.71415   -2.63295   -1.71428        -5.499220       5.489696      -0.009524
     52   -3.19114   -2.63295   -2.91417        -5.510066       5.501270      -0.008796
     53   -3.63792   -5.05140   -1.71428        -5.707912       5.673713      -0.034198
     54   -3.17603   -3.84217   -2.46162        -5.533632       5.507932      -0.025700
     55   -2.88179   -3.95457   -0.96693        -5.578246       5.550298      -0.027948
     56   -6.34183   -4.58018   -4.11763        -6.195419       6.167802      -0.027617
     57   -5.13261   -4.12763   -4.13273        -5.827143       5.798394      -0.028749
     58   -3.92338   -3.38029   -3.67085        -5.591291       5.570284      -0.021007
     59   -5.59449   -5.33686   -3.38539        -6.085158       6.055196      -0.029962
     60   -4.20341   -4.77137   -3.10536        -5.713694       5.680874      -0.032820
     61   -4.84715   -5.79875   -2.17616        -6.023379       5.993264      -0.030115
     62   -6.34183   -1.88560   -4.59462        -6.104313       6.097629      -0.006684
     63   -5.02021   -2.63295   -4.42698        -5.764989       5.751310      -0.013679
     64   -6.34183   -3.38029   -4.59462        -6.097186       6.074681      -0.022505
     65   -2.98146   -0.91666    0.38189        -5.454761       5.466624       0.011864
     66   -3.60910   -0.27608    1.03047        -5.557205       5.572825       0.015620
     67   -4.64558    0.36450    1.42637        -5.847033       5.863814       0.016782
     68   -5.68206    0.75240    1.41343        -6.292407       6.305483       0.013076
     69   -2.96852    0.11982   -0.00601        -5.111239       5.134878       0.023639
     70   -3.36442    1.15630   -0.64659        -4.923270       4.954324       0.031053
     71   -4.01300    1.78393   -1.28717        -4.912553       4.945892       0.033339
     72   -3.84912    0.91627    0.54577        -5.252955       5.278713       0.025757
     73   -4.40090    1.79688   -0.25069        -5.145194       5.175141       0.029947
     74   -5.04148    1.40098    0.78579        -5.629942       5.652242       0.022300
     75   -3.36442    1.15630   -1.92775        -4.798005       4.830978       0.032972
     76   -2.71631    0.21615   -1.28717        -4.890998       4.918407       0.027409
     77   -2.57262   -0.91666   -0.64659        -5.203684       5.219466       0.015782
     78   -2.96852    0.11982   -2.56833        -4.850749       4.878570       0.027820
     79   -2.57262   -0.91666   -1.92775        -5.064124       5.082510       0.018386
     80   -2.98146   -0.91666   -2.95623        -5.062746       5.081517       0.018771
     81   -2.96852   -1.95314   -2.56833        -5.425996       5.430312       0.004316
     82   -3.60910   -1.55724   -3.60481        -5.355525       5.365082       0.009557
     83   -5.68206    0.75240   -3.98776        -5.320910       5.346156       0.025246
     84   -4.64558    0.36450   -4.00071        -5.084448       5.110824       0.026376
     85   -3.60910   -0.27608   -3.60481        -4.996388       5.020341       0.023953
     86   -5.68206   -0.27608   -4.39661        -5.537016       5.554845       0.017828
     87   -4.54924   -0.91666   -4.25292        -5.362624       5.377673       0.015049
     88   -4.40090    1.79688   -2.32365        -4.907732       4.941316       0.033585
     89   -3.84912    0.91627   -3.12011        -4.848518       4.880128       0.031610
     90   -5.04148    1.40098   -3.36013        -5.051978       5.082643       0.030665
     91   -5.04148    2.19278   -1.28717        -5.153332       5.183855       0.030523
     92   -6.32264    2.19278   -1.28717        -5.700451       5.720845       0.020395
     93   -5.68206    2.04909   -0.15435        -5.617649       5.640087       0.022438
     94   -6.96322    1.79688   -2.32365        -5.935497       5.951917       0.016420
     95   -5.68206    2.04909   -2.41999        -5.257262       5.286015       0.028753
     96   -6.32264    1.40098   -3.36013        -5.506645       5.530981       0.024336
     97   -6.71854    0.36450   -4.00071        -5.845773       5.863743       0.017970
     98   -6.81488   -0.91666   -4.25292        -6.309056       6.315527       0.006471
     99  -10.14622    0.28045    3.87452        -6.130651       6.121486      -0.009165
    100   -8.93699    1.02779    3.41263        -6.131288       6.107832      -0.023456
    101  -10.14622    1.48034    3.39753        -5.839754       5.823361      -0.016393
    102   -7.44230    1.95156    0.99418        -6.386674       6.365328      -0.021345
    103   -8.19898    2.68380    0.24683        -6.034915       6.005110      -0.029805
    104   -8.00779    1.67153    2.38526        -6.202182       6.174138      -0.028043
    105   -8.65153    2.69890    1.45606        -5.871231       5.838437      -0.032794
    106   -9.39887    2.23702    2.66529        -5.799528       5.771846      -0.027682
    107  -10.14622    1.48034   -2.90386        -6.113836       6.084818      -0.029018
    108   -8.65153    2.69890   -0.96239        -6.009114       5.978812      -0.030302
    109   -9.39887    2.23702   -2.17162        -6.034756       6.004023      -0.030733
    110   -9.39887    3.16079    0.24683        -5.713427       5.679288      -0.034139
    111  -10.89356    3.16079    0.24683        -5.529901       5.504086      -0.025815
    112  -12.09345    2.68380    0.24683        -5.499497       5.490418      -0.009079
    113  -10.14622    2.99315    1.56845        -5.600043       5.572381      -0.027662
    114  -11.64091    2.69890    1.45606        -5.509611       5.500187      -0.009425
    115  -10.89356    2.23702    2.66529        -5.627744       5.614810      -0.012934
    116  -11.64091    2.69890   -0.96239        -5.563339       5.541811      -0.021528
    117  -10.14622    2.99315   -1.07479        -5.690941       5.657755      -0.033187
    118  -10.89356    2.23702   -2.17162        -5.775054       5.745407      -0.029647
    119  -12.28464    1.67153   -1.89159        -5.709567       5.694834      -0.014733
    120  -11.35545    1.02779   -2.91896        -6.008371       5.984245      -0.024127
    121  -12.56467    0.28045   -2.45708        -6.010938       6.002655      -0.008283
    122  -11.89043   -1.33568    3.98006        -5.930646       5.947296       0.016650
    123  -11.89043   -0.05452    3.98006        -5.612912       5.629046       0.016134
    124  -11.89043    0.97396    3.57121        -5.492960       5.505420       0.012460
    125  -12.53101    2.41434    0.87062        -5.425911       5.430093       0.004182
    126  -13.55949    2.00549    0.87062        -5.058205       5.076832       0.018627
    127  -13.17159    2.01844    1.90710        -5.071280       5.089711       0.018431
    128  -12.53101    1.62254    2.94358        -5.225584       5.241668       0.016083
    129  -13.17159    2.01844   -0.16586        -5.341322       5.350478       0.009156
    130  -14.20808    1.37786    0.23004        -4.981330       5.005071       0.023741
    131  -13.72337    1.13783   -0.96232        -5.331907       5.346417       0.014511
    132  -14.60398    0.34138   -0.41054        -5.054375       5.080583       0.026208
    133  -13.96340   -0.05452   -1.44702        -5.484360       5.501745       0.017386
    134  -14.59103   -0.69510   -0.79844        -5.272768       5.298080       0.025312
    135  -13.96340   -1.33568   -1.44702        -5.765153       5.783363       0.018210
    136  -13.02325   -0.69510   -2.09514        -6.220281       6.225616       0.005335
    137  -12.92692    0.58606    3.58416        -5.142747       5.166616       0.023869
    138  -13.72337    1.13783    2.70356        -4.904648       4.932140       0.027492
    139  -14.20808    1.37786    1.51120        -4.849611       4.877386       0.027775
    140  -13.96340   -0.05452    3.18826        -4.944997       4.976048       0.031051
    141  -14.60398    0.34138    2.15178        -4.801998       4.834966       0.032968
    142  -14.59103   -0.69510    2.53968        -4.923046       4.956330       0.033284
    143  -14.99988   -0.69510    1.51120        -4.900306       4.933936       0.033630
    144  -14.85619    0.43771    0.87062        -4.835989       4.867553       0.031564
    145  -14.99988   -0.69510    0.23004        -5.023361       5.054151       0.030791
    146  -14.20808   -2.76806    1.51120        -5.691861       5.712461       0.020601
    147  -14.60398   -1.73158    2.15178        -5.159032       5.189488       0.030455
    148  -14.20808   -2.76806    0.23004        -5.874485       5.892334       0.017848
    149  -14.85619   -1.82792    0.87062        -5.232399       5.261509       0.029110
    150  -14.60398   -1.73158   -0.41054        -5.449874       5.474853       0.024979
    151  -13.72337   -2.52804   -0.96232        -6.226052       6.239724       0.013672
    152  -13.96340   -1.33568    3.18826        -5.175299       5.204976       0.029677
    153  -13.72337   -2.52804    2.70356        -5.654558       5.676238       0.021680
    154  -12.92692   -1.97626    3.58416        -5.696254       5.717712       0.021458
    155  -13.02325   -0.69510    3.83637        -5.298945       5.324639       0.025694
    156   -9.96254   -6.95046    3.56659        -5.779054       5.765345      -0.013709
    157   -8.75332   -6.49791    3.58169        -6.044904       6.038966      -0.005938
    158   -9.96254   -5.75056    4.04358        -6.035917       6.013283      -0.022634
    159  -13.11324   -5.00322   -1.53134        -6.209903       6.181954      -0.027949
    160  -12.38100   -5.75056   -2.28802        -6.101013       6.076192      -0.024820
    161  -11.17177   -6.49791   -2.74990        -6.094220       6.082906      -0.011314
    162  -12.38100   -4.25588    3.11981        -6.313402       6.289662      -0.023741
    163  -13.11324   -5.00322    2.36313        -6.011323       5.980942      -0.030381
    164  -13.59023   -5.00322    1.16324        -6.026326       5.996483      -0.029843
    165  -13.59023   -5.00322   -0.33145        -6.097039       6.067515      -0.029524
    166  -11.90978   -8.15391    0.41589        -5.508715       5.498660      -0.010056
    167  -12.66646   -7.42168    1.16324        -5.533373       5.507384      -0.025989
    168  -13.12834   -6.21245    1.91058        -5.706335       5.672220      -0.034115
    169  -12.66646   -7.42168   -0.33145        -5.590754       5.567836      -0.022918
    170  -13.42259   -6.32484    0.41589        -5.716266       5.682913      -0.033353
    171  -13.12834   -6.21245   -1.07879        -5.831627       5.801385      -0.030241
    172  -11.45723   -8.16902   -0.79333        -5.603898       5.603790      -0.000108
    173  -12.10097   -7.14165   -1.72253        -5.761527       5.744188      -0.017338
    174  -12.38100   -5.75056    3.11981        -5.828042       5.795041      -0.033001
    175  -12.10097   -7.14165    2.55432        -5.576938       5.550068      -0.026870
    176  -11.45723   -8.16902    1.62512        -5.500125       5.491563      -0.008562
    177  -11.17177   -6.49791    3.58169        -5.744350       5.717775      -0.026576
    178  -10.70989   -7.70714    2.83435        -5.594214       5.583746      -0.010468
    179  -11.28416   -5.00322    3.87594        -6.110066       6.080986      -0.029079
    180   -8.87667   -8.16056    2.81738        -5.376979       5.391941       0.014961
    181   -7.84019   -7.77266    2.83033        -5.472068       5.490637       0.018569
    182   -6.80371   -7.13208    2.43443        -5.762232       5.781143       0.018911
    183   -6.17607   -6.49150    1.78585        -6.216412       6.230370       0.013957
    184   -7.74385   -6.49150    3.08254        -6.201288       6.208530       0.007242
    185   -7.20761   -9.19209    0.11679        -4.903547       4.937181       0.033634
    186   -6.55903   -8.56446    0.75737        -5.119804       5.150426       0.030622
    187   -6.16312   -7.52798    1.39795        -5.581594       5.604835       0.023241
    188   -7.59551   -9.20504    1.15327        -4.897398       4.929333       0.031935
    189   -7.04373   -8.32443    1.94972        -5.201599       5.228911       0.027312
    190   -8.23609   -8.80914    2.18975        -5.061599       5.087068       0.025470
    191   -5.76722   -6.49150    0.75737        -6.343848       6.353248       0.009400
    192   -6.55903   -8.56446   -0.52379        -5.150965       5.181563       0.030599
    193   -6.16312   -7.52798   -1.16437        -5.707293       5.727610       0.020317
    194   -5.91091   -7.62431    0.11679        -5.598205       5.620899       0.022694
    195   -8.87667   -8.16056   -2.58381        -5.382048       5.405549       0.023501
    196   -7.84019   -7.77266   -2.59675        -5.557029       5.580348       0.023319
    197   -6.80371   -7.13208   -2.20085        -5.969904       5.986078       0.016174
    198   -8.23609   -8.80914   -1.95617        -5.086763       5.116441       0.029678
    199   -7.04373   -8.32443   -1.71615        -5.278916       5.307235       0.028318
    200   -7.59551   -9.20504   -0.91969        -4.918143       4.951449       0.033306
    201   -8.87667   -7.13208   -2.99265        -5.934618       5.950536       0.015918
    202   -9.91315   -7.77266   -2.59675        -5.625937       5.640788       0.014852
    203  -10.54573   -9.19209    0.11679        -5.079507       5.097592       0.018085
    204  -11.19431   -8.56446    0.75737        -5.435060       5.438970       0.003910
    205  -11.19431   -8.56446   -0.52379        -5.403950       5.411419       0.007468
    206   -9.51725   -8.80914   -1.95617        -5.135108       5.159742       0.024634
    207  -10.15783   -9.20504   -0.91969        -5.031367       5.053968       0.022601
    208  -10.70960   -8.32443   -1.71615        -5.436509       5.448626       0.012117
    209   -9.51725   -9.60094    0.11679        -4.856706       4.884315       0.027609
    210   -8.87667   -9.45725   -1.01603        -4.870083       4.900964       0.030881
    211   -8.23609   -9.60094    0.11679        -4.795137       4.828234       0.033098
    212  -10.70960   -8.32443    1.94972        -5.510768       5.512960       0.002193
    213  -10.15783   -9.20504    1.15327        -5.051700       5.070612       0.018912
    214   -9.51725   -8.80914    2.18975        -5.156947       5.174656       0.017709
    215   -8.87667   -9.45725    1.24960        -4.869824       4.898058       0.028234
    216   -8.81692   -5.64188    4.65689        -5.511764       5.502248      -0.009516
    217   -6.99074   -4.95844    4.67971        -5.336221       5.332399      -0.003822
    218   -5.16456   -3.82980    3.98217        -5.331848       5.325152      -0.006696
    219   -4.05873   -2.70116    2.83943        -5.510718       5.499231      -0.011487
    220   -8.81692   -3.82980    5.37724        -5.317769       5.311272      -0.006496
    221   -6.82100   -2.70116    5.12408        -5.227942       5.223991      -0.003951
    222   -5.16456   -1.57252    3.98217        -5.322628       5.317965      -0.004663
    223   -8.81692   -1.57252    5.37724        -5.294519       5.290382      -0.004137
    224   -6.99074   -0.44387    4.67971        -5.292498       5.286994      -0.005503
    225   -8.81692    0.23957    4.65689        -5.439798       5.430926      -0.008872
    226   -4.73346   -6.35352    1.02735        -5.651379       5.644678      -0.006701
    227   -4.03592   -4.52734    2.15599        -5.591883       5.574430      -0.017453
    228   -5.58746   -5.93062    3.12816        -5.462462       5.461387      -0.001074
    229   -7.68828   -6.78462    3.55106        -5.628656       5.633216       0.004560
    230   -4.03592   -0.87498    2.15599        -5.612396       5.612780       0.000384
    231   -5.58746    0.52830    3.12816        -5.425591       5.423985      -0.001607
    232   -6.55964    2.07984    1.72488        -5.606840       5.600948      -0.005893
    233   -7.68828    1.38231    3.55106        -5.518569       5.504415      -0.014154
    234   -8.81692   -5.64188   -4.85949        -5.373885       5.370264      -0.003621
    235   -6.99074   -4.95844   -4.88230        -5.502586       5.489661      -0.012925
    236   -7.68828   -6.78462   -3.75366        -5.540193       5.543025       0.002831
    237   -8.81692    0.23957   -4.85949        -5.411712       5.408030      -0.003681
    238   -6.99074   -0.44387   -4.88230        -5.551609       5.556220       0.004611
    239   -8.81692   -1.57252   -5.57984        -5.312861       5.308892      -0.003969
    240   -6.82100   -2.70116   -5.32667        -5.530548       5.520543      -0.010005
    241   -8.81692   -3.82980   -5.57984        -5.295211       5.289401      -0.005810
    242   -7.68828    1.38231   -3.75366        -5.578199       5.582183       0.003983
    243   -9.94556    1.38231   -3.75366        -5.570715       5.554916      -0.015799
    244  -10.64310   -0.44387   -4.88230        -5.336669       5.329497      -0.007172
    245  -13.59792   -0.87498   -2.35858        -5.609381       5.615224       0.005843
    246  -12.46928   -1.57252   -4.18476        -5.342201       5.337831      -0.004370
    247  -13.57511   -2.70116   -3.04202        -5.415749       5.413760      -0.001990
    248  -12.46928   -3.82980   -4.18476        -5.310372       5.304435      -0.005937
    249  -10.81284   -2.70116   -5.32667        -5.227996       5.223972      -0.004023
[...]
    556  -11.88428   -9.07353   -1.13883        -4.673761       4.674869       0.001107
    557  -12.71195   -7.75263   -2.33351        -4.817348       4.809056      -0.008291
    558  -13.07199   -5.96409    3.89236        -4.881740       4.865563      -0.016177
    559  -12.71195   -7.75263    3.16530        -4.658272       4.644492      -0.013781
    560  -11.88428   -9.07353    1.97062        -4.585802       4.582148      -0.003654
    561  -11.51726   -6.92496    4.48621        -4.804945       4.791584      -0.013360
    562  -10.92341   -8.47968    3.52534        -4.668710       4.664133      -0.004577
    563   -8.87667   -8.63743    3.58898        -4.689930       4.696541       0.006612
    564   -7.54405   -8.13870    3.60563        -4.792660       4.801534       0.008874
    565   -6.73073   -9.96369    0.11679        -4.310132       4.329208       0.019076
    566   -5.89684   -9.15673    0.94039        -4.510541       4.526977       0.016436
    567   -5.38783   -7.82411    1.76399        -4.936201       4.946436       0.010235
    568   -7.22946   -9.98034    1.44941        -4.296092       4.314250       0.018158
    569   -6.52003   -8.84813    2.47342        -4.571030       4.585602       0.014572
    570   -8.05306   -9.47132    2.78202        -4.428637       4.442423       0.013786
    571   -5.89684   -9.15673   -0.70682        -4.545404       4.561419       0.016015
    572   -5.38783   -7.82411   -1.53042        -5.075525       5.081740       0.006215
    573   -5.06355   -7.94798    0.11679        -4.967595       4.976299       0.008704
    574   -8.87667   -8.63743   -3.35541        -4.728369       4.740283       0.011914
    575   -7.54405   -8.13870   -3.37205        -4.907262       4.917961       0.010699
    576   -8.05306   -9.47132   -2.54845        -4.470477       4.486721       0.016244
    577   -6.52003   -8.84813   -2.23985        -4.661424       4.675636       0.014212
    578   -7.22946   -9.98034   -1.21583        -4.322891       4.341730       0.018839
    579  -10.20928   -8.13870   -3.37205        -4.924335       4.930714       0.006379
    580  -11.02260   -9.96369    0.11679        -4.422047       4.430773       0.008726
    581   -9.70027   -9.47132   -2.54845        -4.495418       4.508562       0.013144
    582  -10.52387   -9.98034   -1.21583        -4.390925       4.402802       0.011877
    583  -11.23330   -8.84813   -2.23985        -4.736304       4.740987       0.004684
    584   -9.70027  -10.48935    0.11679        -4.242691       4.258093       0.015401
    585   -8.87667  -10.30461   -1.33969        -4.265959       4.283520       0.017561
    586   -8.05306  -10.48935    0.11679        -4.202454       4.221569       0.019116
    587  -10.52387   -9.98034    1.44941        -4.398634       4.407937       0.009303
    588   -9.70027   -9.47132    2.78202        -4.493064       4.501551       0.008487
    589   -8.87667  -10.30461    1.57327        -4.256913       4.272732       0.015819
    590   -8.81692   -6.37706    5.84644        -4.471349       4.466819      -0.004530
    591   -6.53419   -5.52276    5.87496        -4.375326       4.372858      -0.002468
    592   -4.25147   -4.11196    5.00303        -4.372849       4.368682      -0.004167
    593   -2.86918   -2.70116    3.57461        -4.470776       4.465154      -0.005622
    594   -8.81692   -4.11196    6.74688        -4.363885       4.359777      -0.004108
    595   -6.32202   -2.70116    6.43042        -4.310134       4.306981      -0.003153
    596   -4.25147   -1.29036    5.00303        -4.366683       4.363670      -0.003012
    597   -8.81692   -1.29036    6.74688        -4.350503       4.347622      -0.002881
    598   -6.53419    0.12045    5.87496        -4.349370       4.345668      -0.003702
    599   -8.81692    0.97475    5.84644        -4.432243       4.427601      -0.004642
    600   -3.71259   -7.26661    1.30951        -4.562613       4.559919      -0.002694
    601   -2.84067   -4.98388    2.72031        -4.518684       4.510237      -0.008447
    602   -4.78009   -6.73798    3.93553        -4.453816       4.453354      -0.000461
    603   -7.40612   -7.80549    4.46415        -4.537549       4.540742       0.003194
    604   -2.84067   -0.41843    2.72031        -4.527556       4.528639       0.001082
    605   -4.78009    1.33567    3.93553        -4.431314       4.430427      -0.000887
    606   -5.99532    3.27510    2.18143        -4.537594       4.535130      -0.002464
    607   -7.40612    2.40317    4.46415        -4.478883       4.471723      -0.007161
    608   -3.71259   -7.26661   -1.51210        -4.638229       4.630795      -0.007434
    609   -8.81692   -6.37706   -6.04903        -4.399984       4.397737      -0.002247
    610   -6.53419   -5.52276   -6.07755        -4.471244       4.464608      -0.006636
    611   -7.40612   -7.80549   -4.66675        -4.500295       4.502146       0.001850
    612   -4.78009   -6.73798   -4.13812        -4.597589       4.588794      -0.008795
    613   -8.81692    0.97475   -6.04903        -4.423076       4.420958      -0.002117
    614   -6.53419    0.12045   -6.07755        -4.499189       4.502149       0.002961
    615   -8.81692   -1.29036   -6.94947        -4.361662       4.358961      -0.002701
    616   -6.32202   -2.70116   -6.63302        -4.481368       4.476679      -0.004690
    617   -8.81692   -4.11196   -6.94947        -4.350681       4.346817      -0.003864
    618   -7.40612    2.40317   -4.66675        -4.522906       4.525430       0.002524
    619   -7.40612    4.14702   -0.10130        -4.632861       4.625611      -0.007250
    620   -8.81692    3.83056   -2.59619        -4.623281       4.613738      -0.009543
    621  -10.22772    2.40317   -4.66675        -4.508861       4.501103      -0.007758
    622  -12.85374    1.33567   -4.13812        -4.524949       4.519214      -0.005734
    623  -11.09964    0.12045   -6.07755        -4.375213       4.370805      -0.004408
    624  -14.79317   -0.41843   -2.92290        -4.528797       4.532539       0.003742
    625  -13.38237   -1.29036   -5.20562        -4.378367       4.375617      -0.002750
    626  -14.76466   -2.70116   -3.77720        -4.425331       4.424181      -0.001151
    627  -13.38237   -4.11196   -5.20562        -4.360256       4.356385      -0.003871
    628  -11.31181   -2.70116   -6.63302        -4.310157       4.306949      -0.003208
    629  -11.09964   -5.52276   -6.07755        -4.352520       4.349435      -0.003085
    630  -11.09964    0.12045    5.87496        -4.492344       4.493186       0.000842
    631  -15.66509   -2.70116   -1.51210        -4.526189       4.530385       0.004196
    632  -14.79317   -4.98388    2.72031        -4.636997       4.629369      -0.007628
    633  -15.34864   -5.19605   -0.10130        -4.607168       4.598906      -0.008263
    634  -14.79317   -4.98388   -2.92290        -4.484153       4.477786      -0.006367
    635  -10.22772   -7.80549   -4.66675        -4.485731       4.487001       0.001269
    636  -12.85374   -6.73798   -4.13812        -4.480695       4.474899      -0.005796
    637  -13.38237   -4.11196    5.00303        -4.548108       4.544143      -0.003965
    638  -11.09964   -5.52276    5.87496        -4.510004       4.501723      -0.008280
    639  -11.31181   -2.70116    6.43042        -4.428740       4.426875      -0.001865
    640   -1.84084   -2.63295    1.81483        -4.469430       4.463348      -0.006081
    641   -2.47910   -6.08788    0.10070        -4.525791       4.514153      -0.011638
    642   -1.81926   -4.36041    1.16833        -4.450555       4.439919      -0.010635
    643   -1.81926   -0.90548    1.16833        -4.447154       4.449833       0.002679
    644   -1.15943   -2.63295    0.10070        -4.317521       4.313021      -0.004500
    645   -1.15943   -2.63295   -2.03457        -4.240926       4.238016      -0.002910
    646   -1.84084   -2.63295   -3.74870        -4.249480       4.246899      -0.002581
    647   -2.47910   -6.08788   -2.03457        -4.421196       4.408672      -0.012524
    648   -1.81926   -4.36041   -3.10220        -4.274757       4.264910      -0.009847
    649   -1.39891   -4.52098   -0.96693        -4.311959       4.301261      -0.010698
    650   -4.61437   -4.76821   -5.48950        -4.515703       4.505094      -0.010609
    651   -2.88690   -3.70058   -4.82967        -4.320185       4.312453      -0.007732
    652   -3.28694   -5.68784   -4.02183        -4.424918       4.412723      -0.012195
    653   -2.88690   -1.56531   -4.82967        -4.325150       4.327860       0.002711
    654   -4.45380   -2.63295   -5.90986        -4.459403       4.454938      -0.004465
    655   -2.72069   -0.00155    2.02375        -4.573547       4.578301       0.004754
    656   -1.80557    0.56402    0.54306        -4.205911       4.215379       0.009468
    657   -2.37114    2.04471   -0.37205        -4.068525       4.082176       0.013651
    658   -3.29769    2.94133   -1.28717        -4.071807       4.086476       0.014669
    659   -3.06358    1.70182    1.33131        -4.347606       4.357756       0.010150
    660   -3.85183    2.95982    0.19352        -4.275231       4.287292       0.012060
    661   -2.37114    2.04471   -2.20228        -3.962048       3.976998       0.014951
    662   -1.44527    0.70165   -1.28717        -4.022762       4.034553       0.011790
    663   -1.24000   -0.91666   -0.37205        -4.256230       4.261237       0.005007
    664   -1.80557    0.56402   -3.11740        -3.988166       4.000227       0.012061
    665   -1.24000   -0.91666   -2.20228        -4.142137       4.148628       0.006491
    666   -1.82407   -0.91666   -3.67154        -4.142433       4.149152       0.006720
    667   -5.68206    1.46771   -5.14516        -4.409069       4.418719       0.009650
    668   -4.20137    0.91357   -5.16366        -4.194047       4.204984       0.010938
    669   -2.72069   -0.00155   -4.59808        -4.103644       4.113391       0.009747
    670   -4.06375   -0.91666   -5.52396        -4.395347       4.399943       0.004596
    671   -3.85183    2.95982   -2.76786        -4.068845       4.083628       0.014783
    672   -3.06358    1.70182   -3.90565        -4.002168       4.016299       0.014130
    673   -4.76694    2.39425   -4.24854        -4.188180       4.201121       0.012941
    674   -4.76694    3.52540   -1.28717        -4.292540       4.304411       0.011871
    675   -5.68206    3.32013   -2.90548        -4.383705       4.394203       0.010498
    676  -10.14622    2.31487    4.74783        -4.521421       4.515822      -0.005599
    677   -8.01095    4.05567    1.97430        -4.554991       4.543600      -0.011392
    678   -9.07858    3.39584    3.70177        -4.492662       4.482423      -0.010240
    679   -9.07858    4.71551    0.24683        -4.425695       4.413207      -0.012488
    680  -11.21385    4.71551    0.24683        -4.271757       4.261852      -0.009905
    681  -12.92798    4.03410    0.24683        -4.240980       4.238259      -0.002721
    682  -10.14622    4.47603    2.13486        -4.329657       4.319121      -0.010536
    683  -12.28149    4.05567    1.97430        -4.249360       4.246511      -0.002849
    684  -11.21385    3.39584    3.70177        -4.347072       4.342867      -0.004205
    685  -12.28149    4.05567   -1.48063        -4.297560       4.289556      -0.008004
    686  -10.14622    4.47603   -1.64119        -4.406470       4.394093      -0.012377
    687  -11.21385    3.39584   -3.20810        -4.473493       4.462470      -0.011022
    688  -14.00895    2.98804   -0.82080        -4.301690       4.304088       0.002398
    689  -13.20111    2.58800   -2.80806        -4.414529       4.409595      -0.004934
    690  -11.87369    1.66837    4.76940        -4.492481       4.495556       0.003075
    691  -14.27481    3.16289    0.87062        -4.137799       4.144432       0.006632
    692  -13.72066    3.18138    2.35131        -4.148672       4.155194       0.006522
    693  -12.80555    2.61581    3.83199        -4.276966       4.282156       0.005190
    694  -15.20135    2.26627   -0.04450        -4.089276       4.098908       0.009633
    695  -14.50892    1.92338   -1.74786        -4.365575       4.369871       0.004296
    696  -15.76692    0.78558   -0.95961        -4.165765       4.176673       0.010907
    697  -14.85181    0.22001   -2.44030        -4.515981       4.521699       0.005717
    698  -15.74843   -0.69510   -1.51375        -4.363618       4.373500       0.009882
    699  -13.37112    1.13513    4.74711        -4.235459       4.245010       0.009551
    700  -14.50892    1.92338    3.48910        -4.035374       4.047199       0.011825
    701  -15.20135    2.26627    1.78573        -3.986945       3.998981       0.012037
    702  -14.85181    0.22001    4.18153        -4.088673       4.102258       0.013585
    703  -15.76692    0.78558    2.70085        -3.965671       3.980611       0.014940
    704  -15.74843   -0.69510    3.25499        -4.081534       4.096128       0.014594
    705  -16.33249   -0.69510    1.78573        -4.061931       4.076775       0.014844
    706  -16.12723    0.92321    0.87062        -3.990464       4.004599       0.014135
    707  -16.33249   -0.69510   -0.04450        -4.161449       4.174585       0.013136
    708  -15.76692   -2.17579    2.70085        -4.297944       4.309736       0.011793
    709  -16.12723   -2.31341    0.87062        -4.360207       4.371086       0.010879
    710  -15.76692   -2.17579   -0.95961        -4.537863       4.546374       0.008511
    711  -14.85181   -1.61022    4.18153        -4.303541       4.315274       0.011733
    712  -13.50874   -0.69510    5.10741        -4.390940       4.400871       0.009931
    713   -9.96254   -7.78499    4.91689        -4.470917       4.466456      -0.004461
    714  -12.74431   -9.50421    0.41589        -4.248876       4.245755      -0.003122
    715  -13.82528   -8.45816    1.48353        -4.274653       4.264684      -0.009969
    716  -14.48511   -6.73069    2.55116        -4.419838       4.407328      -0.012510
    717  -13.82528   -8.45816   -0.65174        -4.320409       4.311852      -0.008557
    718  -14.90547   -6.89125    0.41589        -4.427392       4.415062      -0.012330
    719  -14.48511   -6.73069   -1.71937        -4.520126       4.509004      -0.011122
    720  -12.09781   -9.52579   -1.31157        -4.322442       4.323605       0.001163
    721  -13.01744   -8.05812   -2.63900        -4.457881       4.451858      -0.006023
    722  -13.41748   -6.07085    4.27863        -4.519341       4.507638      -0.011702
    723  -13.01744   -8.05812    3.47079        -4.310513       4.300269      -0.010245
    724  -12.09781   -9.52579    2.14336        -4.241294       4.238803      -0.002491
    725  -11.69001   -7.13849    4.93846        -4.447138       4.437276      -0.009863
    726  -11.03018   -8.86596    3.87083        -4.318779       4.315603      -0.003176
    727   -8.87667   -8.87587    3.97478        -4.407743       4.412297       0.004554
    728   -7.39598   -8.32173    3.99328        -4.510514       4.516848       0.006334
    729   -6.49230  -10.34949    0.11679        -4.065030       4.079860       0.014831
    730   -5.56575   -9.45287    1.03190        -4.255949       4.268347       0.012398
    731   -7.04644  -10.36798    1.59747        -4.048938       4.063093       0.014155
    732   -6.25819   -9.10998    2.73527        -4.308769       4.319752       0.010982
    733   -7.96155   -9.80241    3.07816        -4.168877       4.179396       0.010519
    734   -5.56575   -9.45287   -0.79833        -4.290933       4.302833       0.011899
    735   -8.87667   -8.87587   -3.74121        -4.455446       4.464183       0.008736
    736   -7.96155   -9.80241   -2.84459        -4.214844       4.227249       0.012405
    737   -6.25819   -9.10998   -2.50169        -4.400531       4.410830       0.010299
    738   -7.04644  -10.36798   -1.36390        -4.076948       4.091575       0.014628
    739  -11.26104  -10.34949    0.11679        -4.154640       4.160958       0.006318
    740   -9.79178   -9.80241   -2.84459        -4.232140       4.242091       0.009951
    741  -10.70690  -10.36798   -1.36390        -4.129573       4.138529       0.008956
    742   -9.79178  -10.93356    0.11679        -3.992654       4.004591       0.011936
    743   -8.87667  -10.72829   -1.50152        -4.018578       4.032284       0.013706
    744   -7.96155  -10.93356    0.11679        -3.959942       3.974966       0.015024
    745  -10.70690  -10.36798    1.59747        -4.133086       4.139888       0.006803
    746   -9.79178   -9.80241    3.07816        -4.222229       4.228350       0.006121
    747   -8.87667  -10.72829    1.73510        -4.006953       4.019232       0.012279

 NET CHARGES:
 -------------------------------------
 ATOM                CHARGE    E.S.D.
 -------------------------------------
 B                   0.8971    0.0212
 O                  -0.7714    0.0055
 H                   0.4721    0.0013
 O                  -0.7707    0.0055
 H                   0.4717    0.0013
 O                  -0.7707    0.0054
 H                   0.4720    0.0013
 -------------------------------------

 RMS DEVIATION IS            0.392 KCAL/MOLE
 RELATIVE RMS DEVIATION IS   3.964 %

 MULTIPOLE MOMENTS:
 ---------------------------------------------------------
 STATUS  ACTUAL VALUE       QUANTITY        FITTED VALUE 
 ---------------------------------------------------------
 FIXED       0.0000       TOTAL CHARGE         0.0000
             0.0051 D    DIPOLE MOMENT         0.0065 D
 FREE        0.0014 D          DX              0.0007 D
 FREE       -0.0007 D          DY             -0.0024 D
 FREE        0.0048 D          DZ              0.0060 D
 FREE        0.0000 BU         QXX             1.0041 BU
 FREE        0.0000 BU         QYY             1.5084 BU
 FREE        0.0000 BU         QZZ            -2.5126 BU
 FREE        0.0000 BU         QXY            -0.0689 BU
 FREE        0.0000 BU         QXZ            -1.4203 BU
 FREE        0.0000 BU         QYZ            -0.2136 BU
 ---------------------------------------------------------
 ...... END OF PROPERTY EVALUATION ......
 CPU     0: STEP CPU TIME=     0.04 TOTAL CPU TIME=          1.9 (      0.0 MIN)
 TOTAL WALL CLOCK TIME=          2.6 SECONDS, CPU UTILIZATION IS    73.28%
               580000  WORDS OF DYNAMIC MEMORY USED
 EXECUTION OF GAMESS TERMINATED NORMALLY Sat May 16 22:18:14 2020
 DDI: 263640 bytes (0.3 MB / 0 MWords) used by master data server.
Note: The following floating-point exceptions are signalling:Note: The following floating-point exceptions are signalling: IEEE_UNDERFLOW_FLAG IEEE_DENORMALNote: The following floating-point exceptions are signalling: IEEE_UNDERFLOW_FLAGNote: The following floating-point exceptions are signalling: IEEE_UNDERFLOW_FLAG
 ----------------------------------------
 CPU timing information for all processes
 ========================================
 0: 1.745 + 0.181 = 1.926
 1: 1.632 + 0.37 = 1.669
 2: 1.444 + 0.21 = 1.465
 3: 1.719 + 0.16 = 1.735
 4: 1.326 + 0.36 = 1.363
 5: 1.290 + 0.04 = 1.294
 ----------------------------------------
Note: The following floating-point exceptions are signalling: IEEE_UNDERFLOW_FLAG
 IEEE_DENORMAL
 IEEE_DENORMAL
 IEEE_UNDERFLOW_FLAG IEEE_DENORMALNote: The following floating-point exceptions are signalling: IEEE_UNDERFLOW_FLAG IEEE_DENORMAL

 IEEE_DENORMAL
 ddikick.x: exited gracefully.
unset echo
----- accounting info -----
Files used on the master node pietdev were:
-rwxr-xr-x 1 piet piet      620 mei 16 22:18 /home/piet/scr/boricacid_charge_geodisk.F05*
-rw-r--r-- 1 piet piet 50790400 mei 16 22:18 /home/piet/scr/boricacid_charge_geodisk.F10
ls: No match.
ls: No match.
ls: No match.
za 16 mei 2020 22:18:17 CEST
0.100u 0.030s 0:05.76 2.2%	0+0k 0+8io 0pf+0w
