----- GAMESS execution script 'rungms' -----
This job is running on host pietdev
under operating system Linux at za 16 mei 2020 22:18:36 CEST
Available scratch disk space (Kbyte units) at beginning of the job is
Filesystem     1K-blocks     Used Available Use% Mounted on
/dev/sda2      244568380 30379680 201695644  14% /
GAMESS temporary binary files will be written to /home/piet/scr
GAMESS supplementary output files will be written to /home/piet/gamess/scr
Copying input file boricacid_fukui_acid.inp to your run's scratch directory...
cp boricacid_fukui_acid.inp /home/piet/scr/boricacid_fukui_acid.F05
unset echo
 
Assuming a single but multicore node.
 
/home/piet/gamess/ddikick.x /home/piet/gamess/gamess.03.x boricacid_fukui_acid -ddi 1 6 pietdev:cpus=6 -scr /home/piet/scr

 Distributed Data Interface kickoff program.
 Initiating 6 compute processes on 1 nodes to run the following command:
 /home/piet/gamess/gamess.03.x boricacid_fukui_acid 

          ******************************************************
          *         GAMESS VERSION = 30 SEP 2019 (R2)          *
          *             FROM IOWA STATE UNIVERSITY             *
          * M.W.SCHMIDT, K.K.BALDRIDGE, J.A.BOATZ, S.T.ELBERT, *
          *   M.S.GORDON, J.H.JENSEN, S.KOSEKI, N.MATSUNAGA,   *
          *          K.A.NGUYEN, S.J.SU, T.L.WINDUS,           *
          *       TOGETHER WITH M.DUPUIS, J.A.MONTGOMERY       *
          *         J.COMPUT.CHEM.  14, 1347-1363(1993)        *
          **************** 64 BIT LINUX VERSION ****************

  SINCE 1993, STUDENTS AND POSTDOCS WORKING AT IOWA STATE UNIVERSITY
  AND ALSO IN THEIR VARIOUS JOBS AFTER LEAVING ISU HAVE MADE IMPORTANT
  CONTRIBUTIONS TO THE CODE:
     IVANA ADAMOVIC, CHRISTINE AIKENS, YURI ALEXEEV, POOJA ARORA,
     ANDREY ASADCHEV, ROB BELL, PRADIPTA BANDYOPADHYAY, JONATHAN BENTZ,
     COLLEEN BERTONI, BRETT BODE, KURT BRORSEN, CALEB CARLIN, GALINA CHABAN,
     WEI CHEN, CHEOL HO CHOI, PAUL DAY, ALBERT DEFUSCO, NUWAN DESILVA,
     TIM DUDLEY, DMITRI FEDOROV, ALEX FINDLATER, GRAHAM FLETCHER, 
     MARK FREITAG, KURT GLAESEMANN, EMILIE B GUIDEZ, ANASTASIA GUNINA, 
     DAN KEMP, SAROM SOK LEANG, GRANT MERRILL,
     NORIYUKI MINEZAWA, JONATHAN MULLIN,
     TAKESHI NAGATA, SEAN NEDD, HEATHER NETZLOFF, BOSILJKA NJEGIC, RYAN OLSON,
     MIKE PAK, BUU PHAM, DAVID POOLE,
     SPENCER PRUITT, LUKE ROSKOP, TOSAPORN SATTASATHUCHANA,
     JIM SHOEMAKER, LYUDMILA SLIPCHENKO,
     TONY SMITH, JIE SONG, TETSUYA TAKETSUGU, SIMON WEBB,
     JORGE LUIS GALVEZ VALLEJO, PENG XU, SOOHAENG YOO,
     FEDERICO ZAHARIEV

  ADDITIONAL CODE HAS BEEN PROVIDED BY COLLABORATORS IN OTHER GROUPS:
     IOWA STATE UNIVERSITY:
          JOE IVANIC, AARON WEST, LAIMUTIS BYTAUTAS, KLAUS RUEDENBERG
     UNIVERSITY OF TOKYO: KIMIHIKO HIRAO, TAKAHITO NAKAJIMA,
          TAKAO TSUNEDA, MUNEAKI KAMIYA, SUSUMU YANAGISAWA,
          KIYOSHI YAGI, MAHITO CHIBA, SEIKEN TOKURA, NAOAKI KAWAKAMI
     UNIVERSITY OF AARHUS: FRANK JENSEN
     UNIVERSITY OF IOWA: VISVALDAS KAIRYS, HUI LI
     NATIONAL INST. OF STANDARDS AND TECHNOLOGY: WALT STEVENS, DAVID GARMER
     UNIVERSITY OF PISA: BENEDETTA MENNUCCI, JACOPO TOMASI
     UNIVERSITY OF MEMPHIS: HENRY KURTZ, PRAKASHAN KORAMBATH
     UNIVERSITY OF ALBERTA: TOBY ZENG, MARIUSZ KLOBUKOWSKI
     UNIVERSITY OF NEW ENGLAND: MARK SPACKMAN
     MIE UNIVERSITY: HIROAKI UMEDA
     NAT. INST. OF ADVANCED INDUSTRIAL SCIENCE AND TECHNOLOGY: KAZUO KITAURA
     MICHIGAN STATE UNIVERSITY:
          KAROL KOWALSKI, MARTA WLOCH, JEFFREY GOUR, JESSE LUTZ,
          WEI LI, JUN SHEN, J. EMILIANO DEUSTUA, PIOTR PIECUCH
     UNIVERSITY OF MINNESOTA:
          ANDREW SAND, PRACHI SHARMA, YINAN SHU
     UNIVERSITY OF SILESIA: MONIKA MUSIAL, STANISLAW KUCHARSKI
     FACULTES UNIVERSITAIRES NOTRE-DAME DE LA PAIX:
          OLIVIER QUINET, BENOIT CHAMPAGNE
     UNIVERSITY OF CALIFORNIA - SANTA BARBARA: BERNARD KIRTMAN
     INSTITUTE FOR MOLECULAR SCIENCE:
          KAZUYA ISHIMURA, MICHIO KATOUDA, AND SHIGERU NAGASE
     UNIVERSITY OF NOTRE DAME: ANNA POMOGAEVA, DAN CHIPMAN
     KYUSHU UNIVERSITY:
          HARUYUKI NAKANO,
          FENG LONG GU, JACEK KORCHOWIEC, MARCIN MAKOWSKI, AND YURIKO AOKI,
          HIROTOSHI MORI AND EISAKU MIYOSHI
     PENNSYLVANIA STATE UNIVERSITY:
          TZVETELIN IORDANOV, CHET SWALINA, JONATHAN SKONE,
          SHARON HAMMES-SCHIFFER
     WASEDA UNIVERSITY:
          MASATO KOBAYASHI, TOMOKO AKAMA, TSUGUKI TOUMA,
          TAKESHI YOSHIKAWA, YASUHIRO IKABATA, JUNJI SEINO,
          YUYA NAKAJIMA, HIROMI NAKAI
     NANJING UNIVERSITY: SHUHUA LI
     UNIVERSITY OF NEBRASKA:
          PEIFENG SU, DEJUN SI, NANDUN THELLAMUREGE, YALI WANG, HUI LI
     UNIVERSITY OF ZURICH: ROBERTO PEVERATI, KIM BALDRIDGE
     N. COPERNICUS UNIVERSITY AND JACKSON STATE UNIVERSITY:
          MARIA BARYSZ
     UNIVERSITY OF COPENHAGEN: Jimmy Kromann, CASPER STEINMANN
     TOKYO INSTITUTE OF TECHNOLOGY: HIROYA NAKATA
     NAGOYA UNIVERSITY: YOSHIO NISHIMOTO, STEPHAN IRLE
     MOSCOW STATE UNIVERSITY: VLADIMIR MIRONOV
     A.N.NESMEYANOV INSTITUTE OF ORGANOELEMENT COMPOUNDS OF RUSSIAN ACADEMY OF SCIENCES:
          IGOR S. GERASIMOV
     JOHANNES KEPLER UNIVERSITY LINZ:
          CHRISTIAN FRIEDL


 PARALLEL VERSION RUNNING ON        6 PROCESSORS IN        1 NODES.

 EXECUTION OF GAMESS BEGUN Sat May 16 22:18:36 2020

            ECHO OF THE FIRST FEW INPUT CARDS -
 INPUT CARD> $BASIS GBASIS=N21 NGAUSS=3 $END                                                
 INPUT CARD> $CONTRL SCFTYP=UHF MAXIT=60 MULT=2 ICHARG=-1 $END                              
 INPUT CARD> $SYSTEM MEMDDI=1000 MWORDS=30 $END                                             
 INPUT CARD> $SCF DIRSCF=.TRUE. $END                                                        
 INPUT CARD> $STATPT OPTTOL=0.0001 NSTEP=999 $END                                           
 INPUT CARD> $DATA                                                                          
 INPUT CARD>                                                                                
 INPUT CARD>C1                                                                              
 INPUT CARD>B 5.0000000 -4.6657129675 -1.4293907785 -0.0536036489                           
 INPUT CARD>O 8.0000000 -3.3559538541 -1.3932956678 -0.5116796890                           
 INPUT CARD>H 1.0000000 -3.0068163818 -0.4850776627 -0.6811405866                           
 INPUT CARD>O 8.0000000 -5.3691479064 -0.2470703360 0.1306190367                            
 INPUT CARD>H 1.0000000 -6.2921473904 -0.3678330352 0.4607116107                            
 INPUT CARD>O 8.0000000 -5.2719516283 -2.6475904431 0.2200820461                            
 INPUT CARD>H 1.0000000 -4.6973298715 -3.4351520768 0.0618012309                            
 INPUT CARD> $END                                                                           
   30000000 WORDS OF MEMORY AVAILABLE

     BASIS OPTIONS
     -------------
     GBASIS=N21          IGAUSS=       3      POLAR=NONE    
     NDFUNC=       0     NFFUNC=       0     DIFFSP=       F
     NPFUNC=       0      DIFFS=       F     BASNAM=        


     RUN TITLE
     ---------
                                                                                 

 THE POINT GROUP OF THE MOLECULE IS C1      
 THE ORDER OF THE PRINCIPAL AXIS IS     0

 ATOM      ATOMIC                      COORDINATES (BOHR)
           CHARGE         X                   Y                   Z
 B           5.0    -8.8169190459       -2.7011569007       -0.1012962084
 O           8.0    -6.3418332117       -2.6329470320       -0.9669344057
 H           1.0    -5.6820590570       -0.9166638653       -1.2871690678
 O           8.0   -10.1462183306       -0.4668952347        0.2468341881
 H           1.0   -11.8904344422       -0.6951036458        0.8706187036
 O           8.0    -9.9625439980       -5.0032204652        0.4158947619
 H           1.0    -8.8766663311       -6.4914961513        0.1167873921

          INTERNUCLEAR DISTANCES (ANGS.)
          ------------------------------

                1 B          2 O          3 H          4 O          5 H     

   1 B       0.0000000    1.3880221 *  2.0093451 *  1.3880347 *  2.0091575 *
   2 O       1.3880221 *  0.0000000    0.9876608 *  2.4040238 *  3.2585811  
   3 H       2.0093451 *  0.9876608 *  0.0000000    2.5092253 *  3.4800823  
   4 O       1.3880347 *  2.4040238 *  2.5092253 *  0.0000000    0.9876603 *
   5 H       2.0091575 *  3.2585811    3.4800823    0.9876603 *  0.0000000  
   6 O       1.3879624 *  2.4041169 *  3.2587577    2.4041521 *  2.5091823 *
   7 H       2.0093273 *  2.5094516 *  3.4803358    3.2588250    3.4800889  

                6 O          7 H     

   1 B       1.3879624 *  2.0093273 *
   2 O       2.4041169 *  2.5094516 *
   3 H       3.2587577    3.4803358  
   4 O       2.4041521 *  3.2588250  
   5 H       2.5091823 *  3.4800889  
   6 O       0.0000000    0.9876722 *
   7 H       0.9876722 *  0.0000000  

  * ... LESS THAN  3.000


     ATOMIC BASIS SET
     ----------------
 THE CONTRACTED PRIMITIVE FUNCTIONS HAVE BEEN UNNORMALIZED
 THE CONTRACTED BASIS FUNCTIONS ARE NOW NORMALIZED TO UNITY

  SHELL TYPE  PRIMITIVE        EXPONENT          CONTRACTION COEFFICIENT(S)

 B         

      1   S       1           116.4340000    0.062960465890
      1   S       2            17.4314000    0.363303803175
      1   S       3             3.6801600    0.697254622252

      2   L       4             2.2818700   -0.368663477319    0.231151902315
      2   L       5             0.4652480    1.199444806451    0.866763633704

      3   L       6             0.1243280    1.000000000000    1.000000000000

 O         

      4   S       7           322.0370000    0.059239393389
      4   S       8            48.4308000    0.351499960776
      4   S       9            10.4206000    0.707657921031

      5   L      10             7.4029400   -0.404453583190    0.244586106967
      5   L      11             1.5762000    1.221561761397    0.853955373466

      6   L      12             0.3736840    1.000000000000    1.000000000000

 H         

      7   S      13             5.4471780    0.156284978695
      7   S      14             0.8245472    0.904690876670

      8   S      15             0.1831916    1.000000000000

 O         

      9   S      16           322.0370000    0.059239393389
      9   S      17            48.4308000    0.351499960776
      9   S      18            10.4206000    0.707657921031

     10   L      19             7.4029400   -0.404453583190    0.244586106967
     10   L      20             1.5762000    1.221561761397    0.853955373466

     11   L      21             0.3736840    1.000000000000    1.000000000000

 H         

     12   S      22             5.4471780    0.156284978695
     12   S      23             0.8245472    0.904690876670

     13   S      24             0.1831916    1.000000000000

 O         

     14   S      25           322.0370000    0.059239393389
     14   S      26            48.4308000    0.351499960776
     14   S      27            10.4206000    0.707657921031

     15   L      28             7.4029400   -0.404453583190    0.244586106967
     15   L      29             1.5762000    1.221561761397    0.853955373466

     16   L      30             0.3736840    1.000000000000    1.000000000000

 H         

     17   S      31             5.4471780    0.156284978695
     17   S      32             0.8245472    0.904690876670

     18   S      33             0.1831916    1.000000000000

 TOTAL NUMBER OF BASIS SET SHELLS             =   18
 NUMBER OF CARTESIAN GAUSSIAN BASIS FUNCTIONS =   42
 NUMBER OF ELECTRONS                          =   33
 CHARGE OF MOLECULE                           =   -1
 SPIN MULTIPLICITY                            =    2
 NUMBER OF OCCUPIED ORBITALS (ALPHA)          =   17
 NUMBER OF OCCUPIED ORBITALS (BETA )          =   16
 TOTAL NUMBER OF ATOMS                        =    7
 THE NUCLEAR REPULSION ENERGY IS      114.2361671989

     $CONTRL OPTIONS
     ---------------
 SCFTYP=UHF          RUNTYP=ENERGY       EXETYP=RUN     
 MPLEVL=       0     CITYP =NONE         CCTYP =NONE         VBTYP =NONE    
 DFTTYP=NONE         TDDFT =NONE    
 MULT  =       2     ICHARG=      -1     NZVAR =       0     COORD =UNIQUE  
 PP    =NONE         RELWFN=NONE         LOCAL =NONE         NUMGRD=       F
 ISPHER=      -1     NOSYM =       0     MAXIT =      60     UNITS =ANGS    
 PLTORB=       F     MOLPLT=       F     AIMPAC=       F     FRIEND=        
 NPRINT=       7     IREST =       0     GEOM  =INPUT   
 NORMF =       0     NORMP =       0     ITOL  =      20     ICUT  =       9
 INTTYP=BEST         GRDTYP=BEST         QMTTOL= 1.0E-06

     $SYSTEM OPTIONS
     ---------------
  REPLICATED MEMORY=    30000000 WORDS (ON EVERY NODE).
 DISTRIBUTED MEMDDI=        1000 MILLION WORDS IN AGGREGATE,
 MEMDDI DISTRIBUTED OVER   6 PROCESSORS IS   166666666 WORDS/PROCESSOR.
 TOTAL MEMORY REQUESTED ON EACH PROCESSOR=   196666666 WORDS.
 TIMLIM=      525600.00 MINUTES, OR     365.0 DAYS.
 PARALL= T  BALTYP=  DLB     KDIAG=    0  COREFL= F
 MXSEQ2=     300 MXSEQ3=     150  mem10=         0

          ----------------
          PROPERTIES INPUT
          ----------------

     MOMENTS            FIELD           POTENTIAL          DENSITY
 IEMOM =       1   IEFLD =       0   IEPOT =       0   IEDEN =       0
 WHERE =COMASS     WHERE =NUCLEI     WHERE =NUCLEI     WHERE =NUCLEI  
 OUTPUT=BOTH       OUTPUT=BOTH       OUTPUT=BOTH       OUTPUT=BOTH    
 IEMINT=       0   IEFINT=       0                     IEDINT=       0
                                                       MORB  =       0
          EXTRAPOLATION IN EFFECT
          SOSCF IN EFFECT
          DIIS or SOSCF will be reset if energy rises
 ORBITAL PRINTING OPTION: NPREO=     1    42     2     1

     -------------------------------
     INTEGRAL TRANSFORMATION OPTIONS
     -------------------------------
     NWORD  =            0
     CUTOFF = 1.0E-09     MPTRAN =       0
     DIRTRF =       T     AOINTS =DUP     

          ----------------------
          INTEGRAL INPUT OPTIONS
          ----------------------
 NOPK  =       1 NORDER=       0 SCHWRZ=       T

     ------------------------------------------
     THE POINT GROUP IS C1 , NAXIS= 0, ORDER= 1
     ------------------------------------------

     DIMENSIONS OF THE SYMMETRY SUBSPACES ARE
 A   =   42

 ..... DONE SETTING UP THE RUN .....
 CPU     0: STEP CPU TIME=     0.02 TOTAL CPU TIME=          0.0 (      0.0 MIN)
 TOTAL WALL CLOCK TIME=          0.0 SECONDS, CPU UTILIZATION IS    66.67%

          ********************
          1 ELECTRON INTEGRALS
          ********************
 ...... END OF ONE-ELECTRON INTEGRALS ......
 CPU     0: STEP CPU TIME=     0.01 TOTAL CPU TIME=          0.0 (      0.0 MIN)
 TOTAL WALL CLOCK TIME=          0.0 SECONDS, CPU UTILIZATION IS    75.00%

          -------------
          GUESS OPTIONS
          -------------
          GUESS =HUCKEL            NORB  =       0          NORDER=       0
          MIX   =       F          PRTMO =       F          PUNMO =       F
          TOLZ  = 1.0E-08          TOLE  = 1.0E-05
          SYMDEN=       F          PURIFY=       F

 INITIAL GUESS ORBITALS GENERATED BY HUCKEL   ROUTINE.
 HUCKEL GUESS REQUIRES     20196 WORDS.

 SYMMETRIES FOR INITIAL GUESS ORBITALS FOLLOW.  ALPHA SET(S).
    17 ORBITALS ARE OCCUPIED (    4 CORE ORBITALS).
     5=A        6=A        7=A        8=A        9=A       10=A       11=A   
    12=A       13=A       14=A       15=A       16=A       17=A       18=A   
    19=A       20=A       21=A       22=A       23=A       24=A       25=A   
    26=A       27=A   

 SYMMETRIES FOR INITIAL GUESS ORBITALS FOLLOW.   BETA SET(S).
    16 ORBITALS ARE OCCUPIED (    4 CORE ORBITALS).
     5=A        6=A        7=A        8=A        9=A       10=A       11=A   
    12=A       13=A       14=A       15=A       16=A       17=A       18=A   
    19=A       20=A       21=A       22=A       23=A       24=A       25=A   
    26=A   
 ...... END OF INITIAL ORBITAL SELECTION ......
 CPU     0: STEP CPU TIME=     0.03 TOTAL CPU TIME=          0.1 (      0.0 MIN)
 TOTAL WALL CLOCK TIME=          0.1 SECONDS, CPU UTILIZATION IS    85.71%

                    ----------------------
                    AO INTEGRAL TECHNOLOGY
                    ----------------------
     S,P,L SHELL ROTATED AXIS INTEGRALS, REPROGRAMMED BY
        KAZUYA ISHIMURA (IMS) AND JOSE SIERRA (SYNSTAR).
     S,P,D,L SHELL ROTATED AXIS INTEGRALS PROGRAMMED BY
        KAZUYA ISHIMURA (INSTITUTE FOR MOLECULAR SCIENCE).
     S,P,D,F,G SHELL TO TOTAL QUARTET ANGULAR MOMENTUM SUM 5,
        ERIC PROGRAM BY GRAHAM FLETCHER (ELORET AND NASA ADVANCED
        SUPERCOMPUTING DIVISION, AMES RESEARCH CENTER).
     S,P,D,F,G,L SHELL GENERAL RYS QUADRATURE PROGRAMMED BY
        MICHEL DUPUIS (PACIFIC NORTHWEST NATIONAL LABORATORY).

          --------------------
          2 ELECTRON INTEGRALS
          --------------------

 DIRECT SCF METHOD SKIPS INTEGRAL STORAGE ON DISK.
 DIRECT TRANSFORMATION SKIPS AO INTEGRAL STORAGE ON DISK.
  ...... END OF TWO-ELECTRON INTEGRALS .....
 CPU     0: STEP CPU TIME=     0.01 TOTAL CPU TIME=          0.1 (      0.0 MIN)
 TOTAL WALL CLOCK TIME=          0.1 SECONDS, CPU UTILIZATION IS    87.50%

          ---------------------------
                  UHF SCF CALCULATION
          ---------------------------

     NUCLEAR ENERGY =       114.2361671989
     MAXIT = 60     NPUNCH=  2     MULT=  2
     EXTRAP=T  DAMP=F  SHIFT=F  RSTRCT=F  DIIS=F  SOSCF=T
     DENSITY MATRIX CONV=  2.00E-05
     SOSCF WILL OPTIMIZE     425 ALPHA AND     416 BETA ROTATION ANGLES.
     SOGTOL= 2.500E-01
     MEMORY REQUIRED FOR UHF/ROHF ITERS=     68897 WORDS.

 DIRECT SCF CALCULATION, SCHWRZ=T   FDIFF=T
 SCHWARZ INEQUALITY OVERHEAD:       900 INTEGRALS, T=        0.00

                                                                                NONZERO     BLOCKS
 ITER EX      TOTAL ENERGY        E CHANGE  DENSITY CHANGE    ORB. GRAD       INTEGRALS    SKIPPED
   1  0     -248.8053341654  -248.8053341654   0.562783890   0.000000000         359927       2939
          ---------------START SECOND ORDER SCF---------------
   2  1     -249.5307386040    -0.7254044386   0.134443606   0.055819688         359566       3027
   3  2     -249.5648840310    -0.0341454270   0.054256344   0.013085558         356338       3514
   4  3     -249.5682171268    -0.0033330959   0.009059062   0.002912866         354685       3682
   5  4     -249.5683528481    -0.0001357213   0.007499738   0.001454040         345674       4142
   6  5     -249.5683854839    -0.0000326357   0.000477985   0.000298011         345308       4159
   7  6     -249.5683863990    -0.0000009151   0.000129916   0.000147674         335246       4617
   8  7     -249.5683865554    -0.0000001564   0.000169343   0.000034209         324995       4955
   9  8     -249.5683865847    -0.0000000293   0.000067548   0.000014594         324114       4981
  10  9     -249.5683865911    -0.0000000064   0.000097674   0.000010693         321813       5086
  11 10     -249.5683865960    -0.0000000049   0.000107165   0.000010958         325351       4975
  12 11     -249.5683865998    -0.0000000038   0.000209767   0.000011338         326663       4932
  13 12     -249.5683866063    -0.0000000064   0.000495818   0.000012564         332256       4753
  14 13     -249.5683866204    -0.0000000142   0.001719294   0.000016126         338013       4550
  15 14     -249.5683866702    -0.0000000498   0.011996564   0.000047884         344372       4322
  16 15     -249.5683871016    -0.0000004314   0.211111051   0.000249653         352967       3900
 NEXT ENERGY RISES: SWITCHING SOSCF OFF FOR  5 ITERS, NEW SOGTOL= 2.25E-04
  17 16     -249.5677585756     0.0006285261   0.013294635   0.008577271         359579       3027
  18 17     -249.5686739094    -0.0009153339   0.010008277   0.005053989         351767       3839
  19 18     -249.5688700587    -0.0001961493   0.007081339   0.002374899         348171       3992
  20  0     -249.5689562592    -0.0000862005   0.032985925   0.001500558         347216       4066
  21  1     -249.5687691293     0.0001871299   0.006308980   0.006649426         354211       3682
  22  2     -249.5690677435    -0.0002986142   0.006854505   0.002286926         349297       3954
  23  3     -249.5691414521    -0.0000737086   0.004803230   0.001463779         346610       4073
  24  0     -249.5691765383    -0.0000350862   0.010271776   0.001458635         345968       4112
  25  1     -249.5692336138    -0.0000570755   0.002405768   0.001434618         350670       3892
  26  2     -249.5692537494    -0.0000201357   0.002404819   0.001478613         345909       4105
  27  3     -249.5692738420    -0.0000200925   0.002508018   0.001500585         346030       4094
  28  0     -249.5692942272    -0.0000203852   0.061864418   0.001520599         346152       4089
  29  1     -249.5683252152     0.0009690120   0.008066073   0.006721787         357771       3291
  30  2     -249.5687678618    -0.0004426466   0.004317349   0.001859827         348996       3926
  31  3     -249.5688346572    -0.0000667953   0.002956138   0.001263130         345863       4107
  32  0     -249.5688621925    -0.0000275353   0.010055535   0.001042393         345180       4183
  33  1     -249.5684472794     0.0004149131   0.009722607   0.005588307         352899       3757
  34  2     -249.5688536208    -0.0004063414   0.005604450   0.001707558         349753       3867
  35  3     -249.5689158368    -0.0000622161   0.003218747   0.001410572         346412       4117
  36  0     -249.5689415455    -0.0000257087   0.007813284   0.001300982         345574       4139
  37  1     -249.5689886764    -0.0000471309   0.002052255   0.001244915         351097       3907
  38  2     -249.5690031548    -0.0000144784   0.002029813   0.001248631         345519       4149
  39  3     -249.5690175591    -0.0000144043   0.002061140   0.001273013         345526       4157
  40  0     -249.5690322029    -0.0000146439   0.003485388   0.001288537         345548       4144
  41  1     -249.5690122553     0.0000199477   0.004073338   0.001897059         346260       4100
  42  2     -249.5690666108    -0.0000543555   0.003118888   0.001398298         346795       4056
  43  3     -249.5690864456    -0.0000198348   0.002377449   0.001418724         345757       4125
  44  0     -249.5691035983    -0.0000171527   0.040027538   0.001393773         345685       4130
  45  1     -249.5693477247    -0.0002441264   0.002606184   0.001839333         356912       3403
  46  2     -249.5694030843    -0.0000553596   0.002562987   0.001482701         345588       4135
  47  3     -249.5694334388    -0.0000303545   0.002618570   0.001531480         345965       4090
  48  0     -249.5694592708    -0.0000258320   0.004361413   0.001596914         346371       4070
  49  1     -249.5694532637     0.0000060071   0.004572542   0.002341170         347137       3986
  50  2     -249.5695176702    -0.0000644065   0.004132994   0.001734869         347641       3992
  51  3     -249.5695469063    -0.0000292362   0.003357811   0.001779881         346601       4055
  52  0     -249.5695734901    -0.0000265837   0.003847818   0.001749523         346855       4048
  53  1     -249.5695992048    -0.0000257147   0.003394208   0.001926781         346791       4049
  54  2     -249.5696292960    -0.0000300912   0.003635992   0.001765985         347012       4040
  55  3     -249.5696568151    -0.0000275191   0.003447490   0.001792249         346806       4049
  56  4     -249.5696845052    -0.0000276902   0.003486463   0.001793283         346859       4047
  57  0     -249.5697125887    -0.0000280835   0.053765748   0.001805342         346859       4047
  58  1     -249.5701510915    -0.0004385028   0.003885737   0.001925757         357186       3388
  59  2     -249.5701873624    -0.0000362708   0.003937750   0.001979450         347142       4036
  60  3     -249.5702225450    -0.0000351827   0.004101704   0.001990738         347224       4035

 SCF IS UNCONVERGED, TOO MANY ITERATIONS
     TIME TO FORM FOCK OPERATORS=       0.3 SECONDS (       0.0 SEC/ITER)
     FOCK TIME ON FIRST ITERATION=       0.0, LAST ITERATION=       0.0
     TIME TO SOLVE SCF EQUATIONS=       0.3 SECONDS (       0.0 SEC/ITER)

 FINAL UHF ENERGY IS        0.0000000000 AFTER  60 ITERATIONS

          --------------------
          SPIN SZ   =    0.500
          S-SQUARED =    0.764
          --------------------

  ----- ALPHA SET ----- 

          ------------
          EIGENVECTORS
          ------------

                      1          2          3          4          5
                  -20.1811   -20.1811   -20.1810    -7.3238    -1.1134
                     A          A          A          A          A   
    1  B  1  S    0.000089   0.000081   0.000072   0.987446  -0.099326
    2  B  1  S    0.002901   0.002653   0.002374   0.094397   0.085137
    3  B  1  X    0.003737  -0.001828  -0.002511   0.000364   0.001776
    4  B  1  Y    0.000469  -0.003688   0.003550   0.000052   0.000206
    5  B  1  Z   -0.001312   0.000839   0.000705   0.001040   0.004837
    6  B  1  S    0.010399   0.009508   0.008510  -0.022175   0.027111
    7  B  1  X    0.010900  -0.007516  -0.004857  -0.000212   0.000995
    8  B  1  Y   -0.001331  -0.009068   0.011769  -0.000032   0.000155
    9  B  1  Z   -0.003662   0.003146   0.001140  -0.000614   0.002922
   10  O  2  S    0.981001  -0.062380  -0.030792   0.000117  -0.130731
   11  O  2  S    0.098184  -0.006144  -0.003003   0.002437   0.120621
   12  O  2  X   -0.001827   0.000196  -0.000160  -0.000289  -0.028910
   13  O  2  Y    0.001834  -0.000606   0.000733   0.000306   0.029883
   14  O  2  Z    0.000899  -0.000058   0.000013   0.000113   0.004756
   15  O  2  S   -0.044982   0.002822   0.001692  -0.006716   0.408542
   16  O  2  X    0.006346  -0.000311   0.000668   0.007617  -0.038085
   17  O  2  Y   -0.002649   0.002604  -0.003572  -0.001064   0.031289
   18  O  2  Z   -0.002232  -0.000037  -0.000065  -0.002579   0.013880
   19  H  3  S    0.002679  -0.001302   0.001262   0.000426   0.056374
   20  H  3  S    0.002807   0.002430  -0.001880   0.002538   0.016272
   21  O  4  S    0.035076   0.067075   0.980548   0.000117  -0.130390
   22  O  4  S    0.003609   0.006791   0.098121   0.002437   0.120309
   23  O  4  X    0.000351  -0.000556  -0.000359  -0.000088  -0.011445
   24  O  4  Y    0.000220  -0.000761  -0.002612  -0.000419  -0.040096
   25  O  4  Z   -0.000118   0.000263   0.000624   0.000082   0.002388
   26  O  4  S   -0.001652  -0.002794  -0.044986  -0.006715   0.407466
   27  O  4  X   -0.002111   0.002443  -0.001228  -0.003036  -0.004809
   28  O  4  Y   -0.000858   0.003046   0.006983   0.007489  -0.050469
   29  O  4  Z    0.000751  -0.001040  -0.000098   0.000687   0.006613
   30  H  5  S   -0.001044   0.001522   0.002657   0.000428   0.056193
   31  H  5  S    0.002715  -0.001590   0.002724   0.002540   0.016218
   32  O  6  S    0.060128   0.979190  -0.069101   0.000117  -0.130554
   33  O  6  S    0.006105   0.097995  -0.006826   0.002436   0.120460
   34  O  6  X    0.000860   0.002462  -0.000690   0.000403   0.036906
   35  O  6  Y   -0.000133   0.000876   0.000138   0.000117   0.009757
   36  O  6  Z   -0.000264  -0.000540   0.000209  -0.000118  -0.017042
   37  O  6  S   -0.002481  -0.044929   0.003103  -0.006715   0.407973
   38  O  6  X   -0.003522  -0.004970   0.002644  -0.004562   0.045051
   39  O  6  Y    0.000659  -0.004606  -0.001128  -0.006422   0.019568
   40  O  6  Z    0.001160   0.001802  -0.000872   0.001934  -0.014378
   41  H  7  S    0.001384   0.002540  -0.001449   0.000426   0.056281
   42  H  7  S   -0.001341   0.002980   0.002575   0.002538   0.016260

                      6          7          8          9         10
                   -1.0620    -1.0619    -0.4915    -0.4373    -0.4373
                     A          A          A          A          A   
    1  B  1  S    0.000078  -0.000075  -0.152735  -0.000117  -0.000180
    2  B  1  S   -0.000069   0.000066   0.174247   0.000145   0.000201
    3  B  1  X    0.082848  -0.037389   0.000530  -0.193118  -0.037349
    4  B  1  Y    0.038071   0.088294  -0.000127  -0.036111   0.204827
    5  B  1  Z   -0.030827   0.008493   0.000927   0.068987   0.002338
    6  B  1  S   -0.000024   0.000032   0.209888   0.000196   0.000344
    7  B  1  X   -0.016372   0.012705  -0.002217  -0.083283  -0.029423
    8  B  1  Y   -0.013145  -0.017536  -0.000338  -0.029608   0.088659
    9  B  1  Z    0.006384  -0.003523  -0.006564   0.030439   0.005569
   10  O  2  S   -0.181843   0.064592   0.016657   0.009636   0.035274
   11  O  2  S    0.171087  -0.059301  -0.018882  -0.010093  -0.032138
   12  O  2  X   -0.022290   0.008720  -0.183999   0.191980   0.023998
   13  O  2  Y    0.050647  -0.007718  -0.092462   0.160190   0.174604
   14  O  2  Z   -0.001963  -0.000459   0.085743  -0.097641  -0.030922
   15  O  2  S    0.569766  -0.208949  -0.055323  -0.032547  -0.148907
   16  O  2  X   -0.023700   0.006928  -0.190618   0.179676   0.011449
   17  O  2  Y    0.052242  -0.006513  -0.081834   0.163434   0.170387
   18  O  2  Z    0.009138  -0.003593   0.087336  -0.095220  -0.027548
   19  H  3  S    0.088122  -0.028298  -0.118782   0.151865   0.098013
   20  H  3  S    0.031166  -0.001406  -0.109885   0.160882   0.098058
   21  O  4  S    0.035032  -0.190000   0.016721   0.025713  -0.025901
   22  O  4  S   -0.034237   0.178036  -0.018952  -0.022768   0.024720
   23  O  4  X    0.014267  -0.030584   0.178289  -0.019792   0.290304
   24  O  4  Y    0.011991  -0.043359  -0.127061  -0.103134  -0.059610
   25  O  4  Z   -0.003940   0.005778  -0.039004   0.011597  -0.072380
   26  O  4  S   -0.104077   0.598587  -0.055571  -0.112593   0.102313
   27  O  4  X    0.013512  -0.025368   0.172895  -0.013134   0.283159
   28  O  4  Y    0.015420  -0.046445  -0.138259  -0.104833  -0.044229
   29  O  4  Z   -0.006002   0.015272  -0.036702   0.009150  -0.068577
   30  H  5  S   -0.019569   0.090524  -0.118364   0.008933  -0.180693
   31  H  5  S   -0.014373   0.027719  -0.109547   0.004482  -0.188694
   32  O  6  S    0.147075   0.125113   0.016719  -0.035295  -0.009279
   33  O  6  S   -0.137102  -0.118453  -0.018952   0.032805   0.007315
   34  O  6  X   -0.033089  -0.037881   0.020842  -0.122927  -0.038030
   35  O  6  Y    0.001257   0.008704   0.221816   0.234594  -0.171972
   36  O  6  Z    0.016814   0.017740  -0.001997   0.053358   0.009526
   37  O  6  S   -0.466500  -0.388726  -0.055544   0.144936   0.046223
   38  O  6  X   -0.036110  -0.043664   0.032702  -0.128667  -0.032222
   39  O  6  Y   -0.001141   0.005161   0.222354   0.218594  -0.170759
   40  O  6  Z    0.009413   0.012520  -0.006303   0.058103   0.006581
   41  H  7  S   -0.068643  -0.062120  -0.118591  -0.160992   0.082378
   42  H  7  S   -0.016836  -0.026284  -0.109729  -0.165638   0.090232

                     11         12         13         14         15
                   -0.3329    -0.2794    -0.2793    -0.2694    -0.2373
                     A          A          A          A          A   
    1  B  1  S    0.011563   0.000174  -0.000023  -0.051546  -0.000056
    2  B  1  S   -0.021006  -0.000190   0.000003   0.062059   0.000074
    3  B  1  X    0.061450  -0.161011  -0.019520   0.010537   0.018060
    4  B  1  Y    0.009414   0.023704  -0.169848   0.001829   0.005240
    5  B  1  Z    0.177060   0.054588   0.015789   0.032468  -0.006685
    6  B  1  S   -0.004025   0.000143   0.000028  -0.009134   0.000021
    7  B  1  X    0.067797   0.055722   0.108836   0.011067   0.003229
    8  B  1  Y    0.010003  -0.115854   0.057059   0.001005   0.020788
    9  B  1  Z    0.195017  -0.013720  -0.040563   0.031261  -0.002337
   10  O  2  S   -0.003518  -0.032922   0.025588   0.043967   0.008895
   11  O  2  S   -0.000034   0.034064  -0.011772  -0.042517  -0.014310
   12  O  2  X    0.103212   0.297755   0.082410  -0.106221   0.088227
   13  O  2  Y   -0.015765  -0.222995   0.067884   0.237261   0.049719
   14  O  2  Z    0.235732  -0.014225  -0.037578   0.048094   0.381844
   15  O  2  S    0.014921   0.122772  -0.169112  -0.187576  -0.044479
   16  O  2  X    0.112249   0.354302   0.102324  -0.145606   0.104953
   17  O  2  Y   -0.016821  -0.256536   0.063702   0.270041   0.059462
   18  O  2  Z    0.251707  -0.019198  -0.045759   0.062576   0.474843
   19  H  3  S   -0.004031  -0.036818   0.075878   0.099146   0.018105
   20  H  3  S    0.010726  -0.013379   0.064702   0.080049   0.047078
   21  O  4  S   -0.003367  -0.005959  -0.041147   0.044167   0.003467
   22  O  4  S   -0.000167  -0.006574   0.035217  -0.042773  -0.000291
   23  O  4  X    0.097422   0.053389   0.109734  -0.127618  -0.041928
   24  O  4  Y    0.043034  -0.218680   0.292685  -0.220129   0.009843
   25  O  4  Z    0.233932  -0.042336   0.017053   0.079975  -0.067246
   26  O  4  S    0.014226   0.086169   0.190221  -0.188151  -0.023170
   27  O  4  X    0.103331   0.057384   0.117789  -0.132833  -0.052398
   28  O  4  Y    0.047639  -0.268810   0.338681  -0.273168   0.012885
   29  O  4  Z    0.250561  -0.046499   0.023811   0.087176  -0.083349
   30  H  5  S   -0.003870  -0.048012  -0.069396   0.099281   0.008886
   31  H  5  S    0.010728  -0.050097  -0.043603   0.080197   0.004761
   32  O  6  S   -0.003473   0.038333   0.015627   0.044332  -0.012240
   33  O  6  S   -0.000061  -0.026951  -0.023539  -0.042833   0.014495
   34  O  6  X    0.051027   0.157058   0.247827   0.258044  -0.144000
   35  O  6  Y    0.009473  -0.031984   0.169072  -0.016235  -0.015237
   36  O  6  Z    0.252204  -0.096845  -0.159007  -0.064851  -0.283133
   37  O  6  S    0.014658  -0.206599  -0.021414  -0.189371   0.067163
   38  O  6  X    0.053732   0.169614   0.297419   0.305368  -0.178464
   39  O  6  Y    0.008495  -0.031493   0.203209   0.003989  -0.023207
   40  O  6  Z    0.270298  -0.108980  -0.188410  -0.079729  -0.350437
   41  H  7  S   -0.003896   0.083471  -0.006316   0.099802  -0.026665
   42  H  7  S    0.010755   0.062272  -0.020916   0.080683  -0.051851

                     16         17         18         19         20
                   -0.2372     0.2188     0.4748     0.4893     0.4894
                     A          A          A          A          A   
    1  B  1  S    0.000015   0.053994  -0.040988   0.000084   0.000094
    2  B  1  S   -0.000021   0.021042  -0.020255   0.000066   0.000045
    3  B  1  X   -0.005501   0.107400   0.083291  -0.070390   0.086647
    4  B  1  Y    0.019244   0.015608   0.011648  -0.090802  -0.075804
    5  B  1  Z    0.001046   0.307981   0.238448   0.028475  -0.027597
    6  B  1  S   -0.000013  -0.476403   0.285752  -0.000670  -0.000442
    7  B  1  X   -0.019188   0.186969   0.194607  -0.178889  -0.002324
    8  B  1  Y    0.003572   0.027144   0.027748   0.004441  -0.188990
    9  B  1  Z    0.006655   0.537715   0.561173   0.060283   0.006921
   10  O  2  S   -0.009067  -0.051246   0.049191  -0.014559   0.070226
   11  O  2  S    0.008566   0.028293  -0.020940  -0.002072  -0.022503
   12  O  2  X   -0.043588  -0.065047  -0.044973  -0.028523  -0.085416
   13  O  2  Y   -0.033519   0.063475  -0.090379   0.076942  -0.170908
   14  O  2  Z   -0.128767  -0.126093  -0.122870   0.009661   0.024053
   15  O  2  S    0.051959   0.427776  -0.419875   0.184612  -0.666781
   16  O  2  X   -0.052312  -0.108859  -0.090774  -0.044827  -0.193600
   17  O  2  Y   -0.040300   0.142817  -0.211602   0.105062  -0.419626
   18  O  2  Z   -0.160078  -0.212397  -0.209805   0.016336   0.058464
   19  H  3  S   -0.020483  -0.038917   0.020833   0.033961   0.063940
   20  H  3  S   -0.032641  -0.399746   0.496017  -0.149017   1.120017
   21  O  4  S    0.012202  -0.051475   0.048540  -0.053801  -0.047827
   22  O  4  S   -0.016675   0.028406  -0.020704   0.020634   0.009489
   23  O  4  X    0.121112  -0.092754   0.022832  -0.129534  -0.128379
   24  O  4  Y   -0.031526  -0.059041   0.033530   0.025204  -0.059606
   25  O  4  Z    0.392083  -0.109838  -0.153132   0.056461   0.059553
   26  O  4  S   -0.064331   0.429721  -0.413922   0.487417   0.494258
   27  O  4  X    0.154375  -0.185107   0.087988  -0.340440  -0.265532
   28  O  4  Y   -0.042170  -0.116680   0.073801   0.017829  -0.097415
   29  O  4  Z    0.484435  -0.171782  -0.287442   0.144895   0.120700
   30  H  5  S    0.025852  -0.039446   0.019989  -0.072461  -0.002608
   31  H  5  S    0.057377  -0.402716   0.486050  -0.898280  -0.690385
   32  O  6  S   -0.003151  -0.051366   0.048986   0.068040  -0.022795
   33  O  6  S    0.008109   0.028379  -0.020798  -0.018418   0.013167
   34  O  6  X   -0.115613   0.022188  -0.112931  -0.130011  -0.014644
   35  O  6  Y   -0.038116  -0.024856   0.036377   0.145625  -0.070239
   36  O  6  Z   -0.244424  -0.151695  -0.106015   0.022821   0.014496
   37  O  6  S    0.012432   0.428614  -0.418449  -0.669319   0.175945
   38  O  6  X   -0.143769   0.067544  -0.235752  -0.283026   0.037667
   39  O  6  Y   -0.050612  -0.060502   0.101020   0.336747  -0.182589
   40  O  6  Z   -0.302672  -0.262880  -0.176030   0.050364   0.009441
   41  H  7  S   -0.005401  -0.039374   0.020101   0.038387  -0.061500
   42  H  7  S   -0.024645  -0.401738   0.491844   1.044228  -0.434245

                     21         22         23         24         25
                    0.6411     0.7384     0.7384     0.8792     1.1394
                     A          A          A          A          A   
    1  B  1  S   -0.133567  -0.000039   0.000032  -0.011663  -0.000026
    2  B  1  S   -0.213787  -0.000014  -0.000036   0.038970   0.000298
    3  B  1  X   -0.006289  -0.091624  -0.039723   0.363500   1.112495
    4  B  1  Y   -0.000919  -0.040262   0.097472   0.053765  -0.631948
    5  B  1  Z   -0.018135   0.034129   0.008388   1.043821  -0.355024
    6  B  1  S    2.120885   0.000484  -0.000438   0.082075  -0.000120
    7  B  1  X    0.038105  -0.982681   1.661383  -0.345117  -0.574017
    8  B  1  Y    0.005468   1.773992   1.009664  -0.050529   0.551898
    9  B  1  Z    0.107930   0.251238  -0.630032  -0.995130   0.171567
   10  O  2  S    0.038504  -0.052049   0.044412   0.004931   0.031743
   11  O  2  S   -0.017775   0.023485  -0.002226  -0.002397  -0.045485
   12  O  2  X    0.134200  -0.008992   0.079619   0.012160   0.211385
   13  O  2  Y    0.072151  -0.136219   0.004510  -0.000300   0.024392
   14  O  2  Z   -0.064019   0.012968  -0.034042  -0.002593  -0.070160
   15  O  2  S   -0.350887   0.529097  -0.609467  -0.037963  -0.036639
   16  O  2  X    0.409018  -0.132343   0.305513   0.056448   0.376715
   17  O  2  Y    0.217849  -0.395236   0.055559   0.003538  -0.004208
   18  O  2  Z   -0.184469   0.064991  -0.114325   0.073801  -0.133058
   19  H  3  S   -0.014359  -0.080824  -0.062243  -0.002145   0.053199
   20  H  3  S   -0.599333   0.142559  -0.708058  -0.000886  -0.128044
   21  O  4  S    0.038475   0.064500   0.022888   0.004966  -0.029182
   22  O  4  S   -0.017766  -0.013669  -0.019206  -0.002442   0.047561
   23  O  4  X   -0.134940  -0.100179  -0.078076  -0.004995   0.058430
   24  O  4  Y    0.090865   0.033839  -0.085670   0.010811  -0.182694
   25  O  4  Z    0.029063   0.026729   0.031803   0.002794  -0.015050
   26  O  4  S   -0.350534  -0.792461  -0.153819  -0.038168   0.058635
   27  O  4  X   -0.404159  -0.373263  -0.236150   0.015833   0.198086
   28  O  4  Y    0.275544   0.184700  -0.188437   0.029528  -0.322936
   29  O  4  Z    0.096711   0.117773   0.095065   0.086592  -0.049060
   30  H  5  S   -0.014377  -0.013472   0.101030  -0.002279   0.170781
   31  H  5  S   -0.599097  -0.684916   0.231023   0.001274  -0.293295
   32  O  6  S    0.038487  -0.012423  -0.067310   0.004888  -0.002541
   33  O  6  S   -0.017769  -0.009818   0.021452  -0.002394  -0.002107
   34  O  6  X   -0.011788   0.085403  -0.073051  -0.005549  -0.036933
   35  O  6  Y   -0.164807   0.027323   0.107475  -0.010161   0.061343
   36  O  6  Z   -0.000745  -0.027632   0.025374   0.004066   0.009045
   37  O  6  S   -0.350691   0.263103   0.763293  -0.037374  -0.022033
   38  O  6  X   -0.033102   0.220673  -0.172879   0.014924   0.022846
   39  O  6  Y   -0.497425   0.106465   0.436008  -0.019797   0.006049
   40  O  6  Z    0.006955  -0.077991   0.038668   0.089434  -0.009612
   41  H  7  S   -0.014405   0.094315  -0.038870  -0.002302  -0.223919
   42  H  7  S   -0.599042   0.541859   0.477710   0.000820   0.421276

                     26         27         28         29         30
                    1.1394     1.2501     1.5163     1.5164     1.5189
                     A          A          A          A          A   
    1  B  1  S   -0.000020  -0.105673  -0.000392   0.000598  -0.024441
    2  B  1  S    0.000307   1.710485  -0.004841   0.007646  -0.287223
    3  B  1  X    0.578921  -0.008203  -0.017640  -0.295363  -0.002816
    4  B  1  Y    1.166091  -0.001256   0.312551  -0.013232  -0.004622
    5  B  1  Z   -0.261528  -0.022822  -0.009916   0.103290   0.015250
    6  B  1  S   -0.000297  -1.241558   0.007943  -0.012455   0.482055
    7  B  1  X   -0.511930   0.014564   0.041970  -0.402280  -0.007015
    8  B  1  Y   -0.597479   0.002045   0.424951   0.051735  -0.005100
    9  B  1  Z    0.209356   0.040450  -0.036622   0.137425   0.015056
   10  O  2  S    0.015388   0.027443   0.029709  -0.034514   0.019562
   11  O  2  S   -0.028690  -0.052838  -0.054227   0.059229  -0.031912
   12  O  2  X    0.085587   0.168837   0.016968  -0.034689  -0.003471
   13  O  2  Y   -0.059157  -0.035286  -0.277214   0.030921  -0.205519
   14  O  2  Z   -0.024820  -0.056283   0.023068   0.008993   0.014989
   15  O  2  S   -0.046604   0.031660   0.041278   0.226708  -0.013196
   16  O  2  X    0.197423   0.147498  -0.120986  -0.120145  -0.094076
   17  O  2  Y    0.018736  -0.022463  -0.221001   0.020730  -0.090031
   18  O  2  Z   -0.072541  -0.059834   0.033782   0.045222   0.023002
   19  H  3  S   -0.227959   0.055766   1.066118  -0.240579   0.743671
   20  H  3  S    0.412434   0.102661  -0.787377   0.255999  -0.561742
   21  O  4  S    0.019809   0.027426   0.015114   0.041906   0.021723
   22  O  4  S   -0.025062  -0.052828  -0.024300  -0.074852  -0.035791
   23  O  4  X   -0.112201  -0.057690  -0.105105   0.190175   0.181983
   24  O  4  Y    0.103237   0.171676  -0.032845   0.145404   0.103681
   25  O  4  Z    0.036916   0.011824   0.032566  -0.061196  -0.065270
   26  O  4  S   -0.008517   0.031809  -0.217145  -0.076593  -0.016557
   27  O  4  X   -0.106749  -0.062537  -0.156980   0.171959   0.124127
   28  O  4  Y    0.214895   0.148133   0.104449   0.063020  -0.036422
   29  O  4  Z    0.025721   0.004455   0.055592  -0.082436  -0.057395
   30  H  5  S    0.159907   0.055302  -0.322379   1.003563   0.797840
   31  H  5  S   -0.317006   0.103213   0.170187  -0.779657  -0.603707
   32  O  6  S   -0.035195   0.027443  -0.043802  -0.008970   0.021388
   33  O  6  S    0.053723  -0.052833   0.076875   0.018182  -0.035070
   34  O  6  X    0.114339  -0.110672   0.142967   0.181669  -0.167832
   35  O  6  Y    0.200680  -0.136330  -0.047689  -0.124956   0.109520
   36  O  6  Z   -0.055307   0.046126  -0.055210  -0.068590   0.055896
   37  O  6  S    0.055273   0.031796   0.174904  -0.148632  -0.024750
   38  O  6  X    0.202915  -0.094193   0.130495   0.075534  -0.038553
   39  O  6  Y    0.393360  -0.127072  -0.015362  -0.241848   0.122560
   40  O  6  Z   -0.087834   0.029659  -0.031324   0.001814  -0.007976
   41  H  7  S    0.067815   0.055749  -0.706271  -0.821177   0.757890
   42  H  7  S   -0.095209   0.102660   0.588875   0.567735  -0.576367

                     31         32         33         34         35
                    2.0373     2.0374     2.1653     2.2240     2.2240
                     A          A          A          A          A   
    1  B  1  S   -0.000045   0.000010   0.049500  -0.000046   0.000043
    2  B  1  S   -0.000651   0.000152   0.636014  -0.000632   0.000656
    3  B  1  X   -0.004033   0.010207  -0.000596   0.356426  -0.197599
    4  B  1  Y   -0.010594  -0.003888  -0.000283   0.202635   0.380320
    5  B  1  Z    0.001986  -0.003381  -0.003395  -0.134318   0.049356
    6  B  1  S    0.000084  -0.000017   0.388320  -0.000174   0.000409
    7  B  1  X    0.016668   0.019112  -0.001053  -0.185038  -0.624927
    8  B  1  Y   -0.019894   0.017672   0.000609   0.664843  -0.184939
    9  B  1  Z   -0.004611  -0.007698  -0.004489   0.032140   0.228671
   10  O  2  S   -0.002633   0.001762   0.030277   0.027462  -0.035994
   11  O  2  S    0.005139  -0.004938  -0.102393  -0.112728   0.176562
   12  O  2  X    0.266657  -0.065578  -0.524889  -0.585096   0.189320
   13  O  2  Y    0.032933  -0.011574   0.191745   0.492690   0.028449
   14  O  2  Z    0.773386  -0.197716   0.167147   0.190481  -0.067892
   15  O  2  S    0.002276  -0.007753  -0.069245   0.031028   0.107942
   16  O  2  X   -0.248399   0.067835   0.697109   0.722512  -0.352368
   17  O  2  Y   -0.006039   0.006277  -0.192780  -0.669812  -0.101364
   18  O  2  Z   -0.733866   0.185049  -0.225125  -0.226234   0.130802
   19  H  3  S   -0.025162   0.007684   0.119502   0.227431  -0.024079
   20  H  3  S    0.000026  -0.012273  -0.211253  -0.160087   0.337108
   21  O  4  S   -0.000201  -0.003062   0.030201   0.017404   0.041856
   22  O  4  S    0.001687   0.006583  -0.102074  -0.096366  -0.186195
   23  O  4  X   -0.079004   0.274530   0.110112   0.154344  -0.022726
   24  O  4  Y   -0.014739   0.038253  -0.570823   0.250998  -0.754611
   25  O  4  Z   -0.213994   0.764343  -0.015539  -0.068480   0.057184
   26  O  4  S    0.005471   0.005462  -0.069222  -0.109077  -0.027181
   27  O  4  X    0.085408  -0.279567  -0.196907  -0.317975   0.015840
   28  O  4  Y    0.011711  -0.047273   0.728144  -0.257525   0.995101
   29  O  4  Z    0.198751  -0.714934   0.039610   0.121733  -0.065866
   30  H  5  S    0.006237  -0.025326   0.119117  -0.093083   0.209406
   31  H  5  S    0.010188   0.006346  -0.210756  -0.211975  -0.307748
   32  O  6  S    0.002755   0.001323   0.030180  -0.044978  -0.005780
   33  O  6  S   -0.006593  -0.001702  -0.101953   0.209514   0.009332
   34  O  6  X   -0.194143  -0.193441   0.408627  -0.405964  -0.563905
   35  O  6  Y   -0.033818  -0.034205   0.379386  -0.306923  -0.153539
   36  O  6  Z   -0.555789  -0.571982  -0.168378   0.153543   0.198431
   37  O  6  S   -0.007469   0.002197  -0.068984   0.078149  -0.080905
   38  O  6  X    0.168639   0.170079  -0.492081   0.529026   0.735798
   39  O  6  Y    0.037716   0.048277  -0.535478   0.486625   0.088603
   40  O  6  Z    0.530171   0.544503   0.207406  -0.205522  -0.259325
   41  H  7  S    0.018808   0.017891   0.119275  -0.134950  -0.184979
   42  H  7  S   -0.010552   0.005940  -0.210366   0.372555  -0.030061

                     36         37         38         39         40
                    2.2518     2.3938     2.4159     2.4160     3.6533
                     A          A          A          A          A   
    1  B  1  S   -0.002484  -0.024560  -0.000056  -0.000022   0.012628
    2  B  1  S   -0.013525  -0.194390  -0.000315  -0.000200  -0.429027
    3  B  1  X   -0.025100   0.000231   0.187787   0.161392   0.000375
    4  B  1  Y   -0.002496   0.000560  -0.173889   0.195499   0.000369
    5  B  1  Z   -0.075931   0.002140  -0.056035  -0.066250   0.002378
    6  B  1  S   -0.021262  -0.470098  -0.001113  -0.000004  -0.949844
    7  B  1  X   -0.176026   0.006164   0.252436   0.375370   0.000398
    8  B  1  Y   -0.024551   0.002005  -0.401379   0.259830   0.000802
    9  B  1  Z   -0.499279   0.019715  -0.066508  -0.144109   0.004070
   10  O  2  S    0.001636   0.004918   0.000677   0.020310   0.036698
   11  O  2  S   -0.005714  -0.007636  -0.072532  -0.107195  -0.996698
   12  O  2  X   -0.185399   0.217544  -0.505386   0.101855   0.098883
   13  O  2  Y   -0.012309   0.555985  -0.648930  -0.154384  -0.042314
   14  O  2  Z   -0.573948  -0.077163   0.194695  -0.028424  -0.031068
   15  O  2  S    0.002262   0.000005   0.120883  -0.080611   1.338647
   16  O  2  X    0.216614  -0.394082   0.732046   0.013846  -0.325556
   17  O  2  Y    0.002225  -0.767893   0.995129   0.190116   0.135703
   18  O  2  Z    0.692536   0.148224  -0.296464  -0.016449   0.099844
   19  H  3  S    0.019688   0.302263  -0.295351  -0.061599  -0.160471
   20  H  3  S    0.003978   0.164606  -0.378180  -0.146723  -0.068898
   21  O  4  S    0.001702   0.004966  -0.017907  -0.009599   0.036601
   22  O  4  S   -0.006092  -0.008083   0.129051  -0.009070  -0.994125
   23  O  4  X   -0.219853  -0.550274  -0.456972   0.642710  -0.015456
   24  O  4  Y   -0.024303  -0.076420  -0.073574  -0.209418   0.110656
   25  O  4  Z   -0.561811   0.223910   0.173552  -0.227193   0.000762
   26  O  4  S    0.001477   0.000149   0.009357   0.144907   1.335012
   27  O  4  X    0.276787   0.812155   0.736961  -0.946540   0.052676
   28  O  4  Y    0.029737   0.018173  -0.024275   0.200056  -0.361932
   29  O  4  Z    0.670535  -0.314151  -0.262228   0.331353  -0.005814
   30  H  5  S    0.018843   0.301089   0.202004  -0.225508  -0.160204
   31  H  5  S    0.003327   0.163000   0.316812  -0.254358  -0.069012
   32  O  6  S    0.001447   0.004869   0.017277  -0.010724   0.036654
   33  O  6  S   -0.004853  -0.007596  -0.056648   0.116357  -0.995601
   34  O  6  X   -0.194714   0.360694  -0.004803   0.342656  -0.082395
   35  O  6  Y   -0.053643  -0.472901  -0.409581  -0.679472  -0.068187
   36  O  6  Z   -0.568942  -0.073233   0.030577  -0.069483   0.033290
   37  O  6  S    0.001592   0.000544  -0.130191  -0.064367   1.337055
   38  O  6  X    0.227166  -0.448521  -0.105707  -0.477504   0.267001
   39  O  6  Y    0.076371   0.742052   0.495685   1.078351   0.225416
   40  O  6  Z    0.685346   0.088157   0.003134   0.100823  -0.110761
   41  H  7  S    0.017910   0.301266   0.095438   0.287279  -0.160637
   42  H  7  S    0.005625   0.163630   0.062445   0.401170  -0.068653

                     41         42
                    3.7019     3.7020
                     A          A   
    1  B  1  S   -0.000004  -0.000023
    2  B  1  S    0.000459   0.000192
    3  B  1  X   -0.454747  -0.013299
    4  B  1  Y   -0.005959   0.481119
    5  B  1  Z    0.158744  -0.020084
    6  B  1  S    0.000900   0.000537
    7  B  1  X   -0.947911   0.025458
    8  B  1  Y    0.043736   1.002002
    9  B  1  Z    0.328017  -0.060479
   10  O  2  S    0.050110  -0.000551
   11  O  2  S   -1.383989   0.075592
   12  O  2  X    0.139493  -0.037718
   13  O  2  Y    0.005851   0.161408
   14  O  2  Z   -0.049192   0.005387
   15  O  2  S    1.955534  -0.089903
   16  O  2  X   -0.442916   0.057887
   17  O  2  Y    0.048961  -0.463497
   18  O  2  Z    0.146965   0.004041
   19  H  3  S   -0.201815   0.206103
   20  H  3  S    0.047466  -0.167259
   21  O  4  S   -0.025565  -0.043174
   22  O  4  S    0.758277   1.162449
   23  O  4  X   -0.059006   0.122722
   24  O  4  Y   -0.160510  -0.051931
   25  O  4  Z    0.029487  -0.040056
   26  O  4  S   -1.056612  -1.650953
   27  O  4  X    0.210240  -0.335633
   28  O  4  Y    0.455248   0.232752
   29  O  4  Z   -0.094302   0.108710
   30  H  5  S    0.279543   0.072078
   31  H  5  S   -0.168586   0.042616
   32  O  6  S   -0.024642   0.043664
   33  O  6  S    0.628408  -1.236320
   34  O  6  X   -0.098891  -0.129983
   35  O  6  Y    0.107442  -0.089188
   36  O  6  Z    0.028641   0.049239
   37  O  6  S   -0.902527   1.738507
   38  O  6  X    0.225925   0.423061
   39  O  6  Y   -0.350685   0.235259
   40  O  6  Z   -0.058676  -0.163374
   41  H  7  S   -0.077316  -0.277835
   42  H  7  S    0.121196   0.124802

  ----- BETA SET ----- 

          ------------
          EIGENVECTORS
          ------------

                      1          2          3          4          5
                  -20.1753   -20.1753   -20.1752    -7.3160    -1.0980
                     A          A          A          A          A   
    1  B  1  S    0.000088   0.000078   0.000071   0.987748  -0.098000
    2  B  1  S    0.002955   0.002615   0.002385   0.093184   0.081247
    3  B  1  X    0.003717  -0.001881  -0.002536   0.000468   0.003207
    4  B  1  Y    0.000426  -0.003719   0.003550   0.000067   0.000387
    5  B  1  Z   -0.001310   0.000853   0.000708   0.001340   0.008920
    6  B  1  S    0.010574   0.009357   0.008536  -0.023447   0.019860
    7  B  1  X    0.010780  -0.007642  -0.004927  -0.000144   0.001323
    8  B  1  Y   -0.001413  -0.009100   0.011735  -0.000022   0.000203
    9  B  1  Z   -0.003632   0.003176   0.001153  -0.000419   0.003877
   10  O  2  S    0.979997  -0.075741  -0.033423   0.000079  -0.130812
   11  O  2  S    0.098015  -0.007473  -0.003263   0.002252   0.117679
   12  O  2  X   -0.001799   0.000219  -0.000158  -0.000269  -0.024823
   13  O  2  Y    0.001801  -0.000633   0.000729   0.000306   0.026118
   14  O  2  Z    0.000970  -0.000074   0.000006   0.000076   0.015925
   15  O  2  S   -0.044965   0.003421   0.001816  -0.006047   0.413674
   16  O  2  X    0.006347  -0.000395   0.000656   0.007196  -0.037724
   17  O  2  Y   -0.002636   0.002658  -0.003558  -0.001122   0.029157
   18  O  2  Z   -0.002224  -0.000004  -0.000055  -0.002490   0.020118
   19  H  3  S    0.002684  -0.001345   0.001251   0.000378   0.056887
   20  H  3  S    0.002838   0.002394  -0.001882   0.002725   0.018293
   21  O  4  S    0.038371   0.063282   0.980699   0.000080  -0.130406
   22  O  4  S    0.003940   0.006406   0.098067   0.002252   0.117304
   23  O  4  X    0.000346  -0.000557  -0.000313  -0.000113  -0.004131
   24  O  4  Y    0.000204  -0.000756  -0.002596  -0.000395  -0.037175
   25  O  4  Z   -0.000110   0.000265   0.000687   0.000059   0.012080
   26  O  4  S   -0.001815  -0.002618  -0.045020  -0.006047   0.412402
   27  O  4  X   -0.002084   0.002479  -0.001199  -0.002803  -0.000057
   28  O  4  Y   -0.000797   0.003039   0.007004   0.007145  -0.050431
   29  O  4  Z    0.000743  -0.001045  -0.000100   0.000562   0.011203
   30  H  5  S   -0.001016   0.001529   0.002685   0.000380   0.056659
   31  H  5  S    0.002696  -0.001639   0.002715   0.002728   0.018206
   32  O  6  S    0.073409   0.978522  -0.065982   0.000079  -0.130678
   33  O  6  S    0.007431   0.097858  -0.006506   0.002252   0.117562
   34  O  6  X    0.000893   0.002452  -0.000685   0.000381   0.037084
   35  O  6  Y   -0.000119   0.000896   0.000142   0.000088   0.012355
   36  O  6  Z   -0.000268  -0.000458   0.000205  -0.000138  -0.004844
   37  O  6  S   -0.003092  -0.044931   0.002947  -0.006047   0.413242
   38  O  6  X   -0.003585  -0.004939   0.002640  -0.004432   0.045786
   39  O  6  Y    0.000592  -0.004604  -0.001152  -0.006028   0.022550
   40  O  6  Z    0.001190   0.001800  -0.000866   0.001808  -0.008534
   41  H  7  S    0.001418   0.002545  -0.001445   0.000378   0.056802
   42  H  7  S   -0.001297   0.002992   0.002585   0.002726   0.018266

                      6          7          8          9         10
                   -1.0473    -1.0472    -0.4778    -0.4327    -0.4326
                     A          A          A          A          A   
    1  B  1  S    0.000059  -0.000115  -0.145785  -0.000183  -0.000235
    2  B  1  S   -0.000046   0.000096   0.165972   0.000232   0.000276
    3  B  1  X    0.078646  -0.047240   0.008043  -0.193586  -0.020976
    4  B  1  Y    0.048566   0.084030   0.000855  -0.018811   0.205074
    5  B  1  Z   -0.029903   0.012156   0.022145   0.068349  -0.003249
    6  B  1  S   -0.000014   0.000041   0.148442   0.000138   0.000230
    7  B  1  X   -0.011833   0.013538   0.005142  -0.069551  -0.021881
    8  B  1  Y   -0.014126  -0.012738   0.000695  -0.021864   0.073967
    9  B  1  Z    0.004856  -0.004061   0.014344   0.025330   0.003806
   10  O  2  S   -0.172229   0.085898   0.013778   0.011831   0.032497
   11  O  2  S    0.159058  -0.077851  -0.017153  -0.013253  -0.030672
   12  O  2  X   -0.015493   0.008708  -0.192525   0.208579   0.013397
   13  O  2  Y    0.044146  -0.010736  -0.095545   0.176837   0.158861
   14  O  2  Z    0.014187  -0.007832   0.073900  -0.077446  -0.014104
   15  O  2  S    0.541475  -0.276925  -0.033913  -0.043278  -0.134616
   16  O  2  X   -0.019490   0.008562  -0.208086   0.198611   0.002678
   17  O  2  Y    0.048666  -0.011830  -0.088404   0.183656   0.159345
   18  O  2  Z    0.016959  -0.008613   0.078331  -0.077437  -0.011129
   19  H  3  S    0.084848  -0.038760  -0.121393   0.160428   0.082496
   20  H  3  S    0.030952  -0.006148  -0.103137   0.154893   0.075227
   21  O  4  S    0.011692  -0.192384   0.013883   0.022215  -0.026388
   22  O  4  S   -0.012079   0.176925  -0.017251  -0.019927   0.026711
   23  O  4  X    0.009895  -0.020236   0.177211   0.005835   0.285663
   24  O  4  Y    0.006564  -0.040152  -0.130062  -0.107948  -0.058620
   25  O  4  Z   -0.004694   0.021604  -0.053530   0.000103  -0.100352
   26  O  4  S   -0.030809   0.608288  -0.034348  -0.094866   0.104382
   27  O  4  X    0.009858  -0.021213   0.179069   0.010975   0.285070
   28  O  4  Y    0.009156  -0.045853  -0.147679  -0.110615  -0.043555
   29  O  4  Z   -0.004845   0.024090  -0.053883  -0.000648  -0.097852
   30  H  5  S   -0.008840   0.092925  -0.120714  -0.008827  -0.180477
   31  H  5  S   -0.010143   0.029873  -0.102471  -0.012347  -0.171959
   32  O  6  S    0.160728   0.106038   0.013894  -0.033980  -0.006003
   33  O  6  S   -0.147152  -0.098673  -0.017262   0.033106   0.003843
   34  O  6  X   -0.037508  -0.034204   0.016253  -0.129215  -0.022078
   35  O  6  Y   -0.001509   0.006168   0.225734   0.222898  -0.195379
   36  O  6  Z    0.002838   0.004622  -0.015641   0.032029   0.022382
   37  O  6  S   -0.511275  -0.329940  -0.034375   0.137945   0.029890
   38  O  6  X   -0.041740  -0.039073   0.029396  -0.138272  -0.016796
   39  O  6  Y   -0.002139   0.004347   0.236124   0.212617  -0.196080
   40  O  6  Z    0.002750   0.005459  -0.021361   0.037912   0.018252
   41  H  7  S   -0.076051  -0.054003  -0.121037  -0.151982   0.097495
   42  H  7  S   -0.020809  -0.023686  -0.102773  -0.142836   0.096345

                     11         12         13         14         15
                   -0.3000    -0.2725    -0.2725    -0.2647    -0.2125
                     A          A          A          A          A   
    1  B  1  S    0.000637   0.000029  -0.000293  -0.054042  -0.000015
    2  B  1  S   -0.011201  -0.000046   0.000309   0.064197   0.000021
    3  B  1  X    0.050737  -0.134492   0.084213   0.000379  -0.004098
    4  B  1  Y    0.008053  -0.086395  -0.143884   0.000855  -0.002687
    5  B  1  Z    0.146118   0.051525  -0.021552   0.003080   0.001482
    6  B  1  S    0.048722   0.000144  -0.000051  -0.016004  -0.000036
    7  B  1  X    0.061846   0.110026   0.051058  -0.001037   0.012174
    8  B  1  Y    0.009092  -0.055780   0.115311  -0.000904   0.009184
    9  B  1  Z    0.178420  -0.035145  -0.023280  -0.002227  -0.004811
   10  O  2  S    0.006179  -0.010787   0.041111   0.042501   0.004598
   11  O  2  S   -0.004111   0.021363  -0.032925  -0.042730  -0.004573
   12  O  2  X    0.089749   0.268597  -0.107666  -0.121853   0.123677
   13  O  2  Y    0.026405  -0.136289   0.201680   0.235253   0.026862
   14  O  2  Z    0.241976  -0.080110   0.019222   0.015826   0.365498
   15  O  2  S   -0.030165  -0.000598  -0.208870  -0.177770  -0.014439
   16  O  2  X    0.104669   0.325802  -0.125609  -0.166154   0.156482
   17  O  2  Y    0.031971  -0.165859   0.224375   0.269880   0.034910
   18  O  2  Z    0.270478  -0.098823   0.023507   0.026465   0.470890
   19  H  3  S    0.002078   0.011006   0.087226   0.097851  -0.007579
   20  H  3  S   -0.005573   0.011111   0.057682   0.075695  -0.013705
   21  O  4  S    0.006443  -0.030045  -0.029490   0.042902  -0.000581
   22  O  4  S   -0.004330   0.017680   0.034558  -0.043148   0.000980
   23  O  4  X    0.071384   0.110043   0.035494  -0.137770  -0.021956
   24  O  4  Y    0.009160   0.012516   0.364437  -0.226185   0.000912
   25  O  4  Z    0.248741  -0.034890  -0.021076   0.046400  -0.064015
   26  O  4  S   -0.031446   0.180449   0.102223  -0.179394  -0.000501
   27  O  4  X    0.076406   0.121160   0.035697  -0.144824  -0.030096
   28  O  4  Y    0.012675   0.002539   0.435378  -0.283574   0.000169
   29  O  4  Z    0.280662  -0.037391  -0.024596   0.049116  -0.081617
   30  H  5  S    0.002510  -0.080762  -0.033090   0.098447   0.000875
   31  H  5  S   -0.005387  -0.055275  -0.018456   0.076007   0.005069
   32  O  6  S    0.006240   0.040729  -0.010832   0.042875  -0.003974
   33  O  6  S   -0.004126  -0.038931  -0.002407  -0.042990   0.003545
   34  O  6  X    0.093367   0.303625   0.102521   0.247313  -0.108320
   35  O  6  Y    0.000951   0.079929   0.154237  -0.015263  -0.013178
   36  O  6  Z    0.241886  -0.119288  -0.044203  -0.098963  -0.300239
   37  O  6  S   -0.030615  -0.179452   0.103314  -0.179856   0.014763
   38  O  6  X    0.104851   0.352740   0.134605   0.296074  -0.142697
   39  O  6  Y   -0.003612   0.102276   0.184425   0.006335  -0.017818
   40  O  6  Z    0.272046  -0.137946  -0.056114  -0.119851  -0.384800
   41  H  7  S    0.002320   0.069361  -0.052372   0.098682   0.006960
   42  H  7  S   -0.005467   0.043858  -0.037858   0.076224   0.008722

                     16         17         18         19         20
                   -0.2124     0.4777     0.5280     0.5282     0.5506
                     A          A          A          A          A   
    1  B  1  S    0.000020  -0.056414   0.000111  -0.000116  -0.017440
    2  B  1  S   -0.000034  -0.029791   0.000120  -0.000145  -0.042221
    3  B  1  X    0.002522   0.022521   0.100507   0.035455   0.090415
    4  B  1  Y   -0.004207   0.003025  -0.039257   0.105542   0.013320
    5  B  1  Z   -0.000548   0.064287  -0.032828  -0.017877   0.259577
    6  B  1  S    0.000062   0.409179  -0.000961   0.001090   0.423966
    7  B  1  X   -0.008438   0.074708   0.049407   0.198023   0.293226
    8  B  1  Y    0.012863   0.010537  -0.210494   0.049166   0.043075
    9  B  1  Z    0.002443   0.215861  -0.006446  -0.071337   0.842974
   10  O  2  S   -0.001963   0.066798   0.070748  -0.014335  -0.006131
   11  O  2  S    0.001513  -0.031373  -0.019000   0.010014   0.004991
   12  O  2  X   -0.049283  -0.013298  -0.061611   0.059478  -0.019613
   13  O  2  Y   -0.008740  -0.108827  -0.178554   0.006212   0.030788
   14  O  2  Z   -0.136374  -0.037199   0.031174  -0.021901  -0.174134
   15  O  2  S    0.008699  -0.565032  -0.683556   0.093105   0.041639
   16  O  2  X   -0.061965  -0.037314  -0.147197   0.121977   0.008598
   17  O  2  Y   -0.013979  -0.260400  -0.417452   0.091745   0.094710
   18  O  2  Z   -0.175726  -0.056707   0.084085  -0.050029  -0.343145
   19  H  3  S    0.003448   0.032510   0.042603  -0.055316  -0.005988
   20  H  3  S    0.001981   0.654389   1.103066  -0.342969  -0.295305
   21  O  4  S    0.004960   0.066473  -0.023022   0.068750  -0.006144
   22  O  4  S   -0.004718  -0.031271   0.000849  -0.021609   0.005023
   23  O  4  X    0.129968   0.070953  -0.057816   0.172478  -0.106080
   24  O  4  Y    0.014647   0.050843  -0.059832   0.000488   0.005888
   25  O  4  Z    0.386351  -0.075177   0.023844  -0.059971  -0.142610
   26  O  4  S   -0.016771  -0.562032   0.261729  -0.641270   0.041498
   27  O  4  X    0.167119   0.187996  -0.091053   0.436554  -0.251840
   28  O  4  Y    0.015269   0.110032  -0.091499   0.023272   0.034441
   29  O  4  Z    0.496970  -0.155312   0.033497  -0.143835  -0.248952
   30  H  5  S   -0.008448   0.032165   0.026556   0.064655  -0.006330
   31  H  5  S   -0.012906   0.649277  -0.254990   1.129408  -0.295062
   32  O  6  S   -0.003041   0.066680  -0.048072  -0.054003  -0.006124
   33  O  6  S    0.003254  -0.031309   0.018318   0.011391   0.005011
   34  O  6  X   -0.092770  -0.102836   0.037617   0.112597  -0.041051
   35  O  6  Y   -0.013377   0.050987  -0.124647  -0.099537  -0.061360
   36  O  6  Z   -0.244883  -0.014597  -0.007312  -0.033836  -0.161825
   37  O  6  S    0.008283  -0.564142   0.424789   0.544672   0.041371
   38  O  6  X   -0.119206  -0.230223   0.146752   0.222640  -0.068244
   39  O  6  Y   -0.019159   0.137700  -0.315825  -0.226069  -0.175278
   40  O  6  Z   -0.314871  -0.010815  -0.042013  -0.073573  -0.302215
   41  H  7  S    0.004789   0.032187  -0.069306  -0.009180  -0.006228
   42  H  7  S    0.010700   0.651893  -0.851195  -0.782757  -0.295397

                     21         22         23         24         25
                    0.7000     0.7543     0.7543     0.9332     1.1485
                     A          A          A          A          A   
    1  B  1  S   -0.140799  -0.000046   0.000114  -0.009778  -0.000032
    2  B  1  S   -0.230641  -0.000055   0.000028   0.157082   0.000424
    3  B  1  X   -0.026232  -0.099106  -0.004706   0.375912   1.073255
    4  B  1  Y   -0.003843  -0.003173   0.104725   0.055768  -0.704810
    5  B  1  Z   -0.075387   0.034653  -0.004084   1.079679  -0.337469
    6  B  1  S    2.127856   0.000578  -0.001503  -0.098703  -0.000205
    7  B  1  X   -0.070641  -0.255807   1.912311  -0.312000  -0.535929
    8  B  1  Y   -0.010841   2.026393   0.236603  -0.045866   0.586818
    9  B  1  Z   -0.207649  -0.014843  -0.677710  -0.899655   0.156405
   10  O  2  S    0.045129  -0.029456   0.062356   0.003207   0.030979
   11  O  2  S   -0.025366   0.020378  -0.011360  -0.004598  -0.042324
   12  O  2  X    0.140794   0.023244   0.070748   0.014441   0.202749
   13  O  2  Y    0.062302  -0.124426   0.053977  -0.002482   0.029437
   14  O  2  Z   -0.013151  -0.000906  -0.037307  -0.017567  -0.070248
   15  O  2  S   -0.403304   0.239779  -0.779623  -0.003449  -0.039611
   16  O  2  X    0.415099  -0.003027   0.327453   0.040948   0.363495
   17  O  2  Y    0.185069  -0.345166   0.193780  -0.000080  -0.008126
   18  O  2  Z   -0.080871   0.017598  -0.121834   0.045893  -0.125459
   19  H  3  S   -0.020594  -0.098979  -0.029563   0.004519   0.064000
   20  H  3  S   -0.505027  -0.130378  -0.681061   0.008247  -0.148209
   21  O  4  S    0.045031   0.068763  -0.005688   0.003236  -0.030545
   22  O  4  S   -0.025347  -0.020027  -0.011942  -0.004651   0.047282
   23  O  4  X   -0.103547  -0.119443  -0.035431  -0.011701   0.066838
   24  O  4  Y    0.090229  -0.005360  -0.091094   0.017101  -0.186576
   25  O  4  Z    0.070756   0.033035   0.020817  -0.009488  -0.015208
   26  O  4  S   -0.402080  -0.795418   0.182140  -0.003571   0.065997
   27  O  4  X   -0.327624  -0.424453  -0.082552   0.009649   0.200519
   28  O  4  Y    0.274300   0.095739  -0.245910   0.024445  -0.337356
   29  O  4  Z    0.173956   0.146036   0.040375   0.055525  -0.053677
   30  H  5  S   -0.020475   0.023803   0.100442   0.004317   0.170058
   31  H  5  S   -0.504634  -0.525285   0.454308   0.010143  -0.283685
   32  O  6  S    0.045034  -0.039268  -0.056756   0.003163  -0.000405
   33  O  6  S   -0.025339  -0.000358   0.023356  -0.004592  -0.005004
   34  O  6  X   -0.000877   0.051410  -0.100542  -0.014463  -0.044254
   35  O  6  Y   -0.147086   0.061739   0.085469  -0.016234   0.047976
   36  O  6  Z    0.047161  -0.013219   0.036304  -0.006810   0.012533
   37  O  6  S   -0.402239   0.555224   0.598171  -0.002890  -0.026417
   38  O  6  X   -0.019110   0.140008  -0.244316   0.005371   0.010197
   39  O  6  Y   -0.449052   0.255539   0.355862  -0.015716  -0.019311
   40  O  6  Z    0.103480  -0.063994   0.064503   0.059058  -0.002155
   41  H  7  S   -0.020625   0.075122  -0.070888   0.004340  -0.233922
   42  H  7  S   -0.504710   0.655308   0.228144   0.009622   0.431796

                     26         27         28         29         30
                    1.1486     1.2765     1.5258     1.5260     1.5282
                     A          A          A          A          A   
    1  B  1  S   -0.000014  -0.108867  -0.001155   0.001127  -0.027617
    2  B  1  S    0.000176   1.703663  -0.011436   0.011637  -0.267920
    3  B  1  X    0.648460  -0.035841   0.009743  -0.304912  -0.013077
    4  B  1  Y    1.123304  -0.005184   0.322231   0.016397  -0.012642
    5  B  1  Z   -0.283662  -0.102138  -0.020201   0.105395   0.005386
    6  B  1  S   -0.000150  -1.206283   0.020780  -0.020809   0.491173
    7  B  1  X   -0.545572   0.027763   0.067366  -0.399916  -0.021943
    8  B  1  Y   -0.556614   0.003880   0.422179   0.079347  -0.014851
    9  B  1  Z    0.219028   0.078335  -0.045842   0.135785   0.000720
   10  O  2  S    0.017406   0.028528   0.033791  -0.033793   0.020049
   11  O  2  S   -0.030197  -0.052919  -0.056287   0.056270  -0.029715
   12  O  2  X    0.097702   0.170256   0.016645  -0.031862  -0.001337
   13  O  2  Y   -0.056531  -0.032523  -0.284379   0.013338  -0.198348
   14  O  2  Z   -0.030523  -0.055721   0.009042   0.015509   0.012259
   15  O  2  S   -0.053403   0.018906   0.011769   0.236292  -0.022701
   16  O  2  X    0.222293   0.151341  -0.103336  -0.132675  -0.083318
   17  O  2  Y    0.016900  -0.023106  -0.229713   0.011240  -0.088052
   18  O  2  Z   -0.077485  -0.053973   0.053751   0.039903   0.037765
   19  H  3  S   -0.233360   0.046039   1.096732  -0.185368   0.716259
   20  H  3  S    0.412962   0.110028  -0.805805   0.212697  -0.533960
   21  O  4  S    0.018129   0.028512   0.013042   0.043963   0.024171
   22  O  4  S   -0.021559  -0.052907  -0.021598  -0.073598  -0.036584
   23  O  4  X   -0.108644  -0.060110  -0.114075   0.172924   0.184865
   24  O  4  Y    0.089696   0.171391  -0.041721   0.141147   0.110362
   25  O  4  Z    0.034601   0.013887   0.037767  -0.070806  -0.069155
   26  O  4  S   -0.007684   0.019057  -0.211457  -0.105097  -0.027593
   27  O  4  X   -0.092138  -0.060333  -0.167035   0.170848   0.139055
   28  O  4  Y    0.194071   0.150467   0.100414   0.079319  -0.029485
   29  O  4  Z    0.022277   0.010721   0.055460  -0.056673  -0.042551
   30  H  5  S    0.171886   0.045575  -0.365592   0.966690   0.825973
   31  H  5  S   -0.334736   0.110574   0.202010  -0.747462  -0.616525
   32  O  6  S   -0.035536   0.028524  -0.043960  -0.013010   0.024175
   33  O  6  S    0.051744  -0.052912   0.073574   0.021587  -0.036606
   34  O  6  X    0.110322  -0.108575   0.128757   0.198965  -0.169585
   35  O  6  Y    0.203414  -0.138621  -0.034095  -0.128506   0.104485
   36  O  6  Z   -0.050924   0.046723  -0.038053  -0.065031   0.054489
   37  O  6  S    0.061171   0.019065   0.195613  -0.127153  -0.045561
   38  O  6  X    0.205147  -0.093565   0.125801   0.082902  -0.040481
   39  O  6  Y    0.390525  -0.127657   0.003383  -0.246177   0.117057
   40  O  6  Z   -0.092650   0.036614  -0.051206  -0.018177   0.012605
   41  H  7  S    0.061149   0.046129  -0.634307  -0.877497   0.760220
   42  H  7  S   -0.077994   0.109903   0.531259   0.606862  -0.573762

                     31         32         33         34         35
                    2.0584     2.0585     2.1692     2.2291     2.2292
                     A          A          A          A          A   
    1  B  1  S   -0.000039   0.000009   0.048965  -0.000052   0.000046
    2  B  1  S   -0.000566   0.000198   0.638615  -0.000579   0.000752
    3  B  1  X   -0.004541  -0.014059  -0.001005   0.342422  -0.218295
    4  B  1  Y    0.015060  -0.004053  -0.000382   0.224744   0.365899
    5  B  1  Z    0.000815   0.005089  -0.004619  -0.130681   0.057220
    6  B  1  S    0.000103  -0.000047   0.389360  -0.000184   0.000432
    7  B  1  X   -0.001573   0.000299  -0.001654  -0.223442  -0.610278
    8  B  1  Y    0.000347  -0.001432   0.000527   0.649852  -0.225659
    9  B  1  Z    0.000648  -0.000179  -0.006386   0.045715   0.225167
   10  O  2  S   -0.001003  -0.001106   0.030458   0.024834  -0.037632
   11  O  2  S    0.019167  -0.002397  -0.104076  -0.104394   0.180370
   12  O  2  X    0.265066  -0.087645  -0.524710  -0.584785   0.217469
   13  O  2  Y    0.041610  -0.040562   0.191829   0.486177  -0.001547
   14  O  2  Z    0.744969  -0.292216   0.166494   0.169217  -0.102920
   15  O  2  S   -0.022691   0.014034  -0.067825   0.044919   0.108530
   16  O  2  X   -0.252718   0.078140   0.698583   0.711694  -0.389478
   17  O  2  Y   -0.048852   0.043436  -0.191017  -0.662061  -0.057695
   18  O  2  Z   -0.693341   0.273874  -0.223119  -0.203285   0.163406
   19  H  3  S    0.008385  -0.006918   0.118794   0.220558  -0.041215
   20  H  3  S    0.008123  -0.007047  -0.212660  -0.143360   0.347250
   21  O  4  S    0.001475  -0.000215   0.030375   0.020161   0.040403
   22  O  4  S   -0.007564   0.017511  -0.103730  -0.103831  -0.180914
   23  O  4  X   -0.053351   0.265321   0.109683   0.159704  -0.025991
   24  O  4  Y   -0.029080   0.030689  -0.570493   0.206818  -0.770739
   25  O  4  Z   -0.118246   0.795097  -0.015841  -0.035555   0.053720
   26  O  4  S   -0.000927  -0.027089  -0.067786  -0.116671  -0.015420
   27  O  4  X    0.046788  -0.237035  -0.197796  -0.316975   0.026594
   28  O  4  Y    0.032400  -0.025267   0.727965  -0.196396   1.009640
   29  O  4  Z    0.111204  -0.746322   0.042411   0.091200  -0.064107
   30  H  5  S    0.002102   0.011141   0.118396  -0.074564   0.212029
   31  H  5  S    0.001647   0.010849  -0.212108  -0.229136  -0.298353
   32  O  6  S   -0.000547   0.001358   0.030358  -0.045078  -0.002663
   33  O  6  S   -0.011397  -0.015180  -0.103629   0.208663   0.000192
   34  O  6  X   -0.241198  -0.161367   0.408414  -0.441725  -0.526798
   35  O  6  Y   -0.028607  -0.022036   0.378973  -0.321919  -0.139748
   36  O  6  Z   -0.615216  -0.507334  -0.168841   0.153776   0.215310
   37  O  6  S    0.023894   0.012888  -0.067540   0.071664  -0.093334
   38  O  6  X    0.233830   0.152491  -0.490313   0.573825   0.687337
   39  O  6  Y    0.022298   0.011928  -0.536800   0.497051   0.067942
   40  O  6  Z    0.571666   0.473628   0.209446  -0.211787  -0.267513
   41  H  7  S   -0.010652  -0.003867   0.118584  -0.146290  -0.170271
   42  H  7  S   -0.010124  -0.003728  -0.211749   0.372997  -0.049665

                     36         37         38         39         40
                    2.2681     2.3984     2.4207     2.4208     3.6691
                     A          A          A          A          A   
    1  B  1  S    0.000081  -0.023733  -0.000047  -0.000015   0.013426
    2  B  1  S   -0.012903  -0.197890  -0.000281  -0.000143  -0.429520
    3  B  1  X   -0.024086  -0.000636   0.192599   0.158041   0.000458
    4  B  1  Y   -0.002806   0.000417  -0.170442   0.200676   0.000556
    5  B  1  Z   -0.072184  -0.000785  -0.057892  -0.065356   0.003089
    6  B  1  S   -0.006687  -0.479767  -0.001001   0.000159  -0.958137
    7  B  1  X   -0.174986  -0.002123   0.271824   0.374830   0.002130
    8  B  1  Y   -0.025081   0.000680  -0.401199   0.280407   0.001439
    9  B  1  Z   -0.498505  -0.004592  -0.073364  -0.144984   0.009982
   10  O  2  S   -0.000008   0.004401   0.001456   0.020937   0.036872
   11  O  2  S   -0.012819  -0.009375  -0.070770  -0.104748  -0.997163
   12  O  2  X   -0.196389   0.204821  -0.487826   0.121198   0.101512
   13  O  2  Y   -0.040403   0.555107  -0.658789  -0.132696  -0.044359
   14  O  2  Z   -0.572479  -0.111466   0.212622  -0.023951  -0.024045
   15  O  2  S    0.021548   0.006248   0.108554  -0.090283   1.339597
   16  O  2  X    0.233247  -0.383867   0.721691  -0.010128  -0.329047
   17  O  2  Y    0.052737  -0.765485   1.007516   0.153791   0.135265
   18  O  2  Z    0.680500   0.184915  -0.310092  -0.015571   0.095688
   19  H  3  S   -0.009231   0.299967  -0.297898  -0.048080  -0.159996
   20  H  3  S   -0.003667   0.166451  -0.382419  -0.138559  -0.067278
   21  O  4  S    0.000006   0.004433  -0.018848  -0.009233   0.036739
   22  O  4  S   -0.012973  -0.009746   0.126050  -0.008749  -0.993569
   23  O  4  X   -0.193363  -0.563013  -0.443573   0.663118  -0.011055
   24  O  4  Y   -0.020428  -0.079340  -0.085369  -0.198012   0.112299
   25  O  4  Z   -0.574938   0.189703   0.146787  -0.220531   0.006970
   26  O  4  S    0.021108   0.006440   0.023944   0.139004   1.334511
   27  O  4  X    0.225560   0.825920   0.710766  -0.976912   0.051868
   28  O  4  Y    0.021736   0.017620  -0.016321   0.190945  -0.363486
   29  O  4  Z    0.685144  -0.278528  -0.236836   0.332608  -0.010844
   30  H  5  S   -0.009967   0.298893   0.191341  -0.234520  -0.159617
   31  H  5  S   -0.003825   0.165057   0.311754  -0.262181  -0.067407
   32  O  6  S   -0.000141   0.004346   0.017428  -0.011722   0.036818
   33  O  6  S   -0.012197  -0.009268  -0.055423   0.113619  -0.995842
   34  O  6  X   -0.212330   0.349943   0.010157   0.341278  -0.082140
   35  O  6  Y   -0.029802  -0.475166  -0.429378  -0.664555  -0.066692
   36  O  6  Z   -0.567702  -0.108153   0.025149  -0.096471   0.040954
   37  O  6  S    0.021010   0.006704  -0.132378  -0.048824   1.337680
   38  O  6  X    0.256794  -0.434742  -0.128743  -0.473115   0.266314
   39  O  6  Y    0.033120   0.746711   0.529291   1.061565   0.226704
   40  O  6  Z    0.673551   0.123498   0.009764   0.119361  -0.115983
   41  H  7  S   -0.010488   0.299170   0.108360   0.282479  -0.160275
   42  H  7  S   -0.002345   0.165790   0.071610   0.400668  -0.066925

                     41         42
                    3.7111     3.7112
                     A          A   
    1  B  1  S   -0.000006   0.000028
    2  B  1  S    0.000558  -0.000383
    3  B  1  X   -0.449697   0.056139
    4  B  1  Y   -0.051353  -0.476540
    5  B  1  Z    0.159319   0.004926
    6  B  1  S    0.001112  -0.000949
    7  B  1  X   -0.943775   0.064542
    8  B  1  Y   -0.051515  -0.999203
    9  B  1  Z    0.331472   0.028987
   10  O  2  S    0.050613  -0.004000
   11  O  2  S   -1.385751   0.053625
   12  O  2  X    0.144490   0.024882
   13  O  2  Y   -0.013218  -0.160474
   14  O  2  Z   -0.040998  -0.000311
   15  O  2  S    1.952472  -0.093773
   16  O  2  X   -0.445368  -0.016282
   17  O  2  Y    0.094718   0.455091
   18  O  2  Z    0.141813  -0.018040
   19  H  3  S   -0.219530  -0.185589
   20  H  3  S    0.061043   0.161634
   21  O  4  S   -0.021877   0.045919
   22  O  4  S    0.647221  -1.229419
   23  O  4  X   -0.073175  -0.110538
   24  O  4  Y   -0.155767   0.068523
   25  O  4  Z    0.029114   0.042416
   26  O  4  S   -0.895951   1.741234
   27  O  4  X    0.241847   0.309940
   28  O  4  Y    0.430538  -0.274644
   29  O  4  Z   -0.102237  -0.100788
   30  H  5  S    0.270625  -0.097807
   31  H  5  S   -0.170502  -0.028111
   32  O  6  S   -0.028862  -0.041810
   33  O  6  S    0.741909   1.172799
   34  O  6  X   -0.085397   0.138666
   35  O  6  Y    0.113237   0.076106
   36  O  6  Z    0.019718  -0.059676
   37  O  6  S   -1.061026  -1.643408
   38  O  6  X    0.183732  -0.441565
   39  O  6  Y   -0.368782  -0.198688
   40  O  6  Z   -0.041190   0.171079
   41  H  7  S   -0.050580   0.282851
   42  H  7  S    0.109584  -0.133762
 ...... END OF UHF CALCULATION ......
 CPU     0: STEP CPU TIME=     0.57 TOTAL CPU TIME=          0.6 (      0.0 MIN)
 TOTAL WALL CLOCK TIME=          0.7 SECONDS, CPU UTILIZATION IS    91.43%

     ----------------------------------------------------------------
     PROPERTY VALUES FOR THE UHF   SELF-CONSISTENT FIELD WAVEFUNCTION
     ----------------------------------------------------------------

          -----------------
          ENERGY COMPONENTS
          -----------------

         WAVEFUNCTION NORMALIZATION =       1.0000000000

                ONE ELECTRON ENERGY =    -579.8056493396
                TWO ELECTRON ENERGY =     465.5694821406
           NUCLEAR REPULSION ENERGY =     114.2361671989
                                      ------------------
                       TOTAL ENERGY =       0.0000000000

 ELECTRON-ELECTRON POTENTIAL ENERGY =     465.5694821406
  NUCLEUS-ELECTRON POTENTIAL ENERGY =    -829.2895288282
   NUCLEUS-NUCLEUS POTENTIAL ENERGY =     114.2361671989
                                      ------------------
             TOTAL POTENTIAL ENERGY =    -249.4838794886
               TOTAL KINETIC ENERGY =     249.4838794886
                 VIRIAL RATIO (V/T) =       1.0000000000

          ---------------------------------------
          MULLIKEN AND LOWDIN POPULATION ANALYSES
          ---------------------------------------

     ATOMIC MULLIKEN POPULATION IN EACH MOLECULAR ORBITAL
        ALPHA ORBITALS

                      1          2          3          4          5

                  1.000000   1.000000   1.000000   1.000000   1.000000

    1             0.001590   0.001610   0.001630   1.003679   0.065292
    2             0.993134   0.004015   0.000974  -0.001286   0.292755
    3             0.000277  -0.000008  -0.000001   0.000060   0.019612
    4             0.001268   0.004644   0.992211  -0.001286   0.291292
    5             0.000007  -0.000009   0.000269   0.000060   0.019497
    6             0.003732   0.989464   0.004927  -0.001287   0.291992
    7            -0.000007   0.000284  -0.000010   0.000060   0.019560

                      6          7          8          9         10

                  1.000000   1.000000   1.000000   1.000000   1.000000

    1             0.030578   0.030590   0.174119   0.125517   0.125537
    2             0.529458   0.066756   0.217896   0.285573   0.149779
    3             0.046030   0.003252   0.058150   0.102534   0.044713
    4             0.021093   0.576580   0.216670   0.055797   0.380129
    5             0.003492   0.045883   0.057752   0.000364   0.147230
    6             0.344872   0.252091   0.217450   0.311952   0.123419
    7             0.024477   0.024848   0.057963   0.118264   0.029193

                     11         12         13         14         15

                  1.000000   1.000000   1.000000   1.000000   1.000000

    1             0.235490   0.080030   0.080101   0.015312   0.001731
    2             0.255493   0.540268   0.050486   0.294572   0.585829
    3             0.000069   0.003293   0.022016   0.030083   0.002637
    4             0.253961   0.191824   0.395108   0.299786   0.023732
    5             0.000070   0.010824   0.014587   0.030167   0.000252
    6             0.254848   0.149980   0.436500   0.299552   0.381275
    7             0.000069   0.023782   0.001202   0.030527   0.004543

                     16         17

                  1.000000   1.000000

    1             0.001706   0.550484
    2             0.074572   0.042835
    3             0.002316   0.106288
    4             0.637088   0.042868
    5             0.004720   0.107584
    6             0.279193   0.042835
    7             0.000404   0.107106

     ATOMIC MULLIKEN POPULATION IN EACH MOLECULAR ORBITAL
         BETA ORBITALS

                      1          2          3          4          5

                  1.000000   1.000000   1.000000   1.000000   1.000000

    1             0.001588   0.001616   0.001632   1.003409   0.057891
    2             0.991053   0.005919   0.001149  -0.001200   0.294365
    3             0.000279  -0.000010  -0.000001   0.000064   0.020513
    4             0.001518   0.004134   0.992470  -0.001200   0.292620
    5             0.000008  -0.000009   0.000269   0.000064   0.020361
    6             0.005563   0.988066   0.004492  -0.001200   0.293789
    7            -0.000008   0.000285  -0.000010   0.000064   0.020462

                      6          7          8          9         10

                  1.000000   1.000000   1.000000   1.000000   1.000000

    1             0.033412   0.033439   0.143736   0.119063   0.119071
    2             0.475877   0.117956   0.228049   0.322314   0.122853
    3             0.042806   0.006926   0.058599   0.110437   0.030731
    4             0.003375   0.592232   0.226141   0.055342   0.391377
    5             0.001076   0.048736   0.057929   0.000060   0.141578
    6             0.412680   0.181758   0.227307   0.291105   0.154627
    7             0.030774   0.018953   0.058240   0.101679   0.039763

                     11         12         13         14         15

                  1.000000   1.000000   1.000000   1.000000   1.000000

    1             0.197675   0.078796   0.078877   0.010668  -0.000212
    2             0.267832   0.368754   0.223742   0.296883   0.583670
    3             0.000028   0.000867   0.024516   0.028943   0.000334
    4             0.266893   0.057393   0.527724   0.304615   0.017856
    5             0.000028   0.022270   0.002795   0.029300   0.000025
    6             0.267519   0.457403   0.132042   0.300116   0.398141
    7             0.000027   0.014517   0.010305   0.029476   0.000187

                     16

                  1.000000

    1            -0.000217
    2             0.082329
    3             0.000025
    4             0.649132
    5             0.000342
    6             0.268214
    7             0.000175

     ATOMIC SPIN POPULATION (ALPHA MINUS BETA)
       ATOM         MULL.POP.                    LOW.POP.
    1 B             0.644554                     0.525411
    2 O             0.001566                     0.066063
    3 H             0.116265                     0.091510
    4 O             0.001147                     0.066045
    5 H             0.117916                     0.092754
    6 O             0.001175                     0.065879
    7 H             0.117375                     0.092338


          ********* ALL ELECTRONS ********

               ----- POPULATIONS IN EACH AO -----
                             MULLIKEN      LOWDIN
              1  B  1  S      1.98628     1.97389
              2  B  1  S      0.33482     0.37730
              3  B  1  X      0.39812     0.43685
              4  B  1  Y      0.40640     0.44834
              5  B  1  Z      0.33730     0.35237
              6  B  1  S      0.27945     0.41267
              7  B  1  X      0.11619     0.32753
              8  B  1  Y      0.06697     0.30260
              9  B  1  Z      0.47990     0.51140
             10  O  2  S      1.98592     1.98009
             11  O  2  S      0.41006     0.56965
             12  O  2  X      0.69182     0.68848
             13  O  2  Y      0.63069     0.61781
             14  O  2  Z      0.79245     0.80626
             15  O  2  S      1.46358     1.00964
             16  O  2  X      0.90269     0.89261
             17  O  2  Y      0.83967     0.85703
             18  O  2  Z      1.04776     1.02700
             19  H  3  S      0.41206     0.42723
             20  H  3  S      0.35432     0.40939
             21  O  4  S      1.98593     1.98010
             22  O  4  S      0.41011     0.56983
             23  O  4  X      0.60262     0.58564
             24  O  4  Y      0.73869     0.74257
             25  O  4  Z      0.77346     0.78413
             26  O  4  S      1.46361     1.00982
             27  O  4  X      0.77125     0.79345
             28  O  4  Y      0.98831     0.97168
             29  O  4  Z      1.03040     1.01143
             30  H  5  S      0.41203     0.42726
             31  H  5  S      0.35555     0.41028
             32  O  6  S      1.98593     1.98009
             33  O  6  S      0.41010     0.56975
             34  O  6  X      0.71121     0.71118
             35  O  6  Y      0.58438     0.56451
             36  O  6  Z      0.81922     0.83669
             37  O  6  S      1.46362     1.00972
             38  O  6  X      0.97311     0.96616
             39  O  6  Y      0.75131     0.76458
             40  O  6  Z      1.06555     1.04578
             41  H  7  S      0.41206     0.42727
             42  H  7  S      0.35509     0.40993

          ----- MULLIKEN ATOMIC OVERLAP POPULATIONS -----
          (OFF-DIAGONAL ELEMENTS NEED TO BE MULTIPLIED BY 2)

             1           2           3           4           5

    1    3.7878536
    2    0.1783001   8.4986626
    3    0.0273403   0.1294253   0.6107630
    4    0.1784210  -0.0172624  -0.0058620   8.5000321
    5    0.0274752  -0.0013525   0.0030274   0.1276570   0.6136053
    6    0.1787749  -0.0172303  -0.0013377  -0.0172481  -0.0058735
    7    0.0272723  -0.0058896   0.0030185  -0.0013528   0.0030425

             6           7

    6    8.4990105
    7    0.1283193   0.6127429

          TOTAL MULLIKEN AND LOWDIN ATOMIC POPULATIONS
       ATOM         MULL.POP.    CHARGE          LOW.POP.     CHARGE
    1 B             4.405437    0.594563         5.142950   -0.142950
    2 O             8.764653   -0.764653         8.448581   -0.448581
    3 H             0.766375    0.233625         0.836617    0.163383
    4 O             8.764385   -0.764385         8.448648   -0.448648
    5 H             0.767581    0.232419         0.837543    0.162457
    6 O             8.764415   -0.764415         8.448457   -0.448457
    7 H             0.767153    0.232847         0.837205    0.162795

          -------------------------------
          BOND ORDER AND VALENCE ANALYSIS     BOND ORDER THRESHOLD=0.050
          -------------------------------

                   BOND                       BOND                       BOND
  ATOM PAIR DIST  ORDER      ATOM PAIR DIST  ORDER      ATOM PAIR DIST  ORDER
    1   2  1.388  0.857        1   3  2.009  0.110        1   4  1.388  0.857
    1   5  2.009  0.111        1   6  1.388  0.857        1   7  2.009  0.110
    2   3  0.988  0.791        4   5  0.988  0.790        6   7  0.988  0.790

                       TOTAL       BONDED        FREE
      ATOM            VALENCE     VALENCE     VALENCE
    1 B                 3.279       2.902       0.377
    2 O                 1.703       1.692       0.011
    3 H                 0.968       0.954       0.014
    4 O                 1.704       1.692       0.011
    5 H                 0.969       0.955       0.014
    6 O                 1.704       1.693       0.011
    7 H                 0.969       0.954       0.014

          -----------------------------------------
          ATOMIC SPIN DENSITY AT THE NUCLEUS (A.U.)
          -----------------------------------------
                            SPIN DENS    ALPHA DENS     BETA DENS
    1  B            5.0     0.0843714      26.32202      26.23765
    2  O            8.0     0.2882463     116.85606     116.56781
    3  H            1.0     0.0031807       0.16829       0.16511
    4  O            8.0     0.2905480     116.85847     116.56792
    5  H            1.0     0.0033369       0.16836       0.16503
    6  O            8.0     0.2894015     116.85735     116.56795
    7  H            1.0     0.0033166       0.16836       0.16505

          ---------------------
          ELECTROSTATIC MOMENTS
          ---------------------

 POINT   1           X           Y           Z (BOHR)    CHARGE
                -8.816851   -2.701048   -0.101311       -1.00 (A.U.)
         DX          DY          DZ         /D/  (DEBYE)
     0.573206    0.083439    1.617048    1.717664
 ...... END OF PROPERTY EVALUATION ......
 CPU     0: STEP CPU TIME=     0.02 TOTAL CPU TIME=          0.7 (      0.0 MIN)
 TOTAL WALL CLOCK TIME=          0.7 SECONDS, CPU UTILIZATION IS    91.67%
               580000  WORDS OF DYNAMIC MEMORY USED
 EXECUTION OF GAMESS TERMINATED NORMALLY Sat May 16 22:18:37 2020
 DDI: 263640 bytes (0.3 MB / 0 MWords) used by master data server.
Note: The following floating-point exceptions are signalling: IEEE_DENORMALNote: The following floating-point exceptions are signalling: IEEE_DENORMALNote: The following floating-point exceptions are signalling: IEEE_DENORMALNote: The following floating-point exceptions are signalling: IEEE_DENORMAL

 ----------------------------------------
 CPU timing information for all processes
 ========================================
 0: 0.350 + 0.320 = 0.671
 1: 0.374 + 0.43 = 0.418
 2: 0.385 + 0.20 = 0.405
 3: 0.386 + 0.28 = 0.414
 4: 0.364 + 0.39 = 0.403
 5: 0.385 + 0.16 = 0.401
 ----------------------------------------



Note: The following floating-point exceptions are signalling: IEEE_DENORMALNote: The following floating-point exceptions are signalling: IEEE_DENORMAL

 ddikick.x: exited gracefully.
unset echo
----- accounting info -----
Files used on the master node pietdev were:
-rwxr-xr-x 1 piet piet      574 mei 16 22:18 /home/piet/scr/boricacid_fukui_acid.F05*
-rw-r--r-- 1 piet piet 68812800 mei 16 22:18 /home/piet/scr/boricacid_fukui_acid.F10
ls: No match.
ls: No match.
ls: No match.
za 16 mei 2020 22:18:40 CEST
0.138u 0.020s 0:03.91 3.8%	0+0k 0+8io 0pf+0w
