----- GAMESS execution script 'rungms' -----
This job is running on host pietdev
under operating system Linux at vr 22 mei 2020 16:30:17 CEST
Available scratch disk space (Kbyte units) at beginning of the job is
Filesystem     1K-blocks     Used Available Use% Mounted on
/dev/sda2      244568380 31372876 200702448  14% /
GAMESS temporary binary files will be written to /home/piet/scr
GAMESS supplementary output files will be written to /home/piet/gamess/scr
Copying input file d-ribose_geoopt.inp to your run's scratch directory...
cp d-ribose_geoopt.inp /home/piet/scr/d-ribose_geoopt.F05
unset echo
 
Assuming a single but multicore node.
 
/home/piet/gamess/ddikick.x /home/piet/gamess/gamess.03.x d-ribose_geoopt -ddi 1 8 pietdev:cpus=8 -scr /home/piet/scr

 Distributed Data Interface kickoff program.
 Initiating 8 compute processes on 1 nodes to run the following command:
 /home/piet/gamess/gamess.03.x d-ribose_geoopt 

          ******************************************************
          *         GAMESS VERSION = 30 SEP 2019 (R2)          *
          *             FROM IOWA STATE UNIVERSITY             *
          * M.W.SCHMIDT, K.K.BALDRIDGE, J.A.BOATZ, S.T.ELBERT, *
          *   M.S.GORDON, J.H.JENSEN, S.KOSEKI, N.MATSUNAGA,   *
          *          K.A.NGUYEN, S.J.SU, T.L.WINDUS,           *
          *       TOGETHER WITH M.DUPUIS, J.A.MONTGOMERY       *
          *         J.COMPUT.CHEM.  14, 1347-1363(1993)        *
          **************** 64 BIT LINUX VERSION ****************

  SINCE 1993, STUDENTS AND POSTDOCS WORKING AT IOWA STATE UNIVERSITY
  AND ALSO IN THEIR VARIOUS JOBS AFTER LEAVING ISU HAVE MADE IMPORTANT
  CONTRIBUTIONS TO THE CODE:
     IVANA ADAMOVIC, CHRISTINE AIKENS, YURI ALEXEEV, POOJA ARORA,
     ANDREY ASADCHEV, ROB BELL, PRADIPTA BANDYOPADHYAY, JONATHAN BENTZ,
     COLLEEN BERTONI, BRETT BODE, KURT BRORSEN, CALEB CARLIN, GALINA CHABAN,
     WEI CHEN, CHEOL HO CHOI, PAUL DAY, ALBERT DEFUSCO, NUWAN DESILVA,
     TIM DUDLEY, DMITRI FEDOROV, ALEX FINDLATER, GRAHAM FLETCHER, 
     MARK FREITAG, KURT GLAESEMANN, EMILIE B GUIDEZ, ANASTASIA GUNINA, 
     DAN KEMP, SAROM SOK LEANG, GRANT MERRILL,
     NORIYUKI MINEZAWA, JONATHAN MULLIN,
     TAKESHI NAGATA, SEAN NEDD, HEATHER NETZLOFF, BOSILJKA NJEGIC, RYAN OLSON,
     MIKE PAK, BUU PHAM, DAVID POOLE,
     SPENCER PRUITT, LUKE ROSKOP, TOSAPORN SATTASATHUCHANA,
     JIM SHOEMAKER, LYUDMILA SLIPCHENKO,
     TONY SMITH, JIE SONG, TETSUYA TAKETSUGU, SIMON WEBB,
     JORGE LUIS GALVEZ VALLEJO, PENG XU, SOOHAENG YOO,
     FEDERICO ZAHARIEV

  ADDITIONAL CODE HAS BEEN PROVIDED BY COLLABORATORS IN OTHER GROUPS:
     IOWA STATE UNIVERSITY:
          JOE IVANIC, AARON WEST, LAIMUTIS BYTAUTAS, KLAUS RUEDENBERG
     UNIVERSITY OF TOKYO: KIMIHIKO HIRAO, TAKAHITO NAKAJIMA,
          TAKAO TSUNEDA, MUNEAKI KAMIYA, SUSUMU YANAGISAWA,
          KIYOSHI YAGI, MAHITO CHIBA, SEIKEN TOKURA, NAOAKI KAWAKAMI
     UNIVERSITY OF AARHUS: FRANK JENSEN
     UNIVERSITY OF IOWA: VISVALDAS KAIRYS, HUI LI
     NATIONAL INST. OF STANDARDS AND TECHNOLOGY: WALT STEVENS, DAVID GARMER
     UNIVERSITY OF PISA: BENEDETTA MENNUCCI, JACOPO TOMASI
     UNIVERSITY OF MEMPHIS: HENRY KURTZ, PRAKASHAN KORAMBATH
     UNIVERSITY OF ALBERTA: TOBY ZENG, MARIUSZ KLOBUKOWSKI
     UNIVERSITY OF NEW ENGLAND: MARK SPACKMAN
     MIE UNIVERSITY: HIROAKI UMEDA
     NAT. INST. OF ADVANCED INDUSTRIAL SCIENCE AND TECHNOLOGY: KAZUO KITAURA
     MICHIGAN STATE UNIVERSITY:
          KAROL KOWALSKI, MARTA WLOCH, JEFFREY GOUR, JESSE LUTZ,
          WEI LI, JUN SHEN, J. EMILIANO DEUSTUA, PIOTR PIECUCH
     UNIVERSITY OF MINNESOTA:
          ANDREW SAND, PRACHI SHARMA, YINAN SHU
     UNIVERSITY OF SILESIA: MONIKA MUSIAL, STANISLAW KUCHARSKI
     FACULTES UNIVERSITAIRES NOTRE-DAME DE LA PAIX:
          OLIVIER QUINET, BENOIT CHAMPAGNE
     UNIVERSITY OF CALIFORNIA - SANTA BARBARA: BERNARD KIRTMAN
     INSTITUTE FOR MOLECULAR SCIENCE:
          KAZUYA ISHIMURA, MICHIO KATOUDA, AND SHIGERU NAGASE
     UNIVERSITY OF NOTRE DAME: ANNA POMOGAEVA, DAN CHIPMAN
     KYUSHU UNIVERSITY:
          HARUYUKI NAKANO,
          FENG LONG GU, JACEK KORCHOWIEC, MARCIN MAKOWSKI, AND YURIKO AOKI,
          HIROTOSHI MORI AND EISAKU MIYOSHI
     PENNSYLVANIA STATE UNIVERSITY:
          TZVETELIN IORDANOV, CHET SWALINA, JONATHAN SKONE,
          SHARON HAMMES-SCHIFFER
     WASEDA UNIVERSITY:
          MASATO KOBAYASHI, TOMOKO AKAMA, TSUGUKI TOUMA,
          TAKESHI YOSHIKAWA, YASUHIRO IKABATA, JUNJI SEINO,
          YUYA NAKAJIMA, HIROMI NAKAI
     NANJING UNIVERSITY: SHUHUA LI
     UNIVERSITY OF NEBRASKA:
          PEIFENG SU, DEJUN SI, NANDUN THELLAMUREGE, YALI WANG, HUI LI
     UNIVERSITY OF ZURICH: ROBERTO PEVERATI, KIM BALDRIDGE
     N. COPERNICUS UNIVERSITY AND JACKSON STATE UNIVERSITY:
          MARIA BARYSZ
     UNIVERSITY OF COPENHAGEN: Jimmy Kromann, CASPER STEINMANN
     TOKYO INSTITUTE OF TECHNOLOGY: HIROYA NAKATA
     NAGOYA UNIVERSITY: YOSHIO NISHIMOTO, STEPHAN IRLE
     MOSCOW STATE UNIVERSITY: VLADIMIR MIRONOV
     A.N.NESMEYANOV INSTITUTE OF ORGANOELEMENT COMPOUNDS OF RUSSIAN ACADEMY OF SCIENCES:
          IGOR S. GERASIMOV
     JOHANNES KEPLER UNIVERSITY LINZ:
          CHRISTIAN FRIEDL


 PARALLEL VERSION RUNNING ON        8 PROCESSORS IN        1 NODES.

 EXECUTION OF GAMESS BEGUN Fri May 22 16:30:17 2020

            ECHO OF THE FIRST FEW INPUT CARDS -
 INPUT CARD> $BASIS GBASIS=N21 NGAUSS=3 $END                                                
 INPUT CARD> $CONTRL SCFTYP=RHF RUNTYP=OPTIMIZE DFTTYP=B3LYP MAXIT=60 MULT=1 ICHARG=0 $END  
 INPUT CARD> $SYSTEM MEMDDI=1000 MWORDS=30 $END                                             
 INPUT CARD> $STATPT NSTEP=999 $END                                                         
 INPUT CARD> $SCF DIRSCF=.TRUE. $END                                                        
 INPUT CARD> $DATA                                                                          
 INPUT CARD>                                                                                
 INPUT CARD>C1                                                                              
 INPUT CARD>O 8.0000000 -3.36678670 0.32868820 -0.60579150                                  
 INPUT CARD>C 6.0000000 -2.54466750 -0.41345640 -0.10126730                                 
 INPUT CARD>C 6.0000000 -1.22940490 0.13582170 0.42525760                                   
 INPUT CARD>H 1.0000000 -1.19680300 -0.06190670 1.51169390                                  
 INPUT CARD>O 8.0000000 -1.17048580 1.53157220 0.20418230                                   
 INPUT CARD>C 6.0000000 -0.02997080 -0.62082680 -0.21676270                                 
 INPUT CARD>H 1.0000000 -0.14598830 -0.63443930 -1.30646690                                 
 INPUT CARD>O 8.0000000 -0.09460610 -1.98581400 0.19800670                                  
 INPUT CARD>C 6.0000000 1.32815480 0.03050280 0.11557450                                    
 INPUT CARD>H 1.0000000 1.41654120 0.13532560 1.21319400                                    
 INPUT CARD>O 8.0000000 1.46445050 1.30411740 -0.50602500                                   
 INPUT CARD>C 6.0000000 2.51456270 -0.79446490 -0.39186540                                  
 INPUT CARD>O 8.0000000 3.74126460 -0.15479570 -0.07637960                                  
 INPUT CARD>H 1.0000000 -2.70915900 -1.50080160 -0.01725940                                 
 INPUT CARD>H 1.0000000 -2.00491430 1.78462900 -0.23608460                                  
 INPUT CARD>H 1.0000000 0.22284560 -2.06265370 1.10979570                                   
 INPUT CARD>H 1.0000000 0.67036600 1.82830300 -0.30641150                                   
 INPUT CARD>H 1.0000000 2.54248130 -1.77904110 0.08019750                                   
 INPUT CARD>H 1.0000000 2.40781510 -0.93506410 -1.47869120                                  
 INPUT CARD>H 1.0000000 3.66910470 0.76200420 -0.38189740                                   
 INPUT CARD> $END                                                                           
   30000000 WORDS OF MEMORY AVAILABLE

     BASIS OPTIONS
     -------------
     GBASIS=N21          IGAUSS=       3      POLAR=NONE    
     NDFUNC=       0     NFFUNC=       0     DIFFSP=       F
     NPFUNC=       0      DIFFS=       F     BASNAM=        


     RUN TITLE
     ---------
                                                                                 

 THE POINT GROUP OF THE MOLECULE IS C1      
 THE ORDER OF THE PRINCIPAL AXIS IS     0

 ATOM      ATOMIC                      COORDINATES (BOHR)
           CHARGE         X                   Y                   Z
 O           8.0    -6.3623043221        0.6211306334       -1.1447799407
 C           6.0    -4.8087243049       -0.7813193039       -0.1913674485
 C           6.0    -2.3232383890        0.2566657962        0.8036203382
 H           1.0    -2.2616297313       -0.1169866998        2.8566872483
 O           8.0    -2.2118974345        2.8942517884        0.3858485985
 C           6.0    -0.0566365996       -1.1731925378       -0.4096221074
 H           1.0    -0.2758778844       -1.1989164328       -2.4688644530
 O           8.0    -0.1787796058       -3.7526443226        0.3741784067
 C           6.0     2.5098486413        0.0576419339        0.2184041362
 H           1.0     2.6768747183        0.2557283031        2.2926042299
 O           8.0     2.7674101676        2.4644245418       -0.9562485929
 C           6.0     4.7518344819       -1.5013209679       -0.7405182301
 O           8.0     7.0699649416       -0.2925214571       -0.1443365151
 H           1.0    -5.1195681672       -2.8361037859       -0.0326155367
 H           1.0    -3.7887386559        3.3724597997       -0.4461352039
 H           1.0     0.4211171216       -3.8978503006        2.0972097754
 H           1.0     1.2668080515        3.4549916925       -0.5790337745
 H           1.0     4.8045929859       -3.3619001999        0.1515512999
 H           1.0     4.5501107681       -1.7670149300       -2.7943211885
 H           1.0     6.9336025033        1.4399791395       -0.7216814414

          INTERNUCLEAR DISTANCES (ANGS.)
          ------------------------------

                1 O          2 C          3 C          4 H          5 O     

   1 O       0.0000000    1.2170469 *  2.3808949 *  3.0569819    2.6318672 *
   2 C       1.2170469 *  0.0000000    1.5194902 *  2.1311897 *  2.4010021 *
   3 C       2.3808949 *  1.5194902 *  0.0000000    1.1047639 *  1.4143780 *
   4 H       3.0569819    2.1311897 *  1.1047639 *  0.0000000    2.0614204 *
   5 O       2.6318672 *  2.4010021 *  1.4143780 *  2.0614204 *  0.0000000  
   6 C       3.4910260    2.5258743 *  1.5567110 *  2.1590394 *  2.4720013 *
   7 H       3.4339632    2.6935110 *  2.1831086 *  3.0617047    2.8325363 *
   8 O       4.0878084    2.9265465 *  2.4167642 *  2.5772139 *  3.6782551  
   9 C       4.7593864    3.9042122    2.5783924 *  2.8867111 *  2.9162074 *
  10 H       5.1211642    4.2095302    2.7607743 *  2.6377207 *  3.1081052  
  11 O       4.9297331    4.3802872    3.0804316    3.6082519    2.7384337 *
  12 C       5.9914529    5.0818722    3.9434016    4.2349044    4.3983297  
  13 O       7.1441183    6.2913009    5.0043635    5.1879782    5.2007541  
  14 H       2.0312255 *  1.1029208 *  2.2503398 *  2.5875350 *  3.4076154  
  15 H       2.0275954 *  2.2673969 *  1.9383895 *  2.6678583 *  0.9768027 *
  16 H       4.6418978    3.4417516    2.7223001 *  2.4859431 *  3.9597939  
  17 H       4.3170679    3.9247942    2.6474444 *  3.2194285    1.9332590 *
  18 H       6.3113035    5.2703732    4.2441597    4.3566018    4.9761087  
  19 H       5.9753703    5.1668612    4.2427805    4.7642500    4.6605359  
  20 H       7.0527767    6.3301995    5.0038985    5.2859791    4.9353177  

                6 C          7 H          8 O          9 C         10 H     

   1 O       3.4910260    3.4339632    4.0878084    4.7593864    5.1211642  
   2 C       2.5258743 *  2.6935110 *  2.9265465 *  3.9042122    4.2095302  
   3 C       1.5567110 *  2.1831086 *  2.4167642 *  2.5783924 *  2.7607743 *
   4 H       2.1590394 *  3.0617047    2.5772139 *  2.8867111 *  2.6377207 *
   5 O       2.4720013 *  2.8325363 *  3.6782551    2.9162074 *  3.1081052  
   6 C       0.0000000    1.0959474 *  1.4280761 *  1.5424602 *  2.1700091 *
   7 H       1.0959474 *  0.0000000    2.0229420 *  2.1534734 *  3.0631238  
   8 O       1.4280761 *  2.0229420 *  0.0000000    2.4691248 *  2.7952468 *
   9 C       1.5424602 *  2.1534734 *  2.4691248 *  0.0000000    1.1061503 *
  10 H       2.1700091 *  3.0631238    2.7952468 *  1.1061503 *  0.0000000  
  11 O       2.4540534 *  2.6442811 *  3.7080948    1.4237474 *  2.0794431 *
  12 C       2.5564549 *  2.8179134 *  2.9283141 *  1.5315452 *  2.1555457 *
  13 O       3.8025135    4.1053511    4.2593215    2.4278140 *  2.6742306 *
  14 H       2.8270491 *  2.9970792 *  2.6678575 *  4.3200047    4.6056845  
  15 H       3.1123934    3.2331433    4.2489944    3.7828524    4.0653374  
  16 H       1.9754843 *  2.8309291 *  0.9685242 *  2.5673894 *  2.5033404 *
  17 H       2.5488714 *  2.7805835 *  3.9226405    1.9603173 *  2.3941910 *
  18 H       2.8367509 *  3.2343191    2.6478036 *  2.1795159 *  2.4932353 *
  19 H       2.7629710 *  2.5771978 *  3.1902199    2.1539891 *  3.0617975  
  20 H       3.9525499    4.1665115    4.6959890    2.5025225 *  2.8303860 *

               11 O         12 C         13 O         14 H         15 H     

   1 O       4.9297331    5.9914529    7.1441183    2.0312255 *  2.0275954 *
   2 C       4.3802872    5.0818722    6.2913009    1.1029208 *  2.2673969 *
   3 C       3.0804316    3.9434016    5.0043635    2.2503398 *  1.9383895 *
   4 H       3.6082519    4.2349044    5.1879782    2.5875350 *  2.6678583 *
   5 O       2.7384337 *  4.3983297    5.2007541    3.4076154    0.9768027 *
   6 C       2.4540534 *  2.5564549 *  3.8025135    2.8270491 *  3.1123934  
   7 H       2.6442811 *  2.8179134 *  4.1053511    2.9970792 *  3.2331433  
   8 O       3.7080948    2.9283141 *  4.2593215    2.6678575 *  4.2489944  
   9 C       1.4237474 *  1.5315452 *  2.4278140 *  4.3200047    3.7828524  
  10 H       2.0794431 *  2.1555457 *  2.6742306 *  4.6056845    4.0653374  
  11 O       0.0000000    2.3494288 *  2.7380477 *  5.0522746    3.5128694  
  12 C       2.3494288 *  0.0000000    1.4189805 *  5.2845539    5.2059260  
  13 O       2.7380477 *  1.4189805 *  0.0000000    6.5896276    6.0667492  
  14 H       5.0522746    5.2845539    6.5896276    0.0000000    3.3671797  
  15 H       3.5128694    5.2059260    6.0667492    3.3671797    0.0000000  
  16 H       3.9354297    3.0191483    4.1744708    3.1910158    4.6449857  
  17 H       0.9722069 *  3.2073783    3.6627876    4.7526556    2.6765608 *
  18 H       3.3183842    1.0922514 *  2.0247891 *  5.2599088    5.7860682  
  19 H       2.6172409 *  1.1010693 *  2.0864765 *  5.3515667    5.3303830  
  20 H       2.2737182 *  1.9379532 *  0.9690564 *  6.7775732    5.7672796  

               16 H         17 H         18 H         19 H         20 H     

   1 O       4.6418978    4.3170679    6.3113035    5.9753703    7.0527767  
   2 C       3.4417516    3.9247942    5.2703732    5.1668612    6.3301995  
   3 C       2.7223001 *  2.6474444 *  4.2441597    4.2427805    5.0038985  
   4 H       2.4859431 *  3.2194285    4.3566018    4.7642500    5.2859791  
   5 O       3.9597939    1.9332590 *  4.9761087    4.6605359    4.9353177  
   6 C       1.9754843 *  2.5488714 *  2.8367509 *  2.7629710 *  3.9525499  
   7 H       2.8309291 *  2.7805835 *  3.2343191    2.5771978 *  4.1665115  
   8 O       0.9685242 *  3.9226405    2.6478036 *  3.1902199    4.6959890  
   9 C       2.5673894 *  1.9603173 *  2.1795159 *  2.1539891 *  2.5025225 *
  10 H       2.5033404 *  2.3941910 *  2.4932353 *  3.0617975    2.8303860 *
  11 O       3.9354297    0.9722069 *  3.3183842    2.6172409 *  2.2737182 *
  12 C       3.0191483    3.2073783    1.0922514 *  1.1010693 *  1.9379532 *
  13 O       4.1744708    3.6627876    2.0247891 *  2.0864765 *  0.9690564 *
  14 H       3.1910158    4.7526556    5.2599088    5.3515667    6.7775732  
  15 H       4.6449857    2.6765608 *  5.7860682    5.3303830    5.7672796  
  16 H       0.0000000    4.1647883    2.5536676 *  3.5701281    4.6989938  
  17 H       4.1647883    0.0000000    4.0825499    3.4683089    3.1835711  
  18 H       2.5536676 *  4.0825499    0.0000000    1.7777981 *  2.8177514 *
  19 H       3.5701281    3.4683089    1.7777981 *  0.0000000    2.3819842 *
  20 H       4.6989938    3.1835711    2.8177514 *  2.3819842 *  0.0000000  

  * ... LESS THAN  3.000


     ATOMIC BASIS SET
     ----------------
 THE CONTRACTED PRIMITIVE FUNCTIONS HAVE BEEN UNNORMALIZED
 THE CONTRACTED BASIS FUNCTIONS ARE NOW NORMALIZED TO UNITY

  SHELL TYPE  PRIMITIVE        EXPONENT          CONTRACTION COEFFICIENT(S)

 O         

      1   S       1           322.0370000    0.059239393389
      1   S       2            48.4308000    0.351499960776
      1   S       3            10.4206000    0.707657921031

      2   L       4             7.4029400   -0.404453583190    0.244586106967
      2   L       5             1.5762000    1.221561761397    0.853955373466

      3   L       6             0.3736840    1.000000000000    1.000000000000

 C         

      4   S       7           172.2560000    0.061766907377
      4   S       8            25.9109000    0.358794042852
      4   S       9             5.5333500    0.700713083689

      5   L      10             3.6649800   -0.395895162119    0.236459946619
      5   L      11             0.7705450    1.215834355681    0.860618805716

      6   L      12             0.1958570    1.000000000000    1.000000000000

 C         

      7   S      13           172.2560000    0.061766907377
      7   S      14            25.9109000    0.358794042852
      7   S      15             5.5333500    0.700713083689

      8   L      16             3.6649800   -0.395895162119    0.236459946619
      8   L      17             0.7705450    1.215834355681    0.860618805716

      9   L      18             0.1958570    1.000000000000    1.000000000000

 H         

     10   S      19             5.4471780    0.156284978695
     10   S      20             0.8245472    0.904690876670

     11   S      21             0.1831916    1.000000000000

 O         

     12   S      22           322.0370000    0.059239393389
     12   S      23            48.4308000    0.351499960776
     12   S      24            10.4206000    0.707657921031

     13   L      25             7.4029400   -0.404453583190    0.244586106967
     13   L      26             1.5762000    1.221561761397    0.853955373466

     14   L      27             0.3736840    1.000000000000    1.000000000000

 C         

     15   S      28           172.2560000    0.061766907377
     15   S      29            25.9109000    0.358794042852
     15   S      30             5.5333500    0.700713083689

     16   L      31             3.6649800   -0.395895162119    0.236459946619
     16   L      32             0.7705450    1.215834355681    0.860618805716

     17   L      33             0.1958570    1.000000000000    1.000000000000

 H         

     18   S      34             5.4471780    0.156284978695
     18   S      35             0.8245472    0.904690876670

     19   S      36             0.1831916    1.000000000000

 O         

     20   S      37           322.0370000    0.059239393389
     20   S      38            48.4308000    0.351499960776
     20   S      39            10.4206000    0.707657921031

     21   L      40             7.4029400   -0.404453583190    0.244586106967
     21   L      41             1.5762000    1.221561761397    0.853955373466

     22   L      42             0.3736840    1.000000000000    1.000000000000

 C         

     23   S      43           172.2560000    0.061766907377
     23   S      44            25.9109000    0.358794042852
     23   S      45             5.5333500    0.700713083689

     24   L      46             3.6649800   -0.395895162119    0.236459946619
     24   L      47             0.7705450    1.215834355681    0.860618805716

     25   L      48             0.1958570    1.000000000000    1.000000000000

 H         

     26   S      49             5.4471780    0.156284978695
     26   S      50             0.8245472    0.904690876670

     27   S      51             0.1831916    1.000000000000

 O         

     28   S      52           322.0370000    0.059239393389
     28   S      53            48.4308000    0.351499960776
     28   S      54            10.4206000    0.707657921031

     29   L      55             7.4029400   -0.404453583190    0.244586106967
     29   L      56             1.5762000    1.221561761397    0.853955373466

     30   L      57             0.3736840    1.000000000000    1.000000000000

 C         

     31   S      58           172.2560000    0.061766907377
     31   S      59            25.9109000    0.358794042852
     31   S      60             5.5333500    0.700713083689

     32   L      61             3.6649800   -0.395895162119    0.236459946619
     32   L      62             0.7705450    1.215834355681    0.860618805716

     33   L      63             0.1958570    1.000000000000    1.000000000000

 O         

     34   S      64           322.0370000    0.059239393389
     34   S      65            48.4308000    0.351499960776
     34   S      66            10.4206000    0.707657921031

     35   L      67             7.4029400   -0.404453583190    0.244586106967
     35   L      68             1.5762000    1.221561761397    0.853955373466

     36   L      69             0.3736840    1.000000000000    1.000000000000

 H         

     37   S      70             5.4471780    0.156284978695
     37   S      71             0.8245472    0.904690876670

     38   S      72             0.1831916    1.000000000000

 H         

     39   S      73             5.4471780    0.156284978695
     39   S      74             0.8245472    0.904690876670

     40   S      75             0.1831916    1.000000000000

 H         

     41   S      76             5.4471780    0.156284978695
     41   S      77             0.8245472    0.904690876670

     42   S      78             0.1831916    1.000000000000

 H         

     43   S      79             5.4471780    0.156284978695
     43   S      80             0.8245472    0.904690876670

     44   S      81             0.1831916    1.000000000000

 H         

     45   S      82             5.4471780    0.156284978695
     45   S      83             0.8245472    0.904690876670

     46   S      84             0.1831916    1.000000000000

 H         

     47   S      85             5.4471780    0.156284978695
     47   S      86             0.8245472    0.904690876670

     48   S      87             0.1831916    1.000000000000

 H         

     49   S      88             5.4471780    0.156284978695
     49   S      89             0.8245472    0.904690876670

     50   S      90             0.1831916    1.000000000000

 TOTAL NUMBER OF BASIS SET SHELLS             =   50
 NUMBER OF CARTESIAN GAUSSIAN BASIS FUNCTIONS =  110
 NUMBER OF ELECTRONS                          =   80
 CHARGE OF MOLECULE                           =    0
 SPIN MULTIPLICITY                            =    1
 NUMBER OF OCCUPIED ORBITALS (ALPHA)          =   40
 NUMBER OF OCCUPIED ORBITALS (BETA )          =   40
 TOTAL NUMBER OF ATOMS                        =   20
 THE NUCLEAR REPULSION ENERGY IS      581.3278318529

 SELECTED MURRAY-HANDY-LAMING RADIAL GRID

 LEGACY BECKE'S FUZZY CELL METHOD

 SELECTED ORIGINAL BECKE'S PARTITION FUNCTION

     LEBEDEV GRID-BASED DFT OPTIONS
     ------------------------------
     DFTTYP=B3LYP   
     NRAD  =      96     NLEB  =     302
     NRAD0 =      24     NLEB0 =     110
     SWOFF =    5.00E-03 (PURE SCF -> DFT)
     SWITCH=    3.00E-04 (COARSE -> TIGHT GRID)
     THRESH=    0.00E+00 GTHRE=    1.00E+00

 GRIMME'S EMPIRICAL DISPERSION CORRECTION= F

     $CONTRL OPTIONS
     ---------------
 SCFTYP=RHF          RUNTYP=OPTIMIZE     EXETYP=RUN     
 MPLEVL=       0     CITYP =NONE         CCTYP =NONE         VBTYP =NONE    
 DFTTYP=B3LYP        TDDFT =NONE    
 MULT  =       1     ICHARG=       0     NZVAR =       0     COORD =UNIQUE  
 PP    =NONE         RELWFN=NONE         LOCAL =NONE         NUMGRD=       F
 ISPHER=      -1     NOSYM =       0     MAXIT =      60     UNITS =ANGS    
 PLTORB=       F     MOLPLT=       F     AIMPAC=       F     FRIEND=        
 NPRINT=       7     IREST =       0     GEOM  =INPUT   
 NORMF =       0     NORMP =       0     ITOL  =      20     ICUT  =       9
 INTTYP=BEST         GRDTYP=BEST         QMTTOL= 1.0E-06

     $SYSTEM OPTIONS
     ---------------
  REPLICATED MEMORY=    30000000 WORDS (ON EVERY NODE).
 DISTRIBUTED MEMDDI=        1000 MILLION WORDS IN AGGREGATE,
 MEMDDI DISTRIBUTED OVER   8 PROCESSORS IS   125000000 WORDS/PROCESSOR.
 TOTAL MEMORY REQUESTED ON EACH PROCESSOR=   155000000 WORDS.
 TIMLIM=      525600.00 MINUTES, OR     365.0 DAYS.
 PARALL= T  BALTYP=  DLB     KDIAG=    0  COREFL= F
 MXSEQ2=     300 MXSEQ3=     150  mem10=         0

          ----------------
          PROPERTIES INPUT
          ----------------

     MOMENTS            FIELD           POTENTIAL          DENSITY
 IEMOM =       1   IEFLD =       0   IEPOT =       0   IEDEN =       0
 WHERE =COMASS     WHERE =NUCLEI     WHERE =NUCLEI     WHERE =NUCLEI  
 OUTPUT=BOTH       OUTPUT=BOTH       OUTPUT=BOTH       OUTPUT=BOTH    
 IEMINT=       0   IEFINT=       0                     IEDINT=       0
                                                       MORB  =       0
          EXTRAPOLATION IN EFFECT
          DIIS IN EFFECT
 ORBITAL PRINTING OPTION: NPREO=     1   110     2     1

     -------------------------------
     INTEGRAL TRANSFORMATION OPTIONS
     -------------------------------
     NWORD  =            0
     CUTOFF = 1.0E-09     MPTRAN =       0
     DIRTRF =       T     AOINTS =DUP     

          ----------------------
          INTEGRAL INPUT OPTIONS
          ----------------------
 NOPK  =       1 NORDER=       0 SCHWRZ=       T

     ------------------------------------------
     THE POINT GROUP IS C1 , NAXIS= 0, ORDER= 1
     ------------------------------------------

     DIMENSIONS OF THE SYMMETRY SUBSPACES ARE
 A   =  110

 ..... DONE SETTING UP THE RUN .....
 CPU     0: STEP CPU TIME=     0.02 TOTAL CPU TIME=          0.0 (      0.0 MIN)
 TOTAL WALL CLOCK TIME=          0.0 SECONDS, CPU UTILIZATION IS   100.00%


          -----------------------------
          STATIONARY POINT LOCATION RUN
          -----------------------------

 OBTAINING INITIAL HESSIAN, HESS=GUESS   
 CARTESIAN COORDINATE OPTIMIZATION USING BADGER'S RULE FORCE CONSTANT GUESS

          PARAMETERS CONTROLLING GEOMETRY SEARCH ARE
          METHOD =QA                  UPHESS =BFGS    
          NNEG   =         0          NFRZ   =         0
          NSTEP  =       999          IFOLOW =         1
          HESS   =GUESS               RESTAR =         F
          IHREP  =         0          HSSEND =         F
          NPRT   =         0          NPUN   =         0
          OPTTOL = 1.000E-04          RMIN   = 1.500E-03
          RMAX   = 1.000E-01          RLIM   = 7.000E-02
          DXMAX  = 3.000E-01          PURIFY =         F
          MOVIE  =         F          TRUPD  =         T
          TRMAX  = 5.000E-01          TRMIN  = 5.000E-02
          ITBMAT =         5          STPT   =         F
          STSTEP = 1.000E-02          PROJCT=          T

 BEGINNING GEOMETRY SEARCH POINT NSERCH=   0 ...

 COORDINATES OF ALL ATOMS ARE (ANGS)
   ATOM   CHARGE       X              Y              Z
 ------------------------------------------------------------
 O           8.0  -3.3667867000   0.3286882000  -0.6057915000
 C           6.0  -2.5446675000  -0.4134564000  -0.1012673000
 C           6.0  -1.2294049000   0.1358217000   0.4252576000
 H           1.0  -1.1968030000  -0.0619067000   1.5116939000
 O           8.0  -1.1704858000   1.5315722000   0.2041823000
 C           6.0  -0.0299708000  -0.6208268000  -0.2167627000
 H           1.0  -0.1459883000  -0.6344393000  -1.3064669000
 O           8.0  -0.0946061000  -1.9858140000   0.1980067000
 C           6.0   1.3281548000   0.0305028000   0.1155745000
 H           1.0   1.4165412000   0.1353256000   1.2131940000
 O           8.0   1.4644505000   1.3041174000  -0.5060250000
 C           6.0   2.5145627000  -0.7944649000  -0.3918654000
 O           8.0   3.7412646000  -0.1547957000  -0.0763796000
 H           1.0  -2.7091590000  -1.5008016000  -0.0172594000
 H           1.0  -2.0049143000   1.7846290000  -0.2360846000
 H           1.0   0.2228456000  -2.0626537000   1.1097957000
 H           1.0   0.6703660000   1.8283030000  -0.3064115000
 H           1.0   2.5424813000  -1.7790411000   0.0801975000
 H           1.0   2.4078151000  -0.9350641000  -1.4786912000
 H           1.0   3.6691047000   0.7620042000  -0.3818974000

          ********************
          1 ELECTRON INTEGRALS
          ********************
 ...... END OF ONE-ELECTRON INTEGRALS ......
 CPU     0: STEP CPU TIME=     0.01 TOTAL CPU TIME=          0.0 (      0.0 MIN)
 TOTAL WALL CLOCK TIME=          0.0 SECONDS, CPU UTILIZATION IS    75.00%

          -------------
          GUESS OPTIONS
          -------------
          GUESS =HUCKEL            NORB  =       0          NORDER=       0
          MIX   =       F          PRTMO =       F          PUNMO =       F
          TOLZ  = 1.0E-08          TOLE  = 1.0E-05
          SYMDEN=       F          PURIFY=       F

 INITIAL GUESS ORBITALS GENERATED BY HUCKEL   ROUTINE.
 HUCKEL GUESS REQUIRES    117020 WORDS.

 SYMMETRIES FOR INITIAL GUESS ORBITALS FOLLOW.   BOTH SET(S).
    40 ORBITALS ARE OCCUPIED (   10 CORE ORBITALS).
    11=A       12=A       13=A       14=A       15=A       16=A       17=A   
    18=A       19=A       20=A       21=A       22=A       23=A       24=A   
    25=A       26=A       27=A       28=A       29=A       30=A       31=A   
    32=A       33=A       34=A       35=A       36=A       37=A       38=A   
    39=A       40=A       41=A       42=A       43=A       44=A       45=A   
    46=A       47=A       48=A       49=A       50=A   
 ...... END OF INITIAL ORBITAL SELECTION ......
 CPU     0: STEP CPU TIME=     0.02 TOTAL CPU TIME=          0.0 (      0.0 MIN)
 TOTAL WALL CLOCK TIME=          0.1 SECONDS, CPU UTILIZATION IS    83.33%

                    ----------------------
                    AO INTEGRAL TECHNOLOGY
                    ----------------------
     S,P,L SHELL ROTATED AXIS INTEGRALS, REPROGRAMMED BY
        KAZUYA ISHIMURA (IMS) AND JOSE SIERRA (SYNSTAR).
     S,P,D,L SHELL ROTATED AXIS INTEGRALS PROGRAMMED BY
        KAZUYA ISHIMURA (INSTITUTE FOR MOLECULAR SCIENCE).
     S,P,D,F,G SHELL TO TOTAL QUARTET ANGULAR MOMENTUM SUM 5,
        ERIC PROGRAM BY GRAHAM FLETCHER (ELORET AND NASA ADVANCED
        SUPERCOMPUTING DIVISION, AMES RESEARCH CENTER).
     S,P,D,F,G,L SHELL GENERAL RYS QUADRATURE PROGRAMMED BY
        MICHEL DUPUIS (PACIFIC NORTHWEST NATIONAL LABORATORY).

          --------------------
          2 ELECTRON INTEGRALS
          --------------------

 DIRECT SCF METHOD SKIPS INTEGRAL STORAGE ON DISK.
 DIRECT TRANSFORMATION SKIPS AO INTEGRAL STORAGE ON DISK.
  ...... END OF TWO-ELECTRON INTEGRALS .....
 CPU     0: STEP CPU TIME=     0.01 TOTAL CPU TIME=          0.1 (      0.0 MIN)
 TOTAL WALL CLOCK TIME=          0.1 SECONDS, CPU UTILIZATION IS    85.71%

          --------------------------
             R-B3LYP SCF CALCULATION
          --------------------------

     NUCLEAR ENERGY =       581.3278318529
     MAXIT =   60     NPUNCH=    2
     EXTRAP=T  DAMP=F  SHIFT=F  RSTRCT=F  DIIS=T  DEM=F  SOSCF=F
         DENSITY MATRIX CONVERGENCE THRESHOLD=  2.00E-05
     COARSE -> FINE DFT GRID SWITCH THRESHOLD=  3.00E-04 (SWITCH IN $DFT)
                   HF -> DFT SWITCH THRESHOLD=  5.00E-03 (SWOFF IN $DFT)
     MEMORY REQUIRED FOR RHF ITERS=    792108 WORDS.

 DIRECT SCF CALCULATION, SCHWRZ=T   FDIFF=T,  DIRTHR=  0.00E+00 NITDIR=10
 SCHWARZ INEQUALITY OVERHEAD:      5633 INTEGRALS, T=        0.00

 DFT CODE IS SWITCHING FROM THE FINE GRID NRAD= 96,  NLEB=  302
                      TO THE COARSE GRID NRAD0= 24, NLEB0=  110

     EXCHANGE FUNCTIONAL   =B88&HFX   
     CORRELATION FUNCTIONAL=LYP88&VWN5
     DFT THRESHOLD         =.690E-08
     GRID CHANGE THRESHOLD =.300E-03
 FOR AN EULER-MACLAURIN QUADRATURE USING  96 RADIAL POINTS:
 SMALLEST GAUSSIAN PRIMITIVE EXPONENT=        0.1831915800 OF TYPE -S-
 ON ATOM NUMBER   4 HAS RADIAL NORMALIZATION=  1.000000
  LARGEST GAUSSIAN PRIMITIVE EXPONENT=      322.0370000000 OF TYPE -S-
 ON ATOM NUMBER   1 HAS RADIAL NORMALIZATION=  1.000000
 DFT IS SWITCHED OFF, PERFORMING PURE SCF UNTIL SWOFF THRESHOLD IS REACHED.

                                                                                   NONZERO     BLOCKS
 ITER EX DEM     TOTAL ENERGY        E CHANGE  DENSITY CHANGE    DIIS ERROR      INTEGRALS    SKIPPED
   1  0  0     -564.6740382077  -564.6740382077   0.819748512   0.681293566       10530766     381582
          * * *   INITIATING DIIS PROCEDURE   * * *
   2  1  0     -566.1453193039    -1.4712810962   0.130288407   0.181718366       10514342     389216
   3  2  0     -566.2271753421    -0.0818560383   0.116705822   0.139619856       10416390     409855
   4  3  0     -566.2621602540    -0.0349849119   0.029909718   0.024904048       10267907     428689
   5  4  0     -566.2647802971    -0.0026200431   0.004294540   0.004173335       10118421     440202
 CONVERGED TO SWOFF, SO DFT CALCULATION IS NOW SWITCHED ON.
          * * *   INITIATING DIIS PROCEDURE   * * *
   6  5  0     -569.0982204893    -2.8334401922   0.150107563   0.072173883       10537942     377470
   7  6  0     -569.1375619298    -0.0393414405   0.125909429   0.064107685       10454500     404676
   8  7  0     -569.1327021208     0.0048598090   0.076522646   0.105900685       10344459     419886
   9  8  0     -569.1481095519    -0.0154074311   0.011431819   0.025214657       10207346     434258
  10  9  0     -569.1490403082    -0.0009307563   0.003223424   0.004034306        9877324     455670
  11 10  0     -569.1490775579    -0.0000372497   0.000726930   0.000487016        9374378     485579
  12 11  0     -569.1490791861    -0.0000016282   0.000091968   0.000124178        8884064     505406
 DFT CODE IS SWITCHING BACK TO THE FINE GRID
          * * *   INITIATING DIIS PROCEDURE   * * *
  13 12  0     -569.1524321086    -0.0033529225   0.001852529   0.001385097       10541268     375446
  14 13  0     -569.1524624241    -0.0000303156   0.002877813   0.000915807        9619843     472346
  15 14  0     -569.1524647372    -0.0000023131   0.000971621   0.000815903        9280133     490343
  16 15  0     -569.1524684160    -0.0000036788   0.000218577   0.000215152        8826287     510803
  17 16  0     -569.1524684430    -0.0000000270   0.000086829   0.000180717        8039057     546110
  18 17  0     -569.1524684779    -0.0000000349   0.000009929   0.000008567        7420821     574963
  19 18  0     -569.1524684787    -0.0000000009   0.000002976   0.000004599        6851314     593445

          -----------------
          DENSITY CONVERGED
          -----------------
     TIME TO FORM FOCK OPERATORS=      12.7 SECONDS (       0.7 SEC/ITER)
     FOCK TIME ON FIRST ITERATION=       0.1, LAST ITERATION=       1.6
     TIME TO SOLVE SCF EQUATIONS=       0.2 SECONDS (       0.0 SEC/ITER)

 FINAL R-B3LYP ENERGY IS     -569.1524684787 AFTER  19 ITERATIONS
 DFT EXCHANGE + CORRELATION ENERGY =       -59.3171530967
 TOTAL ELECTRON NUMBER             =        80.0000002305

          ------------
          EIGENVECTORS
          ------------

                      1          2          3          4          5
                  -19.0799   -19.0608   -19.0526   -19.0178   -19.0051
                     A          A          A          A          A   
    1  O  1  S    0.982645   0.007490   0.002922   0.000276   0.000106
    2  O  1  S    0.106642   0.000002  -0.000061  -0.000068  -0.000033
    3  O  1  X    0.003321   0.000065  -0.000039  -0.000015   0.000010
    4  O  1  Y   -0.002439   0.000259   0.000044  -0.000045  -0.000010
    5  O  1  Z    0.001963   0.000020   0.000079   0.000022  -0.000023
    6  O  1  S   -0.059842   0.005126   0.001741   0.000553   0.000269
    7  O  1  X   -0.011942   0.001325   0.000611   0.000313   0.000054
    8  O  1  Y    0.008500  -0.001504  -0.000344   0.000158   0.000031
    9  O  1  Z   -0.006998   0.000667  -0.000082   0.000009   0.000122
   10  C  2  S    0.000083   0.000214   0.000100   0.000053  -0.000002
   11  C  2  S    0.000296   0.000449   0.000616   0.000326  -0.000109
   12  C  2  X   -0.001929  -0.000519   0.000156   0.000067  -0.000150
   13  C  2  Y    0.000695  -0.000116   0.000072   0.000065   0.000019
   14  C  2  Z   -0.001074  -0.000251  -0.000117   0.000041   0.000007
   15  C  2  S    0.023549  -0.008024  -0.002982  -0.001967  -0.000723
   16  C  2  X   -0.010556  -0.000710  -0.000497  -0.001197  -0.000198
   17  C  2  Y    0.020517  -0.009936  -0.002379  -0.001446  -0.000629
   18  C  2  Z   -0.008254   0.002200   0.001205   0.000082  -0.000114
   19  C  3  S    0.000265  -0.001028   0.000071   0.000042  -0.000070
   20  C  3  S    0.000984  -0.004474  -0.000269   0.000485  -0.000423
   21  C  3  X    0.000244   0.000235  -0.000345   0.000545   0.000196
   22  C  3  Y    0.000708   0.001489   0.000420  -0.000005   0.000013
   23  C  3  Z   -0.000263   0.000418   0.000662   0.000371   0.000105
   24  C  3  S   -0.005552   0.025894  -0.002394  -0.000307   0.003148
   25  C  3  X    0.005387  -0.002715  -0.003558  -0.002243   0.000012
   26  C  3  Y   -0.010270   0.016248   0.004713   0.000835  -0.000724
   27  C  3  Z    0.005700  -0.008550  -0.003497  -0.003065  -0.001507
   28  H  4  S   -0.000498  -0.000889   0.000946   0.000490  -0.000007
   29  H  4  S   -0.001735   0.000846   0.000863   0.001449   0.000283
   30  O  5  S   -0.007716   0.982587  -0.004271  -0.004304  -0.000050
   31  O  5  S   -0.001675   0.106460  -0.000199   0.000272   0.000026
   32  O  5  X   -0.000270  -0.002056  -0.000272   0.000538  -0.000031
   33  O  5  Y    0.000318  -0.002879   0.000128   0.000143  -0.000027
   34  O  5  Z   -0.000194  -0.000730   0.000028  -0.000121  -0.000038
   35  O  5  S    0.005415  -0.055875  -0.001640  -0.001545  -0.000220
   36  O  5  X    0.000778   0.004718   0.001254  -0.001722   0.000159
   37  O  5  Y   -0.003218   0.010993   0.000238  -0.000193   0.000237
   38  O  5  Z    0.000877   0.001095   0.000033   0.000583   0.000189
   39  C  6  S   -0.000002   0.000210  -0.001011   0.000187  -0.000140
   40  C  6  S   -0.000117   0.000837  -0.004466   0.000520  -0.000902
   41  C  6  X    0.000333   0.000244  -0.000066  -0.000548  -0.000670
   42  C  6  Y    0.000114   0.000061  -0.001470  -0.000288   0.000290
   43  C  6  Z    0.000536  -0.000781  -0.000020  -0.000460   0.000159
   44  C  6  S   -0.001991  -0.004514   0.024902  -0.005189   0.002379
   45  C  6  X   -0.001546   0.001397   0.000667  -0.002560   0.004776
   46  C  6  Y    0.000740  -0.006209  -0.012978  -0.004004  -0.002004
   47  C  6  Z   -0.006006   0.005213   0.009220   0.004343  -0.000886
   48  H  7  S   -0.000415   0.001341  -0.001184   0.000995  -0.000488
   49  H  7  S   -0.003109   0.001861   0.000266   0.001548  -0.000103
   50  O  8  S   -0.003042   0.004329   0.982531  -0.000820  -0.000902
   51  O  8  S   -0.000679   0.000718   0.105592   0.000107   0.000151
   52  O  8  X    0.000052   0.000294   0.001008  -0.000263  -0.000024
   53  O  8  Y   -0.000059  -0.000118   0.003392  -0.000109   0.000031
   54  O  8  Z    0.000004  -0.000086   0.001477   0.000074  -0.000076
   55  O  8  S    0.001615  -0.002488  -0.052995  -0.001566  -0.001279
   56  O  8  X    0.000163  -0.001161  -0.002363   0.000989  -0.000346
   57  O  8  Y    0.000696  -0.000387  -0.011381  -0.000141  -0.000557
   58  O  8  Z    0.000146   0.000363  -0.001724  -0.000288   0.000519
   59  C  9  S   -0.000072  -0.000011   0.000207  -0.000989   0.000296
   60  C  9  S   -0.000456   0.000095   0.000705  -0.004367   0.001242
   61  C  9  X    0.000007  -0.000297   0.000545   0.000125  -0.000624
   62  C  9  Y    0.000032  -0.000090   0.000039   0.001713   0.000137
   63  C  9  Z   -0.000120   0.000576   0.000547  -0.000113  -0.000043
   64  C  9  S    0.002592   0.001305  -0.005572   0.024175  -0.008952
   65  C  9  X   -0.001359   0.000750   0.001765   0.000230  -0.002614
   66  C  9  Y   -0.001500   0.000790   0.006244   0.010731   0.001840
   67  C  9  Z    0.001646  -0.004621  -0.003955  -0.009982   0.001554
   68  H 10  S   -0.000329   0.000773   0.001366  -0.001132   0.000588
   69  H 10  S   -0.000795   0.001149   0.000313   0.000066  -0.000331
   70  O 11  S   -0.000336   0.004471   0.000859   0.982523  -0.006840
   71  O 11  S   -0.000129   0.001298   0.000314   0.105805  -0.000518
   72  O 11  X   -0.000049  -0.000073   0.000297  -0.002473   0.000518
   73  O 11  Y    0.000050   0.000213   0.000073  -0.001729  -0.000226
   74  O 11  Z   -0.000004  -0.000003   0.000091   0.002186  -0.000121
   75  O 11  S    0.000516  -0.003610  -0.002150  -0.053378   0.000747
   76  O 11  X    0.000270   0.000480  -0.001076   0.005881  -0.001825
   77  O 11  Y   -0.000356  -0.000164   0.000541   0.007443   0.000328
   78  O 11  Z    0.000030  -0.000049  -0.000541  -0.006170   0.000495
   79  C 12  S    0.000012   0.000065  -0.000009   0.000159  -0.000878
   80  C 12  S    0.000053   0.000399   0.000091   0.000370  -0.003477
   81  C 12  X    0.000029  -0.000073  -0.000191   0.000645   0.001641
   82  C 12  Y   -0.000023   0.000037   0.000160  -0.000642   0.000874
   83  C 12  Z    0.000012  -0.000202  -0.000307  -0.000391   0.000273
   84  C 12  S   -0.000307  -0.001916   0.001290  -0.005275   0.022634
   85  C 12  X    0.000036   0.001424   0.000084   0.001247   0.007924
   86  C 12  Y    0.000446  -0.001289  -0.000757  -0.003549   0.007292
   87  C 12  Z   -0.000505   0.001639   0.003117   0.002694   0.003578
   88  O 13  S   -0.000121   0.000090   0.000964   0.006854   0.982467
   89  O 13  S   -0.000046   0.000024   0.000292   0.000982   0.105235
   90  O 13  X    0.000031   0.000002  -0.000088  -0.000103  -0.003422
   91  O 13  Y    0.000007  -0.000083  -0.000067   0.000083   0.000852
   92  O 13  Z   -0.000032   0.000063   0.000145   0.000204  -0.001700
   93  O 13  S    0.000057  -0.000107  -0.000676  -0.000565  -0.050862
   94  O 13  X   -0.000115  -0.000029   0.000489  -0.000087   0.010290
   95  O 13  Y   -0.000055   0.000427   0.000403  -0.000277  -0.000194
   96  O 13  Z    0.000137  -0.000312  -0.000634  -0.000880   0.004182
   97  H 14  S    0.000466  -0.000917  -0.000422  -0.000007  -0.000062
   98  H 14  S    0.005011  -0.002831  -0.000160  -0.000694  -0.000199
   99  H 15  S   -0.000868   0.003272   0.000319  -0.000030   0.000051
  100  H 15  S    0.002642   0.006387  -0.000053  -0.000735   0.000029
  101  H 16  S   -0.000034  -0.000303   0.002928  -0.000385  -0.000189
  102  H 16  S    0.000124   0.000450   0.005871   0.000877   0.000138
  103  H 17  S    0.000032  -0.000730  -0.000496   0.002896  -0.000630
  104  H 17  S    0.000331   0.003292   0.000160   0.007344  -0.000578
  105  H 18  S    0.000083  -0.000060  -0.000593  -0.000430  -0.001487
  106  H 18  S    0.000349  -0.000788  -0.000664  -0.000378  -0.001237
  107  H 19  S   -0.000070   0.000386   0.000491   0.000758  -0.001400
  108  H 19  S   -0.000030   0.000750   0.000847   0.001026  -0.001227
  109  H 20  S   -0.000008  -0.000141  -0.000110  -0.000583   0.003103
  110  H 20  S    0.000092  -0.000100  -0.000163   0.001492   0.006016

                      6          7          8          9         10
                  -10.2407   -10.2044   -10.1947   -10.1760   -10.1581
                     A          A          A          A          A   
    1  O  1  S    0.000316   0.000042  -0.000014  -0.000027   0.000001
    2  O  1  S    0.000926   0.000056  -0.000159  -0.000258   0.000003
    3  O  1  X   -0.000910  -0.000075   0.000040   0.000072   0.000019
    4  O  1  Y    0.000576   0.000349   0.000025   0.000044   0.000008
    5  O  1  Z   -0.000403  -0.000054  -0.000118  -0.000086  -0.000003
    6  O  1  S   -0.002002  -0.002025   0.000568   0.001240  -0.000053
    7  O  1  X   -0.002536  -0.002071  -0.000114  -0.000304  -0.000139
    8  O  1  Y    0.003853  -0.001564  -0.000103  -0.000301  -0.000030
    9  O  1  Z   -0.002274  -0.000704   0.000256   0.000412  -0.000061
   10  C  2  S    0.985296   0.009392   0.004012   0.001888   0.000563
   11  C  2  S    0.105768  -0.001772  -0.000846  -0.001094  -0.000372
   12  C  2  X   -0.000274   0.000213  -0.000945  -0.000409  -0.000160
   13  C  2  Y    0.000962  -0.000379   0.000062   0.000215   0.000009
   14  C  2  Z   -0.000648  -0.000028  -0.000156  -0.000019  -0.000021
   15  C  2  S   -0.058900   0.027579   0.001962   0.003739   0.001912
   16  C  2  X   -0.012911   0.015673   0.001424   0.003653   0.000857
   17  C  2  Y    0.004262   0.009457   0.000546  -0.001035   0.000418
   18  C  2  Z   -0.005743   0.004820   0.001433   0.000518   0.000625
   19  C  3  S   -0.009915   0.986134   0.040361   0.004544   0.002468
   20  C  3  S   -0.002276   0.116091   0.001091   0.000039  -0.001018
   21  C  3  X    0.000723  -0.000303   0.000363  -0.000714  -0.000399
   22  C  3  Y    0.000334  -0.000730  -0.000122  -0.000178  -0.000122
   23  C  3  Z    0.000245  -0.000412   0.000067  -0.000027   0.000091
   24  C  3  S    0.013187  -0.107465   0.022635  -0.001261   0.005118
   25  C  3  X   -0.011425   0.002211   0.014588   0.001449   0.004722
   26  C  3  Y   -0.005212   0.010488  -0.006077   0.000482   0.000027
   27  C  3  Z   -0.001543   0.008136  -0.006110   0.000962  -0.001137
   28  H  4  S   -0.001459   0.000905  -0.001782   0.000329  -0.000360
   29  H  4  S    0.002126   0.016611   0.001846  -0.001624   0.000113
   30  O  5  S   -0.000029  -0.000139   0.000046   0.000025   0.000036
   31  O  5  S   -0.000473  -0.000953   0.000101   0.000215   0.000264
   32  O  5  X    0.000013  -0.000179   0.000068   0.000039   0.000031
   33  O  5  Y    0.000517  -0.000088   0.000288   0.000099   0.000030
   34  O  5  Z    0.000047   0.000142   0.000142  -0.000107  -0.000028
   35  O  5  S    0.000664   0.010656  -0.001535  -0.000648  -0.001314
   36  O  5  X    0.000886   0.000522  -0.001189  -0.000473  -0.000445
   37  O  5  Y   -0.001637  -0.004386   0.000582  -0.000263   0.000468
   38  O  5  Z    0.000059  -0.000339  -0.000164   0.000310   0.000071
   39  C  6  S   -0.003897  -0.041614   0.985880   0.022057   0.005642
   40  C  6  S   -0.001851  -0.008465   0.115594  -0.001275  -0.000851
   41  C  6  X    0.001906  -0.000157  -0.000071  -0.000158  -0.001357
   42  C  6  Y    0.000108  -0.000087   0.000539  -0.000123   0.000410
   43  C  6  Z    0.000321   0.000141   0.000535  -0.000041   0.000439
   44  C  6  S    0.000583   0.031749  -0.104231   0.027489   0.001562
   45  C  6  X   -0.010040  -0.014536  -0.002167   0.017794   0.005493
   46  C  6  Y   -0.002084   0.007987  -0.009656   0.006636  -0.002855
   47  C  6  Z   -0.001783   0.004576  -0.005858   0.002211  -0.002883
   48  H  7  S   -0.001347  -0.002031   0.000591  -0.002081  -0.000387
   49  H  7  S    0.000044  -0.000993   0.016733   0.001292  -0.002184
   50  O  8  S    0.000047  -0.000017  -0.000167   0.000027   0.000035
   51  O  8  S    0.000393  -0.000574  -0.001104  -0.000074   0.000241
   52  O  8  X   -0.000248   0.000105   0.000015  -0.000018   0.000063
   53  O  8  Y    0.000091  -0.000460   0.000122  -0.000378   0.000038
   54  O  8  Z   -0.000144  -0.000277  -0.000031  -0.000102  -0.000120
   55  O  8  S   -0.001515  -0.000290   0.010924  -0.001056  -0.001061
   56  O  8  X    0.001735   0.000609   0.000274  -0.001184  -0.000817
   57  O  8  Y   -0.000895  -0.000147   0.004542  -0.000075  -0.000606
   58  O  8  Z    0.000903   0.001171  -0.000893   0.000441   0.000908
   59  C  9  S   -0.002182  -0.003617  -0.023472   0.986580   0.022248
   60  C  9  S   -0.001806  -0.000799  -0.006463   0.116300   0.000016
   61  C  9  X    0.000255   0.001003  -0.000226  -0.000194  -0.000309
   62  C  9  Y   -0.000021  -0.000267   0.000106  -0.000699   0.000099
   63  C  9  Z   -0.000132  -0.000265   0.000074  -0.000397   0.000102
   64  C  9  S    0.008415  -0.002247   0.030561  -0.108267   0.019347
   65  C  9  X   -0.005077  -0.001671  -0.015210   0.000581   0.012836
   66  C  9  Y   -0.001338   0.002015  -0.006834   0.011622  -0.007287
   67  C  9  Z   -0.000328   0.001526  -0.002313   0.007027  -0.003494
   68  H 10  S   -0.000622  -0.000038  -0.001769   0.000811  -0.001556
   69  H 10  S   -0.000087  -0.001089  -0.000292   0.015655   0.001426
   70  O 11  S    0.000029   0.000042   0.000026  -0.000167   0.000013
   71  O 11  S    0.000218   0.000463  -0.000123  -0.001092  -0.000246
   72  O 11  X   -0.000092  -0.000162   0.000198  -0.000046  -0.000372
   73  O 11  Y   -0.000007  -0.000040   0.000397  -0.000018   0.000711
   74  O 11  Z   -0.000013   0.000016  -0.000022   0.000335   0.000095
   75  O 11  S   -0.000918  -0.001309  -0.001320   0.011441  -0.000783
   76  O 11  X    0.000696   0.000835   0.000530  -0.000257   0.000821
   77  O 11  Y    0.000352   0.000034   0.000065  -0.004992  -0.001561
   78  O 11  Z   -0.000131  -0.000261  -0.000177   0.000435  -0.000476
   79  C 12  S   -0.000539  -0.002499  -0.005399  -0.023230   0.986087
   80  C 12  S   -0.000337  -0.001451  -0.001718  -0.006400   0.111889
   81  C 12  X    0.000180   0.000372   0.000878  -0.000438  -0.000739
   82  C 12  Y   -0.000010   0.000119   0.000106  -0.000115   0.000082
   83  C 12  Z   -0.000031  -0.000012  -0.000053   0.000100   0.000021
   84  C 12  S    0.000590   0.004533   0.000797   0.032095  -0.087636
   85  C 12  X   -0.000433  -0.003732  -0.000532  -0.013544   0.009119
   86  C 12  Y    0.000150   0.000076  -0.001244   0.010020  -0.001757
   87  C 12  Z    0.000110   0.000412  -0.000739   0.004646  -0.001710
   88  O 13  S   -0.000011  -0.000018  -0.000046   0.000061  -0.000050
   89  O 13  S   -0.000125  -0.000191  -0.000480   0.000226  -0.000255
   90  O 13  X    0.000079  -0.000007   0.000329   0.000196  -0.000268
   91  O 13  Y   -0.000009   0.000094  -0.000017   0.000084   0.000002
   92  O 13  Z   -0.000024   0.000031  -0.000095   0.000010  -0.000202
   93  O 13  S    0.000277   0.000847   0.001154  -0.002388   0.007569
   94  O 13  X   -0.000310  -0.000041  -0.001430   0.001424  -0.002176
   95  O 13  Y    0.000019  -0.000482   0.000034  -0.000426  -0.001364
   96  O 13  Z    0.000070  -0.000194   0.000320  -0.000073   0.000239
   97  H 14  S   -0.001672  -0.000979  -0.000358  -0.000632  -0.000122
   98  H 14  S    0.014576   0.003244   0.000410  -0.000124   0.000112
   99  H 15  S   -0.000411  -0.000749  -0.000260   0.000094   0.000043
  100  H 15  S    0.002309   0.003181   0.000437   0.000076  -0.000068
  101  H 16  S   -0.000020  -0.000744  -0.000775  -0.000630   0.000187
  102  H 16  S   -0.000759  -0.000428   0.003556   0.001104  -0.001182
  103  H 17  S    0.000181  -0.000019  -0.000482  -0.000557   0.000620
  104  H 17  S    0.000134   0.000816   0.001021   0.003215   0.001682
  105  H 18  S   -0.000062  -0.000500  -0.000166  -0.001620  -0.000293
  106  H 18  S    0.000048  -0.000161  -0.000824   0.000949   0.017156
  107  H 19  S   -0.000075  -0.000569  -0.000062  -0.001954  -0.000037
  108  H 19  S    0.000068   0.000192  -0.001367   0.000156   0.016506
  109  H 20  S   -0.000116   0.000080  -0.000544  -0.000197  -0.000158
  110  H 20  S    0.000269   0.000100   0.001399   0.000592   0.002990

                     11         12         13         14         15
                   -1.1068    -1.0566    -1.0438    -1.0225    -0.9944
                     A          A          A          A          A   
    1  O  1  S   -0.191526   0.074132  -0.044174  -0.013065   0.004422
    2  O  1  S    0.182670  -0.070231   0.041714   0.012585  -0.004286
    3  O  1  X    0.101254  -0.033107   0.018872   0.005082  -0.001488
    4  O  1  Y   -0.079850   0.034329  -0.021870  -0.006454   0.002417
    5  O  1  Z    0.060112  -0.021381   0.012098   0.003541  -0.001088
    6  O  1  S    0.584659  -0.242836   0.148050   0.043209  -0.014954
    7  O  1  X    0.097837  -0.034285   0.018731   0.005148  -0.001516
    8  O  1  Y   -0.070058   0.034598  -0.024033  -0.007151   0.002865
    9  O  1  Z    0.057650  -0.021025   0.013524   0.003127  -0.000978
   10  C  2  S   -0.118569   0.029703  -0.020089  -0.003326   0.001005
   11  C  2  S    0.128191  -0.033208   0.022174   0.004285  -0.001167
   12  C  2  X   -0.089292   0.057519  -0.032640  -0.012123   0.004550
   13  C  2  Y    0.102705  -0.028753   0.011804   0.003821  -0.000668
   14  C  2  Z   -0.058041   0.030349  -0.018041  -0.006496   0.002505
   15  C  2  S    0.128219  -0.032534   0.020948   0.005622  -0.001865
   16  C  2  X    0.028845  -0.011882   0.014493   0.002386  -0.000880
   17  C  2  Y   -0.033560   0.041685  -0.028477  -0.007586   0.002905
   18  C  2  Z    0.017038  -0.016640   0.007502   0.003479  -0.001605
   19  C  3  S   -0.044400  -0.063339   0.036479   0.016324  -0.005181
   20  C  3  S    0.041421   0.068506  -0.037526  -0.016247   0.007314
   21  C  3  X   -0.020838   0.012897   0.009641   0.001590  -0.003280
   22  C  3  Y    0.023658   0.049961  -0.071391  -0.013810   0.008287
   23  C  3  Z   -0.015220  -0.014895   0.007453   0.002654  -0.000569
   24  C  3  S    0.076410   0.099279  -0.076153  -0.039781   0.002595
   25  C  3  X   -0.009471   0.002573  -0.007822  -0.001324  -0.006280
   26  C  3  Y    0.013942  -0.044564   0.010989   0.013720  -0.001274
   27  C  3  Z   -0.013103   0.024438   0.002114   0.003768   0.000385
   28  H  4  S    0.012558   0.016201  -0.007504  -0.004559   0.001953
   29  H  4  S   -0.005204  -0.012092   0.006736   0.000069   0.000397
   30  O  5  S   -0.072113  -0.144638   0.139190   0.038952  -0.018442
   31  O  5  S    0.068581   0.131636  -0.129715  -0.037312   0.018025
   32  O  5  X   -0.026837  -0.042566   0.046273   0.017164  -0.010412
   33  O  5  Y   -0.028367  -0.048513   0.042634   0.012778  -0.005529
   34  O  5  Z   -0.009601  -0.016637   0.016701   0.004365  -0.001960
   35  O  5  S    0.205223   0.461295  -0.432213  -0.121781   0.058085
   36  O  5  X   -0.029140  -0.042696   0.045413   0.023535  -0.014349
   37  O  5  Y   -0.026457  -0.063206   0.052227   0.015789  -0.007736
   38  O  5  Z   -0.009811  -0.015331   0.015533   0.001798  -0.000770
   39  C  6  S   -0.010672  -0.063210  -0.054909   0.004451   0.005958
   40  C  6  S    0.013351   0.063729   0.057775  -0.004668  -0.004374
   41  C  6  X   -0.009062  -0.003315   0.004774   0.019288  -0.006677
   42  C  6  Y    0.000711  -0.034507  -0.069358   0.027261  -0.011998
   43  C  6  Z    0.002068   0.024909   0.022224  -0.008224   0.000626
   44  C  6  S    0.015567   0.101486   0.103289  -0.007104  -0.007089
   45  C  6  X    0.023560  -0.003602  -0.005759  -0.014057  -0.005602
   46  C  6  Y    0.009013   0.031608   0.007936   0.014167  -0.003835
   47  C  6  Z    0.010696  -0.023821   0.011368  -0.001418   0.011483
   48  H  7  S    0.005250   0.015583   0.015803   0.000035  -0.001190
   49  H  7  S    0.006506  -0.013698   0.000056   0.001149   0.003189
   50  O  8  S   -0.011228  -0.127214  -0.167423   0.048463  -0.009244
   51  O  8  S    0.010251   0.117906   0.157057  -0.046640   0.009023
   52  O  8  X    0.000890   0.017621   0.025230  -0.005242   0.000819
   53  O  8  Y    0.005675   0.051327   0.062660  -0.016392   0.002229
   54  O  8  Z    0.002732   0.033498   0.045483  -0.014288   0.003257
   55  O  8  S    0.035328   0.396098   0.510896  -0.144185   0.027133
   56  O  8  X   -0.001359   0.019613   0.022547  -0.005935   0.003192
   57  O  8  Y    0.006157   0.061136   0.073261  -0.018153   0.002496
   58  O  8  Z   -0.000171   0.028455   0.040824  -0.013944   0.001674
   59  C  9  S   -0.003497  -0.033920  -0.013359  -0.073118   0.032484
   60  C  9  S    0.006598   0.034004   0.013062   0.074732  -0.036123
   61  C  9  X   -0.002089  -0.009724  -0.008179   0.017323   0.017869
   62  C  9  Y    0.001160   0.009531  -0.009850   0.060505  -0.053247
   63  C  9  Z   -0.001189  -0.011382  -0.001557  -0.032772   0.019180
   64  C  9  S   -0.015091   0.051510   0.022148   0.133107  -0.055263
   65  C  9  X    0.008521  -0.002619   0.011721   0.002302   0.013786
   66  C  9  Y    0.004903  -0.019011  -0.015833  -0.007008   0.011566
   67  C  9  Z    0.004155   0.024035   0.003435   0.004418  -0.005394
   68  H 10  S    0.001622   0.007807   0.003560   0.020665  -0.009013
   69  H 10  S   -0.000022  -0.008719  -0.000499  -0.008064   0.005179
   70  O 11  S   -0.006116  -0.051880  -0.001990  -0.169197   0.124088
   71  O 11  S    0.005518   0.047274   0.000662   0.157335  -0.115312
   72  O 11  X   -0.002830  -0.020176   0.000925  -0.054418   0.049404
   73  O 11  Y   -0.000945  -0.010668  -0.003583  -0.034320   0.015369
   74  O 11  Z    0.001753   0.014075   0.000305   0.044992  -0.031880
   75  O 11  S    0.018395   0.161471   0.013017   0.516295  -0.389514
   76  O 11  X   -0.003603  -0.017190   0.000300  -0.053907   0.053526
   77  O 11  Y   -0.002971  -0.018777  -0.000951  -0.039571   0.023581
   78  O 11  Z    0.001722   0.016614   0.002288   0.048512  -0.037120
   79  C 12  S   -0.000884  -0.012709  -0.007026  -0.055819  -0.061875
   80  C 12  S    0.000832   0.012604   0.008071   0.058265   0.066385
   81  C 12  X   -0.000879  -0.001878  -0.001164   0.025281   0.069723
   82  C 12  Y    0.000539   0.006687   0.001760   0.037736   0.032488
   83  C 12  Z    0.000353   0.003689   0.002357   0.012231   0.014707
   84  C 12  S    0.003730   0.019049  -0.000005   0.088401   0.105580
   85  C 12  X   -0.000618  -0.004862  -0.002858  -0.001705  -0.007422
   86  C 12  Y    0.000976   0.007117  -0.003276   0.008764  -0.013492
   87  C 12  Z   -0.000953  -0.011616  -0.007453  -0.011250   0.004449
   88  O 13  S   -0.000605  -0.015104  -0.007773  -0.112718  -0.184453
   89  O 13  S    0.000753   0.014000   0.006643   0.105960   0.172040
   90  O 13  X   -0.000487  -0.007514  -0.003643  -0.049720  -0.072272
   91  O 13  Y    0.000151   0.002796   0.001243   0.021236   0.033999
   92  O 13  Z   -0.000120  -0.003474  -0.001627  -0.025154  -0.040242
   93  O 13  S    0.001227   0.044889   0.026339   0.336454   0.569808
   94  O 13  X    0.000378  -0.008477  -0.005442  -0.054345  -0.081114
   95  O 13  Y    0.000035   0.000715  -0.000323   0.017206   0.028823
   96  O 13  Z   -0.000108  -0.001733  -0.001532  -0.023440  -0.044305
   97  H 14  S    0.022107  -0.002758   0.003523  -0.000021  -0.000013
   98  H 14  S   -0.023626   0.022064  -0.006548  -0.004472   0.001222
   99  H 15  S    0.042074   0.066027  -0.068465  -0.020365   0.010724
  100  H 15  S    0.005346   0.006865  -0.006758  -0.000770   0.000163
  101  H 16  S    0.005886   0.066563   0.088127  -0.025449   0.005104
  102  H 16  S    0.000471   0.009281   0.015178  -0.006640   0.002495
  103  H 17  S    0.005392   0.031182  -0.004509   0.080767  -0.064505
  104  H 17  S    0.002619   0.011260  -0.010141   0.006315  -0.007969
  105  H 18  S    0.000341   0.004977   0.003377   0.016084   0.017187
  106  H 18  S    0.000229   0.006967   0.005438  -0.001890  -0.006417
  107  H 19  S    0.000231   0.002596   0.001746   0.015471   0.017753
  108  H 19  S   -0.001195  -0.004723  -0.002098  -0.007334  -0.003946
  109  H 20  S    0.000624   0.008277   0.003900   0.059389   0.094105
  110  H 20  S   -0.000637   0.002505   0.000778   0.013195   0.010393

                     16         17         18         19         20
                   -0.7893    -0.7432    -0.6693    -0.6146    -0.6011
                     A          A          A          A          A   
    1  O  1  S    0.032756  -0.034486  -0.047558  -0.036146   0.046551
    2  O  1  S   -0.031951   0.034114   0.046263   0.035867  -0.045189
    3  O  1  X    0.005279  -0.009316  -0.021200  -0.018741   0.020620
    4  O  1  Y    0.002729  -0.000687   0.008438   0.026184  -0.041026
    5  O  1  Z    0.000579  -0.004676  -0.019320   0.000179   0.018165
    6  O  1  S   -0.113426   0.121549   0.179748   0.137970  -0.182046
    7  O  1  X    0.002805  -0.004492  -0.013567  -0.013245   0.014532
    8  O  1  Y    0.003763  -0.000287   0.005755   0.020297  -0.032122
    9  O  1  Z   -0.001087  -0.002527  -0.012895   0.000235   0.013436
   10  C  2  S   -0.055623   0.060954   0.083279   0.064948  -0.081489
   11  C  2  S    0.069131  -0.069635  -0.094994  -0.069229   0.089512
   12  C  2  X    0.089839  -0.080602  -0.074377  -0.028563   0.012402
   13  C  2  Y   -0.013674   0.016025   0.027608   0.079403  -0.088965
   14  C  2  Z    0.037544  -0.042119  -0.060163   0.001099   0.023965
   15  C  2  S    0.096853  -0.138900  -0.223245  -0.221957   0.272641
   16  C  2  X    0.005899  -0.029153  -0.038474  -0.045902   0.034470
   17  C  2  Y   -0.029393   0.018127   0.014018   0.046483  -0.051295
   18  C  2  Z    0.006542  -0.017959  -0.037096  -0.004778   0.028216
   19  C  3  S   -0.129609   0.088924   0.043099  -0.064980   0.048079
   20  C  3  S    0.126852  -0.081010  -0.037109   0.061084  -0.045362
   21  C  3  X    0.015963   0.049267   0.136228   0.067087  -0.087762
   22  C  3  Y   -0.071989   0.046398   0.011967   0.087954  -0.053040
   23  C  3  Z   -0.016491  -0.001001  -0.033654   0.097110  -0.022636
   24  C  3  S    0.355889  -0.284543  -0.167969   0.251861  -0.184108
   25  C  3  X   -0.024680   0.008156   0.040882   0.037136  -0.031086
   26  C  3  Y   -0.032497   0.041309   0.026432   0.020865  -0.004473
   27  C  3  Z   -0.018811   0.007240  -0.012863   0.050324  -0.010408
   28  H  4  S    0.070539  -0.052560  -0.040069   0.084201  -0.038953
   29  H  4  S   -0.000054  -0.000411  -0.010203   0.043152  -0.010177
   30  O  5  S    0.060291  -0.035105  -0.015497   0.014225  -0.009349
   31  O  5  S   -0.055109   0.032997   0.014754  -0.012708   0.009119
   32  O  5  X    0.045977  -0.024644   0.026906   0.088240  -0.092907
   33  O  5  Y   -0.058622   0.040903   0.018873  -0.123968   0.095998
   34  O  5  Z    0.027559  -0.020436  -0.017685   0.088053  -0.051472
   35  O  5  S   -0.225849   0.132910   0.057946  -0.064545   0.042233
   36  O  5  X    0.041548  -0.020937   0.026842   0.075546  -0.083792
   37  O  5  Y   -0.025231   0.021237   0.010909  -0.101889   0.082093
   38  O  5  Z    0.023300  -0.016976  -0.014773   0.075422  -0.044149
   39  C  6  S   -0.118923  -0.030234  -0.124558   0.053373   0.014908
   40  C  6  S    0.119683   0.031319   0.112038  -0.049760  -0.012653
   41  C  6  X   -0.026197   0.109409   0.009327   0.037022   0.073740
   42  C  6  Y    0.062252   0.008116   0.010200   0.104950   0.006198
   43  C  6  Z    0.007550  -0.012130  -0.029654   0.109974   0.005981
   44  C  6  S    0.297394   0.073914   0.433684  -0.221151  -0.061273
   45  C  6  X    0.002626  -0.008196  -0.005044   0.025280   0.019026
   46  C  6  Y    0.017827   0.002975   0.032720   0.037509  -0.008880
   47  C  6  Z    0.021502   0.001831  -0.001982   0.069956   0.011691
   48  H  7  S    0.065916   0.018089   0.086055  -0.089728  -0.015028
   49  H  7  S    0.002753   0.002324   0.014121  -0.035847  -0.007921
   50  O  8  S    0.068040   0.015564   0.026737  -0.000892   0.000751
   51  O  8  S   -0.062060  -0.014683  -0.023863   0.001772  -0.000240
   52  O  8  X   -0.024179   0.024548  -0.015122   0.037516   0.013295
   53  O  8  Y    0.043984   0.008868   0.079810  -0.080240  -0.016760
   54  O  8  Z   -0.061751  -0.017371  -0.092475   0.145164   0.023890
   55  O  8  S   -0.253286  -0.058429  -0.114688   0.007506  -0.003671
   56  O  8  X   -0.021089   0.026163  -0.011441   0.031583   0.007917
   57  O  8  Y    0.012496   0.003140   0.052248  -0.063530  -0.014771
   58  O  8  Z   -0.048823  -0.013941  -0.072136   0.117755   0.020822
   59  C  9  S   -0.068704  -0.125231   0.009963  -0.061754  -0.097135
   60  C  9  S    0.070172   0.119420  -0.009620   0.055539   0.088652
   61  C  9  X   -0.038150   0.025002  -0.126053  -0.016145  -0.003801
   62  C  9  Y   -0.042414  -0.074043   0.003044   0.030440   0.038348
   63  C  9  Z    0.000222  -0.009095   0.005209   0.068435   0.035704
   64  C  9  S    0.160082   0.354802  -0.035640   0.230237   0.367084
   65  C  9  X    0.005468  -0.015558  -0.016724  -0.020905   0.020402
   66  C  9  Y   -0.007997  -0.048620   0.009781   0.003025  -0.010176
   67  C  9  Z   -0.011964  -0.003438  -0.006122   0.042761   0.013200
   68  H 10  S    0.035971   0.063330  -0.008066   0.073163   0.080344
   69  H 10  S    0.003318  -0.003039  -0.000087   0.032963   0.024742
   70  O 11  S    0.044004   0.055281   0.009283   0.022547   0.024340
   71  O 11  S   -0.040959  -0.050072  -0.008426  -0.021759  -0.021875
   72  O 11  X    0.017957   0.041995  -0.034091   0.021587   0.062290
   73  O 11  Y   -0.034493  -0.071443   0.020029  -0.051296  -0.117028
   74  O 11  Z   -0.003339   0.000746  -0.003375   0.030958   0.034434
   75  O 11  S   -0.156901  -0.208698  -0.035720  -0.088643  -0.106216
   76  O 11  X    0.011935   0.037651  -0.027462   0.018625   0.055971
   77  O 11  Y   -0.011616  -0.041335   0.015859  -0.038561  -0.090659
   78  O 11  Z   -0.006794  -0.003704  -0.003883   0.025433   0.027196
   79  C 12  S   -0.030581  -0.105341   0.110287   0.047397   0.093580
   80  C 12  S    0.035591   0.108308  -0.108157  -0.045327  -0.087192
   81  C 12  X   -0.033131  -0.077675   0.021798  -0.019602  -0.069014
   82  C 12  Y    0.002712   0.003344   0.015241   0.036182   0.087125
   83  C 12  Z    0.005367   0.015645  -0.006138   0.030344   0.031917
   84  C 12  S    0.059175   0.265430  -0.335545  -0.162412  -0.344797
   85  C 12  X    0.004188  -0.028274   0.026947   0.010655   0.004651
   86  C 12  Y   -0.011377  -0.011275  -0.001268   0.018151   0.033952
   87  C 12  Z    0.004616   0.003226   0.001316   0.015924   0.009885
   88  O 13  S    0.016386   0.050869  -0.044755  -0.009717  -0.017050
   89  O 13  S   -0.015224  -0.048520   0.041645   0.009177   0.015232
   90  O 13  X   -0.005329  -0.027116   0.048426   0.019565   0.049988
   91  O 13  Y   -0.012674  -0.051193   0.081331   0.050329   0.128078
   92  O 13  Z    0.004529   0.012655  -0.008357   0.006310   0.005257
   93  O 13  S   -0.057928  -0.181809   0.173701   0.039776   0.075856
   94  O 13  X    0.001261  -0.010958   0.029455   0.013448   0.032904
   95  O 13  Y   -0.006106  -0.034746   0.061179   0.043013   0.106094
   96  O 13  Z    0.003353   0.011785  -0.009504   0.005909   0.005275
   97  H 14  S    0.036189  -0.041935  -0.068772  -0.084325   0.105511
   98  H 14  S   -0.009725  -0.006428  -0.024526  -0.038521   0.047342
   99  H 15  S   -0.063445   0.040507   0.004776  -0.096309   0.081619
  100  H 15  S   -0.040327   0.028842   0.016480  -0.057183   0.041956
  101  H 16  S   -0.069251  -0.011927  -0.074079   0.101679   0.018697
  102  H 16  S   -0.037199  -0.007373  -0.057233   0.068905   0.010374
  103  H 17  S   -0.038383  -0.063081   0.020743  -0.034045  -0.083013
  104  H 17  S   -0.032366  -0.029902   0.012311  -0.030388  -0.053488
  105  H 18  S    0.016870   0.061375  -0.075545  -0.038738  -0.091632
  106  H 18  S   -0.009282  -0.000801  -0.019366  -0.010692  -0.035076
  107  H 19  S    0.017496   0.055992  -0.063972  -0.045529  -0.076038
  108  H 19  S    0.001937  -0.000325  -0.001877  -0.018752  -0.025340
  109  H 20  S   -0.014052  -0.051374   0.065908   0.032480   0.082323
  110  H 20  S   -0.013924  -0.034433   0.039032   0.018180   0.051164

                     21         22         23         24         25
                   -0.5543    -0.5282    -0.5186    -0.4986    -0.4955
                     A          A          A          A          A   
    1  O  1  S   -0.021612  -0.018498  -0.028063  -0.053039  -0.008408
    2  O  1  S    0.020551   0.015665   0.024932   0.046618   0.007060
    3  O  1  X    0.059879  -0.009220  -0.107410  -0.126294  -0.049170
    4  O  1  Y    0.159998   0.086779  -0.021337   0.042455   0.030383
    5  O  1  Z    0.003693  -0.001820   0.006848  -0.107242   0.044602
    6  O  1  S    0.077672   0.074727   0.120644   0.218190   0.034025
    7  O  1  X    0.048190  -0.007627  -0.092359  -0.107187  -0.043925
    8  O  1  Y    0.138559   0.076234  -0.019497   0.039154   0.029331
    9  O  1  Z    0.001988  -0.000936   0.011641  -0.096357   0.042559
   10  C  2  S    0.049068   0.016326   0.025626   0.040084   0.002511
   11  C  2  S   -0.056437  -0.022927  -0.032826  -0.052163  -0.004832
   12  C  2  X    0.158818   0.064097  -0.089918   0.020700  -0.021327
   13  C  2  Y    0.227554   0.035913  -0.095269  -0.148083  -0.015460
   14  C  2  Z    0.041226   0.048934   0.049769  -0.021487   0.086037
   15  C  2  S   -0.177653  -0.043948  -0.072322  -0.115004  -0.005691
   16  C  2  X    0.079358   0.027617  -0.074928  -0.039566  -0.036127
   17  C  2  Y    0.196958   0.051692  -0.074235  -0.076208  -0.005250
   18  C  2  Z    0.005325   0.024237   0.029838  -0.046138   0.060229
   19  C  3  S   -0.034787  -0.000452  -0.008204  -0.014189  -0.003126
   20  C  3  S    0.035952   0.002042   0.005249   0.009554   0.002719
   21  C  3  X   -0.130074  -0.020578   0.027545   0.152922  -0.035170
   22  C  3  Y   -0.035748  -0.161734   0.004932  -0.152066  -0.054086
   23  C  3  Z   -0.031824   0.063572   0.208012  -0.014307   0.155850
   24  C  3  S    0.105446  -0.017552   0.062464   0.068163   0.017608
   25  C  3  X   -0.094098  -0.023043   0.008084   0.090045  -0.047245
   26  C  3  Y   -0.035856  -0.095064  -0.011041  -0.136905  -0.034213
   27  C  3  Z   -0.021891   0.047220   0.172820  -0.013780   0.118306
   28  H  4  S    0.009684   0.056858   0.120667   0.024115   0.102550
   29  H  4  S   -0.005466   0.043445   0.071574   0.022804   0.074022
   30  O  5  S    0.041957   0.013265  -0.023630  -0.006954   0.005285
   31  O  5  S   -0.037724  -0.011859   0.021940   0.007144  -0.003924
   32  O  5  X   -0.130286  -0.118075   0.006196  -0.035459  -0.070304
   33  O  5  Y    0.000679   0.177873   0.025248   0.129989   0.099326
   34  O  5  Z   -0.036097  -0.074842   0.101791  -0.082338   0.015239
   35  O  5  S   -0.170917  -0.057086   0.095530   0.028847  -0.026476
   36  O  5  X   -0.120900  -0.098348   0.002545  -0.027458  -0.060386
   37  O  5  Y   -0.004883   0.158023   0.019250   0.111814   0.092595
   38  O  5  Z   -0.029138  -0.064039   0.096276  -0.069829   0.015110
   39  C  6  S    0.007575  -0.010677   0.016253  -0.012930  -0.017687
   40  C  6  S   -0.006941   0.008397  -0.016685   0.012517   0.014799
   41  C  6  X   -0.038418  -0.000075  -0.032160  -0.155261   0.140224
   42  C  6  Y   -0.057980  -0.019537  -0.187844   0.120603   0.049856
   43  C  6  Z   -0.051851   0.136598   0.061239   0.038205   0.007068
   44  C  6  S   -0.018443   0.033833  -0.041755   0.027233   0.070207
   45  C  6  X   -0.021852  -0.003942  -0.031706  -0.105636   0.103516
   46  C  6  Y   -0.042903  -0.004919  -0.122488   0.081854   0.047623
   47  C  6  Z   -0.028197   0.119131   0.033943   0.030261   0.025769
   48  H  7  S    0.023819  -0.067331  -0.049371   0.000349   0.004468
   49  H  7  S    0.016394  -0.039136  -0.032761   0.002762   0.009768
   50  O  8  S   -0.011651   0.025394  -0.015501   0.012661   0.025800
   51  O  8  S    0.012136  -0.022765   0.013188  -0.010909  -0.023320
   52  O  8  X   -0.018656  -0.006947  -0.071214  -0.064738   0.075394
   53  O  8  Y    0.019131   0.074019   0.152423  -0.057349  -0.024103
   54  O  8  Z   -0.052783   0.010935  -0.196283   0.137186   0.085097
   55  O  8  S    0.041075  -0.105626   0.065696  -0.053958  -0.107264
   56  O  8  X   -0.014709  -0.005434  -0.063542  -0.065185   0.067863
   57  O  8  Y    0.013305   0.065079   0.137192  -0.052916  -0.022427
   58  O  8  Z   -0.043342   0.010332  -0.168146   0.123156   0.074425
   59  C  9  S   -0.004683  -0.010203   0.003442   0.016397   0.015876
   60  C  9  S    0.004844   0.010208  -0.002968  -0.012472  -0.012766
   61  C  9  X    0.078970  -0.055067   0.108153   0.028262  -0.111501
   62  C  9  Y    0.047187  -0.047718   0.030625   0.115022  -0.112847
   63  C  9  Z   -0.065221   0.172808   0.002369  -0.072842  -0.131698
   64  C  9  S    0.027801   0.035418  -0.001592  -0.062106  -0.090806
   65  C  9  X    0.066562  -0.026031   0.067140   0.022528  -0.061484
   66  C  9  Y    0.020066  -0.033063   0.027073   0.067995  -0.078750
   67  C  9  Z   -0.052684   0.109351   0.000577  -0.061146  -0.103061
   68  H 10  S   -0.026742   0.097640   0.004552  -0.044636  -0.094248
   69  H 10  S   -0.017414   0.070092   0.005717  -0.025368  -0.057118
   70  O 11  S   -0.016316   0.003814  -0.016479  -0.004525  -0.003628
   71  O 11  S    0.014570  -0.003453   0.016329   0.004565   0.003199
   72  O 11  X    0.086733  -0.082821   0.083644   0.077555  -0.058340
   73  O 11  Y   -0.099503   0.144566  -0.045504  -0.140183   0.052228
   74  O 11  Z   -0.002425   0.029612   0.012557   0.004531  -0.079510
   75  O 11  S    0.064731  -0.012415   0.057465   0.015675   0.019513
   76  O 11  X    0.073319  -0.071580   0.079267   0.068473  -0.049369
   77  O 11  Y   -0.078827   0.125805  -0.039416  -0.126648   0.045905
   78  O 11  Z   -0.002719   0.028475   0.011869   0.003070  -0.071488
   79  C 12  S    0.007625   0.003365  -0.002907  -0.013936  -0.009073
   80  C 12  S   -0.005464  -0.002699   0.001557   0.014804   0.008105
   81  C 12  X   -0.039072   0.063577  -0.026964   0.055844  -0.106193
   82  C 12  Y    0.052845  -0.058241   0.049379   0.041944  -0.051036
   83  C 12  Z   -0.022395   0.095992  -0.000358  -0.056527  -0.147055
   84  C 12  S   -0.046329  -0.011238   0.010524   0.049316   0.030764
   85  C 12  X   -0.014964   0.043433  -0.022005   0.039421  -0.065016
   86  C 12  Y    0.031811  -0.051186   0.033190   0.037661  -0.022450
   87  C 12  Z   -0.024600   0.071772  -0.009498  -0.042895  -0.104930
   88  O 13  S    0.009791  -0.014776   0.013169   0.011302   0.003297
   89  O 13  S   -0.009369   0.013980  -0.012322  -0.010190  -0.002480
   90  O 13  X    0.003470  -0.017250  -0.013583  -0.045386   0.093749
   91  O 13  Y    0.047873  -0.082253   0.030157  -0.056362   0.145354
   92  O 13  Z   -0.008208   0.035557  -0.001874  -0.022079  -0.060933
   93  O 13  S   -0.036084   0.056874  -0.051691  -0.049365  -0.014760
   94  O 13  X   -0.000574  -0.012791  -0.014745  -0.040315   0.085860
   95  O 13  Y    0.039691  -0.068449   0.025446  -0.045865   0.121427
   96  O 13  Z   -0.005698   0.030349  -0.000058  -0.018962  -0.055591
   97  H 14  S   -0.163106  -0.036795   0.035541   0.039325   0.009677
   98  H 14  S   -0.066536  -0.016324   0.024982   0.039661  -0.001410
   99  H 15  S    0.068249   0.123518  -0.019543   0.075973   0.054898
  100  H 15  S    0.054169   0.112792  -0.004655   0.091783   0.053403
  101  H 16  S   -0.031973  -0.013500  -0.147401   0.072276   0.059129
  102  H 16  S   -0.027961  -0.011521  -0.118438   0.060695   0.047655
  103  H 17  S   -0.082626   0.088094  -0.048047  -0.085652   0.038146
  104  H 17  S   -0.072008   0.062562  -0.023662  -0.059250   0.032128
  105  H 18  S   -0.033983   0.047279  -0.023115  -0.023209  -0.001520
  106  H 18  S   -0.016593   0.020815  -0.020236  -0.021486   0.004134
  107  H 19  S    0.005284  -0.053026  -0.000847   0.034702   0.098734
  108  H 19  S    0.003390  -0.033372  -0.004756   0.019686   0.068179
  109  H 20  S    0.028135  -0.051828   0.015265  -0.033746   0.098738
  110  H 20  S    0.022456  -0.037078   0.015463  -0.029630   0.076964

                     26         27         28         29         30
                   -0.4610    -0.4477    -0.4173    -0.4077    -0.4025
                     A          A          A          A          A   
    1  O  1  S   -0.029443  -0.074948   0.021987   0.002039  -0.007564
    2  O  1  S    0.025553   0.064769  -0.017986  -0.002106   0.006293
    3  O  1  X   -0.029189  -0.245914   0.050016  -0.062046  -0.068662
    4  O  1  Y    0.048799   0.202982  -0.111911   0.043987   0.065906
    5  O  1  Z   -0.141734  -0.099308   0.092526   0.223540   0.093249
    6  O  1  S    0.122344   0.301091  -0.083586  -0.000593   0.030030
    7  O  1  X   -0.023962  -0.232370   0.048332  -0.066682  -0.069535
    8  O  1  Y    0.043490   0.194521  -0.111036   0.035596   0.064668
    9  O  1  Z   -0.135598  -0.092811   0.092399   0.224926   0.094377
   10  C  2  S    0.012444   0.020999   0.009953  -0.001298  -0.007397
   11  C  2  S   -0.018459  -0.042836  -0.001954   0.001504   0.005958
   12  C  2  X    0.103561   0.140620  -0.111928  -0.056912   0.012130
   13  C  2  Y   -0.061956  -0.170246   0.072440   0.066518  -0.000301
   14  C  2  Z   -0.068343   0.141201  -0.023491   0.148857   0.098652
   15  C  2  S   -0.028646   0.004067  -0.077084   0.016150   0.038482
   16  C  2  X    0.045069  -0.000648  -0.050955  -0.023726  -0.015848
   17  C  2  Y   -0.027152  -0.042386   0.000105   0.054746   0.012592
   18  C  2  Z   -0.080755   0.048318   0.009704   0.165871   0.087184
   19  C  3  S   -0.013602  -0.003052  -0.009761   0.009800   0.006136
   20  C  3  S    0.010224   0.002023   0.006509  -0.011434  -0.001884
   21  C  3  X    0.045014  -0.111812   0.068851   0.000753  -0.017128
   22  C  3  Y   -0.030502   0.060754  -0.074854  -0.047225   0.009705
   23  C  3  Z   -0.123623   0.005498   0.083234  -0.017994  -0.073389
   24  C  3  S    0.072671   0.036054   0.043759  -0.040123  -0.049727
   25  C  3  X    0.051139  -0.080590   0.040064   0.052498  -0.022738
   26  C  3  Y   -0.049851   0.009340  -0.033075  -0.010377  -0.002429
   27  C  3  Z   -0.114323   0.013310   0.066367  -0.001198  -0.068374
   28  H  4  S   -0.063249  -0.006130   0.081709  -0.014552  -0.060211
   29  H  4  S   -0.046511  -0.011155   0.077437  -0.011296  -0.050954
   30  O  5  S   -0.005205   0.007385  -0.010634  -0.012704  -0.004699
   31  O  5  S    0.004276  -0.006242   0.011064   0.011228   0.002954
   32  O  5  X    0.071649  -0.005255   0.012700   0.083335   0.059320
   33  O  5  Y   -0.027033  -0.068536   0.110474   0.071738  -0.033032
   34  O  5  Z   -0.055287   0.039005   0.010329  -0.020971  -0.038653
   35  O  5  S    0.022203  -0.034183   0.037747   0.049584   0.026837
   36  O  5  X    0.070469   0.007341   0.006855   0.089733   0.060545
   37  O  5  Y   -0.029905  -0.078138   0.121824   0.079056  -0.038475
   38  O  5  Z   -0.049939   0.042837   0.008050  -0.021553  -0.037519
   39  C  6  S    0.025015   0.011428  -0.015975   0.012930  -0.014216
   40  C  6  S   -0.019412  -0.011668   0.011032  -0.012112   0.012028
   41  C  6  X   -0.109406   0.069635  -0.105483  -0.098631   0.038238
   42  C  6  Y   -0.029280   0.009831   0.048489   0.047305  -0.023618
   43  C  6  Z    0.071409  -0.169542  -0.156258  -0.105192   0.070389
   44  C  6  S   -0.127524  -0.043132   0.099652  -0.060354   0.063193
   45  C  6  X   -0.060683   0.029330  -0.076567  -0.113348   0.038015
   46  C  6  Y   -0.033111  -0.010477   0.042827  -0.013761   0.028624
   47  C  6  Z    0.045254  -0.170458  -0.108491  -0.135721   0.087151
   48  H  7  S   -0.054968   0.091826   0.128630   0.067353  -0.039958
   49  H  7  S   -0.030744   0.055089   0.104836   0.039890  -0.031689
   50  O  8  S    0.002001  -0.014586   0.010532  -0.031266   0.019872
   51  O  8  S   -0.002366   0.013762  -0.006507   0.029827  -0.019009
[...]
   19             0.005563   0.062060   0.097298   0.079117   0.006602
   20             0.139330   0.066962   0.012975   0.001136   0.016087

                     31         32         33         34         35

                  2.000000   2.000000   2.000000   2.000000   2.000000

    1             0.014686   0.042727   0.022657   0.222588   0.010373
    2             0.014836   0.061335   0.042372   0.008155   0.007829
    3             0.020095   0.040072   0.054495   0.035906   0.046359
    4             0.011686   0.006427   0.008201   0.045459   0.001559
    5             0.065690   0.433116   0.473312   0.599848   0.224452
    6             0.076940   0.051166   0.089643   0.079063   0.083277
    7             0.023729   0.080232   0.070413   0.004542   0.018510
    8             0.211282   0.030974   0.687518   0.505147   0.850042
    9             0.283527   0.201169   0.097429   0.082192   0.046581
   10             0.065198   0.123511   0.022133   0.002642  -0.000052
   11             0.124467   0.333350   0.194128   0.342089   0.513167
   12             0.503561   0.236574   0.073883   0.004473   0.042873
   13             0.270023   0.170080   0.012926   0.012977   0.090141
   14             0.000653   0.004888   0.007018   0.030308   0.001585
   15             0.008734   0.019262   0.038969   0.004085   0.000768
   16             0.004490   0.013911   0.069719   0.004834   0.011636
   17             0.022439   0.001917   0.013167   0.013406   0.026700
   18             0.171855   0.100521   0.009115   0.000419   0.009359
   19             0.066154   0.048248   0.009753   0.000012   0.003217
   20             0.039956   0.000519   0.003147   0.001857   0.011625

                     36         37         38         39         40

                  2.000000   2.000000   2.000000   2.000000   2.000000

    1             0.306484   0.718653   0.100478   0.027911   0.006715
    2             0.012969   0.033427   0.016147   0.007307   0.002791
    3             0.065431   0.153350   0.140897   0.024902   0.007745
    4             0.000915   0.078267   0.021090   0.000511   0.000148
    5             0.040265   0.450961   0.307251   0.061673   0.003645
    6             0.015341   0.028393   0.071681   0.119695   0.013089
    7             0.000372   0.032010   0.018227   0.003944   0.002290
    8             0.007874   0.056394   0.466595   0.220544   0.002651
    9             0.085500   0.026521   0.065417   0.059150   0.092893
   10             0.028663   0.011426   0.027888   0.104401   0.030484
   11             0.188300   0.037200   0.289712   1.302790   0.083425
   12             0.075897   0.012546   0.104822   0.000998   0.045123
   13             0.950226   0.184796   0.265015   0.048276   1.537707
   14             0.057596   0.125163   0.010936   0.002207   0.000979
   15             0.016139   0.019737   0.009563   0.002322   0.000521
   16             0.000024   0.004431   0.000735   0.002009   0.000308
   17             0.005269   0.001275   0.004736   0.000693   0.001229
   18             0.049382   0.006840   0.041530   0.007984   0.008389
   19             0.029266   0.008653   0.015483   0.000625   0.159811
   20             0.064087   0.009956   0.021796   0.002058   0.000058

               ----- POPULATIONS IN EACH AO -----
                             MULLIKEN      LOWDIN
              1  O  1  S      1.98579     1.98056
              2  O  1  S      0.44052     0.59664
              3  O  1  X      0.72599     0.71567
              4  O  1  Y      0.76860     0.75686
              5  O  1  Z      0.60626     0.59145
              6  O  1  S      1.55282     1.05809
              7  O  1  X      0.79607     0.84127
              8  O  1  Y      0.82697     0.88421
              9  O  1  Z      0.71268     0.73968
             10  C  2  S      1.98558     1.97516
             11  C  2  S      0.42942     0.45511
             12  C  2  X      0.55358     0.53073
             13  C  2  Y      0.62364     0.58160
             14  C  2  Z      0.42531     0.40798
             15  C  2  S      0.78191     0.57029
             16  C  2  X      0.24655     0.43687
             17  C  2  Y      0.35523     0.49298
             18  C  2  Z      0.34616     0.43790
             19  C  3  S      1.98844     1.97369
             20  C  3  S      0.36902     0.44215
             21  C  3  X      0.58836     0.57136
             22  C  3  Y      0.46174     0.44384
             23  C  3  Z      0.58318     0.54552
             24  C  3  S      1.02521     0.56444
             25  C  3  X      0.34431     0.51860
             26  C  3  Y      0.21149     0.41281
             27  C  3  Z      0.50020     0.55848
             28  H  4  S      0.47142     0.47805
             29  H  4  S      0.30704     0.42751
             30  O  5  S      1.98479     1.97875
             31  O  5  S      0.42193     0.57715
             32  O  5  X      0.71149     0.69739
             33  O  5  Y      0.61767     0.60252
             34  O  5  Z      0.80699     0.80390
             35  O  5  S      1.50436     1.03108
             36  O  5  X      0.84659     0.86352
             37  O  5  Y      0.74013     0.79989
             38  O  5  Z      0.93660     0.96138
             39  C  6  S      1.98827     1.97368
             40  C  6  S      0.37051     0.43901
             41  C  6  X      0.57243     0.55635
             42  C  6  Y      0.45969     0.43831
             43  C  6  Z      0.58434     0.55223
             44  C  6  S      1.00373     0.55905
             45  C  6  X      0.32294     0.50509
             46  C  6  Y      0.20689     0.41261
             47  C  6  Z      0.50265     0.54935
             48  H  7  S      0.47665     0.48503
             49  H  7  S      0.28859     0.41930
             50  O  8  S      1.98489     1.97933
             51  O  8  S      0.42672     0.58446
             52  O  8  X      0.83475     0.83669
             53  O  8  Y      0.63684     0.62517
             54  O  8  Z      0.64846     0.62353
             55  O  8  S      1.51260     1.05022
             56  O  8  X      0.99018     1.00489
             57  O  8  Y      0.77345     0.82730
             58  O  8  Z      0.73573     0.78478
             59  C  9  S      1.98846     1.97363
             60  C  9  S      0.37011     0.43759
             61  C  9  X      0.57854     0.55913
             62  C  9  Y      0.48011     0.46604
             63  C  9  Z      0.56427     0.52516
             64  C  9  S      0.99860     0.55639
             65  C  9  X      0.31286     0.49610
             66  C  9  Y      0.28386     0.44042
             67  C  9  Z      0.44978     0.54211
             68  H 10  S      0.47819     0.48832
             69  H 10  S      0.35135     0.45286
             70  O 11  S      1.98471     1.97884
             71  O 11  S      0.42012     0.57766
             72  O 11  X      0.71384     0.70262
             73  O 11  Y      0.60974     0.59251
             74  O 11  Z      0.81309     0.81476
             75  O 11  S      1.50786     1.04247
             76  O 11  X      0.86157     0.87494
             77  O 11  Y      0.71419     0.77641
             78  O 11  Z      0.97140     1.00205
             79  C 12  S      1.98667     1.97371
             80  C 12  S      0.37874     0.43363
             81  C 12  X      0.49224     0.47280
             82  C 12  Y      0.55603     0.52508
             83  C 12  Z      0.58235     0.53833
             84  C 12  S      0.99225     0.56949
             85  C 12  X      0.23377     0.42975
             86  C 12  Y      0.38735     0.50760
             87  C 12  Z      0.48399     0.56751
             88  O 13  S      1.98473     1.97928
             89  O 13  S      0.42573     0.58228
             90  O 13  X      0.67389     0.66546
             91  O 13  Y      0.59714     0.56818
             92  O 13  Z      0.85362     0.85846
             93  O 13  S      1.50939     1.05440
             94  O 13  X      0.83843     0.87833
             95  O 13  Y      0.66978     0.72664
             96  O 13  Z      1.00876     1.02613
             97  H 14  S      0.47548     0.47165
             98  H 14  S      0.30403     0.44332
             99  H 15  S      0.40054     0.41148
            100  H 15  S      0.23468     0.34700
            101  H 16  S      0.42659     0.43400
            102  H 16  S      0.23058     0.33254
            103  H 17  S      0.39498     0.40429
            104  H 17  S      0.23463     0.36127
            105  H 18  S      0.48325     0.48429
            106  H 18  S      0.32912     0.43777
            107  H 19  S      0.48038     0.48457
            108  H 19  S      0.34494     0.45102
            109  H 20  S      0.41525     0.42525
            110  H 20  S      0.23369     0.34304

          ----- MULLIKEN ATOMIC OVERLAP POPULATIONS -----
          (OFF-DIAGONAL ELEMENTS NEED TO BE MULTIPLIED BY 2)

             1           2           3           4           5

    1    8.0216644
    2    0.4789716   4.9997695
    3   -0.0806281   0.0966588   5.7999842
    4    0.0009053  -0.0400047   0.3268002   0.5640812
    5   -0.0103616  -0.0314156   0.2253143  -0.0318012   8.1618950
    6   -0.0001624  -0.0560820   0.0715829  -0.0603881  -0.0347886
    7    0.0005535  -0.0024457  -0.0594296   0.0045462   0.0030701
    8    0.0000079  -0.0020794  -0.0416359   0.0023935   0.0002221
    9   -0.0000218   0.0034196  -0.0667409  -0.0054650   0.0017348
   10    0.0000001   0.0000145  -0.0074206   0.0041886   0.0000811
   11   -0.0000001  -0.0000664   0.0005115  -0.0001450  -0.0134738
   12    0.0000000  -0.0000608   0.0038609  -0.0001146  -0.0000291
   13   -0.0000000   0.0000000  -0.0000155  -0.0000001  -0.0000000
   14   -0.0473347   0.3047396  -0.1048612   0.0035973   0.0014642
   15    0.0521149  -0.0044643  -0.0823677   0.0046009   0.2293446
   16   -0.0000009  -0.0003206  -0.0015800   0.0045350  -0.0000005
   17    0.0000067   0.0007424  -0.0079749   0.0007212   0.0692866
   18   -0.0000000   0.0000010   0.0000022   0.0000032   0.0000002
   19   -0.0000000   0.0000034  -0.0001040   0.0000034  -0.0000014
   20    0.0000000   0.0000001  -0.0000144   0.0000005   0.0000046

             6           7           8           9          10

    6    5.6746566
    7    0.3458844   0.5326795
    8    0.2211497  -0.0267481   8.1549570
    9    0.0481711  -0.0504172  -0.0310180   5.6096031
   10   -0.0623013   0.0055935   0.0007348   0.3152816   0.6539143
   11   -0.0341049   0.0041906   0.0002178   0.2353909  -0.0359240
   12   -0.0430738  -0.0066009   0.0018618   0.1742024  -0.0572695
   13    0.0020718  -0.0000139   0.0000011  -0.0346316   0.0025717
   14    0.0035717   0.0008721   0.0121807   0.0001148  -0.0000005
   15    0.0046372   0.0004241  -0.0000225  -0.0003334  -0.0000034
   16   -0.0620633   0.0058821   0.2466403  -0.0031070   0.0052122
   17   -0.0068415   0.0003569   0.0000322  -0.0524700  -0.0004863
   18   -0.0012819   0.0000550   0.0048859  -0.0412202  -0.0006172
   19   -0.0002219   0.0067655  -0.0001503  -0.0619802   0.0059344
   20    0.0010222   0.0000179  -0.0000043  -0.0139151   0.0000384

            11          12          13          14          15

   11    8.2240614
   12   -0.0489066   5.1968964
   13   -0.0068300   0.2788972   8.1420629
   14   -0.0000005   0.0000012  -0.0000000   0.6028983
   15    0.0005426   0.0000062   0.0000000   0.0024702   0.4298442
   16    0.0000242  -0.0010156  -0.0000147  -0.0001773   0.0000032
   17    0.2310954   0.0051358   0.0001418  -0.0000219  -0.0015775
   18    0.0019675   0.3376579  -0.0306442  -0.0000011  -0.0000000
   19    0.0013097   0.3171997  -0.0349144  -0.0000004  -0.0000002
   20    0.0366687  -0.0652634   0.2427785   0.0000000  -0.0000004

            16          17          18          19          20

   16    0.4615578
   17    0.0000238   0.3922003
   18    0.0015819  -0.0000938   0.5770728
   19   -0.0000163  -0.0002313  -0.0430124   0.6362285
   20    0.0000014  -0.0004321   0.0060178  -0.0014932   0.4435123

          TOTAL MULLIKEN AND LOWDIN ATOMIC POPULATIONS
       ATOM         MULL.POP.    CHARGE          LOW.POP.     CHARGE
    1 O             8.415715   -0.415715         8.164427   -0.164427
    2 C             5.747381    0.252619         5.888608    0.111392
    3 C             6.071942   -0.071942         6.030888   -0.030888
    4 H             0.778458    0.221542         0.905560    0.094440
    5 O             8.570546   -0.570546         8.315581   -0.315581
    6 C             6.011438   -0.011438         5.985673    0.014327
    7 H             0.765236    0.234764         0.904331    0.095669
    8 O             8.543626   -0.543626         8.316367   -0.316367
    9 C             6.026598   -0.026598         5.996571    0.003429
   10 H             0.829542    0.170458         0.941185    0.058815
   11 O             8.596529   -0.596529         8.362258   -0.362258
   12 C             6.093385   -0.093385         6.017897   -0.017897
   13 O             8.561461   -0.561461         8.339155   -0.339155
   14 H             0.779513    0.220487         0.914973    0.085027
   15 H             0.635219    0.364781         0.758477    0.241523
   16 H             0.657166    0.342834         0.766541    0.233459
   17 H             0.629614    0.370386         0.765563    0.234437
   18 H             0.812375    0.187625         0.922064    0.077936
   19 H             0.825318    0.174682         0.935585    0.064415
   20 H             0.648940    0.351060         0.768297    0.231703

          -------------------------------
          BOND ORDER AND VALENCE ANALYSIS     BOND ORDER THRESHOLD=0.050
          -------------------------------

                   BOND                       BOND                       BOND
  ATOM PAIR DIST  ORDER      ATOM PAIR DIST  ORDER      ATOM PAIR DIST  ORDER
    1   2  1.237  1.842        1  15  1.938  0.112        2   3  1.516  0.860
    2  14  1.096  0.819        3   4  1.100  0.855        3   5  1.453  0.898
    3   6  1.553  0.804        5  15  1.009  0.729        5  17  1.729  0.149
    6   7  1.093  0.871        6   8  1.457  0.908        6   9  1.529  0.836
    8  16  0.997  0.820        9  10  1.105  0.862        9  11  1.455  0.932
    9  12  1.532  0.886       11  17  1.010  0.700       11  20  2.009  0.072
   12  13  1.451  0.969       12  18  1.092  0.892       12  19  1.101  0.871
   13  20  1.002  0.778

                       TOTAL       BONDED        FREE
      ATOM            VALENCE     VALENCE     VALENCE
    1 O                 2.101       2.101       0.000
    2 C                 3.550       3.550      -0.000
    3 C                 3.482       3.482       0.000
    4 H                 0.902       0.902      -0.000
    5 O                 1.930       1.930       0.000
    6 C                 3.496       3.496      -0.000
    7 H                 0.903       0.903       0.000
    8 O                 1.889       1.889      -0.000
    9 C                 3.576       3.576      -0.000
   10 H                 0.914       0.914       0.000
   11 O                 1.870       1.870       0.000
   12 C                 3.625       3.625       0.000
   13 O                 1.878       1.878      -0.000
   14 H                 0.906       0.906       0.000
   15 H                 0.868       0.868       0.000
   16 H                 0.854       0.854      -0.000
   17 H                 0.872       0.872      -0.000
   18 H                 0.921       0.921       0.000
   19 H                 0.914       0.914       0.000
   20 H                 0.869       0.869      -0.000

          ---------------------
          ELECTROSTATIC MOMENTS
          ---------------------

 POINT   1           X           Y           Z (BOHR)    CHARGE
                 0.212621   -0.055603   -0.195269       -0.00 (A.U.)
         DX          DY          DZ         /D/  (DEBYE)
    -3.135828   -0.955865    1.764295    3.722879
 ...... END OF PROPERTY EVALUATION ......
 CPU     0: STEP CPU TIME=     0.05 TOTAL CPU TIME=        407.2 (      6.8 MIN)
 TOTAL WALL CLOCK TIME=        410.0 SECONDS, CPU UTILIZATION IS    99.33%
  $VIB   
          IVIB=   0 IATOM=   0 ICOORD=   0 E=     -569.1611447271
  6.554543029E-06-2.652505830E-06 1.525531459E-05 2.503876758E-05 9.865210419E-05
 -5.541923076E-06-4.038736290E-06 8.191763734E-06 7.755018914E-05-9.102965128E-06
 -1.029405602E-05-3.506066040E-05-6.749997336E-05-8.219608192E-05-1.738493217E-05
 -6.244977649E-06-2.810054331E-05-1.165292453E-05-9.101504852E-06-1.104290243E-05
 -2.366646976E-05 2.158274417E-07-3.857954660E-05-2.005045021E-05-2.061545185E-05
  1.701783316E-05 4.515635828E-05 1.523799472E-05 4.505202968E-06-1.246583018E-05
  6.183772046E-05 7.844759466E-06-6.235224903E-06-8.394157767E-06 3.764310581E-05
  3.459209188E-05 1.449419315E-05 3.883416103E-05-7.760709980E-06 1.036025411E-05
 -5.185090498E-06 6.358633957E-06-3.216954993E-06 2.400975462E-05-1.913897539E-05
  1.093809809E-05 2.410474133E-06 2.244743064E-05-1.380406086E-05 5.164463329E-06
 -7.103210512E-07-1.696013691E-05-2.786313622E-05-7.413113704E-06 1.651894371E-05
 -1.789520790E-05-4.003491066E-05-2.217422622E-06-2.046455172E-05 5.756427524E-06
 -3.135827956E+00-9.558645390E-01 1.764294601E+00
 ......END OF GEOMETRY SEARCH......
 CPU     0: STEP CPU TIME=     0.00 TOTAL CPU TIME=        407.2 (      6.8 MIN)
 TOTAL WALL CLOCK TIME=        410.0 SECONDS, CPU UTILIZATION IS    99.33%
               792678  WORDS OF DYNAMIC MEMORY USED
 EXECUTION OF GAMESS TERMINATED NORMALLY Fri May 22 16:37:07 2020
 DDI: 263640 bytes (0.3 MB / 0 MWords) used by master data server.
Note: The following floating-point exceptions are signalling: IEEE_UNDERFLOW_FLAGNote: The following floating-point exceptions are signalling: IEEE_UNDERFLOW_FLAGNote: The following floating-point exceptions are signalling: IEEE_UNDERFLOW_FLAGNote: The following floating-point exceptions are signalling: IEEE_UNDERFLOW_FLAGNote: The following floating-point exceptions are signalling: IEEE_UNDERFLOW_FLAG IEEE_DENORMAL
Note: The following floating-point exceptions are signalling: IEEE_UNDERFLOW_FLAG
 ----------------------------------------
 CPU timing information for all processes
 ========================================
 0: 403.610 + 3.647 = 407.257
 1: 404.29 + 1.204 = 405.234
 2: 403.967 + 1.564 = 405.531
 3: 403.541 + 1.128 = 404.669
 4: 403.955 + 1.328 = 405.283
 5: 403.493 + 0.876 = 404.369
 6: 403.476 + 1.335 = 404.811
 7: 403.132 + 0.924 = 404.56
 ----------------------------------------
 IEEE_DENORMAL
 IEEE_DENORMAL
 IEEE_DENORMAL
 IEEE_DENORMAL
 IEEE_DENORMAL
Note: The following floating-point exceptions are signalling: IEEE_UNDERFLOW_FLAGNote: The following floating-point exceptions are signalling: IEEE_DENORMAL IEEE_UNDERFLOW_FLAG IEEE_DENORMAL

 ddikick.x: exited gracefully.
unset echo
----- accounting info -----
Files used on the master node pietdev were:
-rwxr-xr-x 1 piet piet     1148 mei 22 16:30 /home/piet/scr/d-ribose_geoopt.F05*
-rw-r--r-- 1 piet piet 57344000 mei 22 16:37 /home/piet/scr/d-ribose_geoopt.F10
-rw-r--r-- 1 piet piet  5206144 mei 22 16:36 /home/piet/scr/d-ribose_geoopt.F22
-rw-r--r-- 1 piet piet  5206144 mei 22 16:36 /home/piet/scr/d-ribose_geoopt.F22.001
-rw-r--r-- 1 piet piet  5206144 mei 22 16:36 /home/piet/scr/d-ribose_geoopt.F22.002
-rw-r--r-- 1 piet piet  5206144 mei 22 16:36 /home/piet/scr/d-ribose_geoopt.F22.003
-rw-r--r-- 1 piet piet  5206144 mei 22 16:36 /home/piet/scr/d-ribose_geoopt.F22.004
-rw-r--r-- 1 piet piet  5206144 mei 22 16:36 /home/piet/scr/d-ribose_geoopt.F22.005
-rw-r--r-- 1 piet piet  5206144 mei 22 16:36 /home/piet/scr/d-ribose_geoopt.F22.006
-rw-r--r-- 1 piet piet  5206144 mei 22 16:36 /home/piet/scr/d-ribose_geoopt.F22.007
ls: No match.
ls: No match.
ls: No match.
vr 22 mei 2020 16:37:10 CEST
0.091u 0.038s 6:53.14 0.0%	0+0k 8+8io 0pf+0w
