----- GAMESS execution script 'rungms' -----
This job is running on host pietdev
under operating system Linux at vr 22 mei 2020 16:37:22 CEST
Available scratch disk space (Kbyte units) at beginning of the job is
Filesystem     1K-blocks     Used Available Use% Mounted on
/dev/sda2      244568380 31372900 200702424  14% /
GAMESS temporary binary files will be written to /home/piet/scr
GAMESS supplementary output files will be written to /home/piet/gamess/scr
Copying input file d-ribose_charge_chelpg.inp to your run's scratch directory...
cp d-ribose_charge_chelpg.inp /home/piet/scr/d-ribose_charge_chelpg.F05
unset echo
 
Assuming a single but multicore node.
 
/home/piet/gamess/ddikick.x /home/piet/gamess/gamess.03.x d-ribose_charge_chelpg -ddi 1 8 pietdev:cpus=8 -scr /home/piet/scr

 Distributed Data Interface kickoff program.
 Initiating 8 compute processes on 1 nodes to run the following command:
 /home/piet/gamess/gamess.03.x d-ribose_charge_chelpg 

          ******************************************************
          *         GAMESS VERSION = 30 SEP 2019 (R2)          *
          *             FROM IOWA STATE UNIVERSITY             *
          * M.W.SCHMIDT, K.K.BALDRIDGE, J.A.BOATZ, S.T.ELBERT, *
          *   M.S.GORDON, J.H.JENSEN, S.KOSEKI, N.MATSUNAGA,   *
          *          K.A.NGUYEN, S.J.SU, T.L.WINDUS,           *
          *       TOGETHER WITH M.DUPUIS, J.A.MONTGOMERY       *
          *         J.COMPUT.CHEM.  14, 1347-1363(1993)        *
          **************** 64 BIT LINUX VERSION ****************

  SINCE 1993, STUDENTS AND POSTDOCS WORKING AT IOWA STATE UNIVERSITY
  AND ALSO IN THEIR VARIOUS JOBS AFTER LEAVING ISU HAVE MADE IMPORTANT
  CONTRIBUTIONS TO THE CODE:
     IVANA ADAMOVIC, CHRISTINE AIKENS, YURI ALEXEEV, POOJA ARORA,
     ANDREY ASADCHEV, ROB BELL, PRADIPTA BANDYOPADHYAY, JONATHAN BENTZ,
     COLLEEN BERTONI, BRETT BODE, KURT BRORSEN, CALEB CARLIN, GALINA CHABAN,
     WEI CHEN, CHEOL HO CHOI, PAUL DAY, ALBERT DEFUSCO, NUWAN DESILVA,
     TIM DUDLEY, DMITRI FEDOROV, ALEX FINDLATER, GRAHAM FLETCHER, 
     MARK FREITAG, KURT GLAESEMANN, EMILIE B GUIDEZ, ANASTASIA GUNINA, 
     DAN KEMP, SAROM SOK LEANG, GRANT MERRILL,
     NORIYUKI MINEZAWA, JONATHAN MULLIN,
     TAKESHI NAGATA, SEAN NEDD, HEATHER NETZLOFF, BOSILJKA NJEGIC, RYAN OLSON,
     MIKE PAK, BUU PHAM, DAVID POOLE,
     SPENCER PRUITT, LUKE ROSKOP, TOSAPORN SATTASATHUCHANA,
     JIM SHOEMAKER, LYUDMILA SLIPCHENKO,
     TONY SMITH, JIE SONG, TETSUYA TAKETSUGU, SIMON WEBB,
     JORGE LUIS GALVEZ VALLEJO, PENG XU, SOOHAENG YOO,
     FEDERICO ZAHARIEV

  ADDITIONAL CODE HAS BEEN PROVIDED BY COLLABORATORS IN OTHER GROUPS:
     IOWA STATE UNIVERSITY:
          JOE IVANIC, AARON WEST, LAIMUTIS BYTAUTAS, KLAUS RUEDENBERG
     UNIVERSITY OF TOKYO: KIMIHIKO HIRAO, TAKAHITO NAKAJIMA,
          TAKAO TSUNEDA, MUNEAKI KAMIYA, SUSUMU YANAGISAWA,
          KIYOSHI YAGI, MAHITO CHIBA, SEIKEN TOKURA, NAOAKI KAWAKAMI
     UNIVERSITY OF AARHUS: FRANK JENSEN
     UNIVERSITY OF IOWA: VISVALDAS KAIRYS, HUI LI
     NATIONAL INST. OF STANDARDS AND TECHNOLOGY: WALT STEVENS, DAVID GARMER
     UNIVERSITY OF PISA: BENEDETTA MENNUCCI, JACOPO TOMASI
     UNIVERSITY OF MEMPHIS: HENRY KURTZ, PRAKASHAN KORAMBATH
     UNIVERSITY OF ALBERTA: TOBY ZENG, MARIUSZ KLOBUKOWSKI
     UNIVERSITY OF NEW ENGLAND: MARK SPACKMAN
     MIE UNIVERSITY: HIROAKI UMEDA
     NAT. INST. OF ADVANCED INDUSTRIAL SCIENCE AND TECHNOLOGY: KAZUO KITAURA
     MICHIGAN STATE UNIVERSITY:
          KAROL KOWALSKI, MARTA WLOCH, JEFFREY GOUR, JESSE LUTZ,
          WEI LI, JUN SHEN, J. EMILIANO DEUSTUA, PIOTR PIECUCH
     UNIVERSITY OF MINNESOTA:
          ANDREW SAND, PRACHI SHARMA, YINAN SHU
     UNIVERSITY OF SILESIA: MONIKA MUSIAL, STANISLAW KUCHARSKI
     FACULTES UNIVERSITAIRES NOTRE-DAME DE LA PAIX:
          OLIVIER QUINET, BENOIT CHAMPAGNE
     UNIVERSITY OF CALIFORNIA - SANTA BARBARA: BERNARD KIRTMAN
     INSTITUTE FOR MOLECULAR SCIENCE:
          KAZUYA ISHIMURA, MICHIO KATOUDA, AND SHIGERU NAGASE
     UNIVERSITY OF NOTRE DAME: ANNA POMOGAEVA, DAN CHIPMAN
     KYUSHU UNIVERSITY:
          HARUYUKI NAKANO,
          FENG LONG GU, JACEK KORCHOWIEC, MARCIN MAKOWSKI, AND YURIKO AOKI,
          HIROTOSHI MORI AND EISAKU MIYOSHI
     PENNSYLVANIA STATE UNIVERSITY:
          TZVETELIN IORDANOV, CHET SWALINA, JONATHAN SKONE,
          SHARON HAMMES-SCHIFFER
     WASEDA UNIVERSITY:
          MASATO KOBAYASHI, TOMOKO AKAMA, TSUGUKI TOUMA,
          TAKESHI YOSHIKAWA, YASUHIRO IKABATA, JUNJI SEINO,
          YUYA NAKAJIMA, HIROMI NAKAI
     NANJING UNIVERSITY: SHUHUA LI
     UNIVERSITY OF NEBRASKA:
          PEIFENG SU, DEJUN SI, NANDUN THELLAMUREGE, YALI WANG, HUI LI
     UNIVERSITY OF ZURICH: ROBERTO PEVERATI, KIM BALDRIDGE
     N. COPERNICUS UNIVERSITY AND JACKSON STATE UNIVERSITY:
          MARIA BARYSZ
     UNIVERSITY OF COPENHAGEN: Jimmy Kromann, CASPER STEINMANN
     TOKYO INSTITUTE OF TECHNOLOGY: HIROYA NAKATA
     NAGOYA UNIVERSITY: YOSHIO NISHIMOTO, STEPHAN IRLE
     MOSCOW STATE UNIVERSITY: VLADIMIR MIRONOV
     A.N.NESMEYANOV INSTITUTE OF ORGANOELEMENT COMPOUNDS OF RUSSIAN ACADEMY OF SCIENCES:
          IGOR S. GERASIMOV
     JOHANNES KEPLER UNIVERSITY LINZ:
          CHRISTIAN FRIEDL


 PARALLEL VERSION RUNNING ON        8 PROCESSORS IN        1 NODES.

 EXECUTION OF GAMESS BEGUN Fri May 22 16:37:22 2020

            ECHO OF THE FIRST FEW INPUT CARDS -
 INPUT CARD> $BASIS GBASIS=N21 NGAUSS=3 $END                                                
 INPUT CARD> $CONTRL SCFTYP=RHF DFTTYP=B3LYP MAXIT=60 MULT=1 ICHARG=0 $END                  
 INPUT CARD> $SYSTEM MEMDDI=1000 MWORDS=30 $END                                             
 INPUT CARD> $SCF DIRSCF=.TRUE. $END                                                        
 INPUT CARD> $ELPOT  IEPOT=1 WHERE=PDC $END                                                 
 INPUT CARD> $PDC PTSEL=CHELPG CONSTR=CHARGE $END                                           
 INPUT CARD> $DATA                                                                          
 INPUT CARD>                                                                                
 INPUT CARD>C1                                                                              
 INPUT CARD>O 8.0000000 -3.2619090791 0.4073462201 -0.6983425722                            
 INPUT CARD>C 6.0000000 -2.4975049918 -0.3687170729 -0.1121930616                           
 INPUT CARD>C 6.0000000 -1.1914535956 0.1426987428 0.4619871894                             
 INPUT CARD>H 1.0000000 -1.1653017061 -0.0316498378 1.5473655414                            
 INPUT CARD>O 8.0000000 -1.0923419593 1.5628692065 0.1695409674                             
 INPUT CARD>C 6.0000000 -0.0226750982 -0.6497363123 -0.1849830220                           
 INPUT CARD>H 1.0000000 -0.1286454357 -0.6262153308 -1.2726042359                           
 INPUT CARD>O 8.0000000 -0.1484188926 -2.0464771531 0.2111749881                            
 INPUT CARD>C 6.0000000 1.3304570036 -0.0345999699 0.1714310354                             
 INPUT CARD>H 1.0000000 1.4381225234 0.0039690201 1.2705053057                              
 INPUT CARD>O 8.0000000 1.4506885329 1.2852261766 -0.4293240310                             
 INPUT CARD>C 6.0000000 2.5127955978 -0.8115468600 -0.4162375238                            
 INPUT CARD>O 8.0000000 3.7131241725 -0.0320254794 -0.1773739192                            
 INPUT CARD>H 1.0000000 -2.6675463923 -1.4458663828 -0.0057003230                           
 INPUT CARD>H 1.0000000 -1.9255117788 1.7690435899 -0.3609894399                            
 INPUT CARD>H 1.0000000 0.1999011879 -2.1260141202 1.1424552720                             
 INPUT CARD>H 1.0000000 0.5730653025 1.7527865652 -0.2546888231                             
 INPUT CARD>H 1.0000000 2.6291137978 -1.7816063488 0.0704702424                             
 INPUT CARD>H 1.0000000 2.3169498826 -0.9696001752 -1.4884327531                            
 INPUT CARD>H 1.0000000 3.4218910285 0.8978153220 -0.4110611370                             
 INPUT CARD> $END                                                                           
   30000000 WORDS OF MEMORY AVAILABLE

     BASIS OPTIONS
     -------------
     GBASIS=N21          IGAUSS=       3      POLAR=NONE    
     NDFUNC=       0     NFFUNC=       0     DIFFSP=       F
     NPFUNC=       0      DIFFS=       F     BASNAM=        


     RUN TITLE
     ---------
                                                                                 

 THE POINT GROUP OF THE MOLECULE IS C1      
 THE ORDER OF THE PRINCIPAL AXIS IS     0

 ATOM      ATOMIC                      COORDINATES (BOHR)
           CHARGE         X                   Y                   Z
 O           8.0    -6.1641143564        0.7697727381       -1.3196761070
 C           6.0    -4.7196000875       -0.6967742348       -0.2120141441
 C           6.0    -2.2515208228        0.2696615227        0.8730291978
 H           1.0    -2.2021009176       -0.0598095210        2.9240968761
 O           8.0    -2.0642269880        2.9533945549        0.3203859721
 C           6.0    -0.0428497223       -1.2278235945       -0.3495672240
 H           1.0    -0.2431046230       -1.1833753845       -2.4048732967
 O           8.0    -0.2804710384       -3.8672810595        0.3990628630
 C           6.0     2.5141991752       -0.0653844623        0.3239576827
 H           1.0     2.7176575060        0.0075003604        2.4009068937
 O           8.0     2.7414038207        2.4287253060       -0.8113047785
 C           6.0     4.7484951430       -1.5336011916       -0.7865748658
 O           8.0     7.0167872444       -0.0605193807       -0.3351881047
 H           1.0    -5.0409317410       -2.7322912784       -0.0107720485
 H           1.0    -3.6386896481        3.3430076452       -0.6821711259
 H           1.0     0.3777584698       -4.0175841332        2.1589274173
 H           1.0     1.0829363948        3.3122863232       -0.4812920878
 H           1.0     4.9683046684       -3.3667478172        0.1331694484
 H           1.0     4.3784004054       -1.8322786488       -2.8127300545
 H           1.0     6.4664364037        1.6966249462       -0.7767929131

          INTERNUCLEAR DISTANCES (ANGS.)
          ------------------------------

                1 O          2 C          3 C          4 H          5 O     

   1 O       0.0000000    1.2369960 *  2.3881351 *  3.1034956    2.6068135 *
   2 C       1.2369960 *  0.0000000    1.5155855 *  2.1546495 *  2.4051783 *
   3 C       2.3881351 *  1.5155855 *  0.0000000    1.0996033 *  1.4533520 *
   4 H       3.1034956    2.1546495 *  1.0996033 *  0.0000000    2.1086049 *
   5 O       2.6068135 *  2.4051783 *  1.4533520 *  2.1086049 *  0.0000000  
   6 C       3.4458088    2.4917972 *  1.5532440 *  2.1653309 *  2.4830420 *
   7 H       3.3489352    2.6503500 *  2.1747638 *  3.0627429    2.7929527 *
   8 O       4.0672217    2.9047636 *  2.4378924 *  2.6227819 *  3.7309657  
   9 C       4.6948534    3.8529690    2.5447772 *  2.8499151 *  2.9020452 *
  10 H       5.1116898    4.1880680    2.7545631 *  2.6183464 *  3.1694704  
  11 O       4.8012103    4.2923574    3.0134232    3.5333934    2.6273045 *
  12 C       5.9086799    5.0390131    3.9247070    4.2417421    4.3563752  
  13 O       7.0082483    6.2200904    4.9491610    5.1743372    5.0750905  
  14 H       2.0657728 *  1.0956758 *  2.2183599 *  2.5823945 *  3.4006570  
  15 H       1.9375202 *  2.2269029 *  1.9649757 *  2.7317092 *  1.0090304 *
  16 H       4.6680383    3.4551752    2.7469916 *  2.5326060 *  4.0279418  
  17 H       4.0882841    3.7349009    2.4938994 *  3.0746598    1.7290520 *
  18 H       6.3314088    5.3208874    4.2956921    4.4318344    5.0044545  
  19 H       5.8003354    5.0432204    4.1653621    4.7140108    4.5591171  
  20 H       6.7079262    6.0607488    4.7555613    5.0736257    4.5997494  

                6 C          7 H          8 O          9 C         10 H     

   1 O       3.4458088    3.3489352    4.0672217    4.6948534    5.1116898  
   2 C       2.4917972 *  2.6503500 *  2.9047636 *  3.8529690    4.1880680  
   3 C       1.5532440 *  2.1747638 *  2.4378924 *  2.5447772 *  2.7545631 *
   4 H       2.1653309 *  3.0627429    2.6227819 *  2.8499151 *  2.6183464 *
   5 O       2.4830420 *  2.7929527 *  3.7309657    2.9020452 *  3.1694704  
   6 C       0.0000000    1.0930246 *  1.4572706 *  1.5285255 *  2.1632630 *
   7 H       1.0930246 *  0.0000000    2.0540534 *  2.1364050 *  3.0527529  
   8 O       1.4572706 *  2.0540534 *  0.0000000    2.4972592 *  2.8006470 *
   9 C       1.5285255 *  2.1364050 *  2.4972592 *  0.0000000    1.1050085 *
  10 H       2.1632630 *  3.0527529    2.8006470 *  1.1050085 *  0.0000000  
  11 O       2.4442960 *  2.6189742 *  3.7506840    1.4550956 *  2.1286610 *
  12 C       2.5511317 *  2.7829701 *  3.0001270    1.5319678 *  2.1598819 *
  13 O       3.7865315    4.0387851    4.3726995    2.4080644 *  2.6969024 *
  14 H       2.7679071 *  2.9534542 *  2.5988019 *  4.2434749    4.5373165  
  15 H       3.0825739    3.1300216    4.2477794    3.7600445    4.1341624  
  16 H       1.9977559 *  2.8617917 *  0.9974648 *  2.5680844 *  2.4670665 *
  17 H       2.4762637 *  2.6810818 *  3.8951217    1.9874534 *  2.4764701 *
  18 H       2.8945415 *  3.2778062    2.7936790 *  2.1791590 *  2.4590290 *
  19 H       2.6972466 *  2.4789981 *  3.1821964    2.1453534 *  3.0548181  
  20 H       3.7829966    3.9586911    4.6693842    2.3627932 *  2.7499026 *

               11 O         12 C         13 O         14 H         15 H     

   1 O       4.8012103    5.9086799    7.0082483    2.0657728 *  1.9375202 *
   2 C       4.2923574    5.0390131    6.2200904    1.0956758 *  2.2269029 *
   3 C       3.0134232    3.9247070    4.9491610    2.2183599 *  1.9649757 *
   4 H       3.5333934    4.2417421    5.1743372    2.5823945 *  2.7317092 *
   5 O       2.6273045 *  4.3563752    5.0750905    3.4006570    1.0090304 *
   6 C       2.4442960 *  2.5511317 *  3.7865315    2.7679071 *  3.0825739  
   7 H       2.6189742 *  2.7829701 *  4.0387851    2.9534542 *  3.1300216  
   8 O       3.7506840    3.0001270    4.3726995    2.5988019 *  4.2477794  
   9 C       1.4550956 *  1.5319678 *  2.4080644 *  4.2434749    3.7600445  
  10 H       2.1286610 *  2.1598819 *  2.6969024 *  4.5373165    4.1341624  
  11 O       0.0000000    2.3504680 *  2.6300657 *  4.9596555    3.4113747  
  12 C       2.3504680 *  0.0000000    1.4510335 *  5.2351547    5.1343034  
  13 O       2.6300657 *  1.4510335 *  0.0000000    6.5376888    5.9221432  
  14 H       4.9596555    5.2351547    6.5376888    0.0000000    3.3185075  
  15 H       3.4113747    5.1343034    5.9221432    3.3185075    0.0000000  
  16 H       3.9587270    3.0833144    4.2976125    3.1627706    4.6849974  
  17 H       1.0096201 *  3.2193878    3.6126862    4.5601469    2.5008902 *
  18 H       3.3232427    1.0915264 *  2.0730505 *  5.3078369    5.7911904  
  19 H       2.6374916 *  1.1013351 *  2.1324221 *  5.2221191    5.1739520  
  20 H       2.0089948 *  1.9360786 *  1.0020132 *  6.5374620    5.4181420  

               16 H         17 H         18 H         19 H         20 H     

   1 O       4.6680383    4.0882841    6.3314088    5.8003354    6.7079262  
   2 C       3.4551752    3.7349009    5.3208874    5.0432204    6.0607488  
   3 C       2.7469916 *  2.4938994 *  4.2956921    4.1653621    4.7555613  
   4 H       2.5326060 *  3.0746598    4.4318344    4.7140108    5.0736257  
   5 O       4.0279418    1.7290520 *  5.0044545    4.5591171    4.5997494  
   6 C       1.9977559 *  2.4762637 *  2.8945415 *  2.6972466 *  3.7829966  
   7 H       2.8617917 *  2.6810818 *  3.2778062    2.4789981 *  3.9586911  
   8 O       0.9974648 *  3.8951217    2.7936790 *  3.1821964    4.6693842  
   9 C       2.5680844 *  1.9874534 *  2.1791590 *  2.1453534 *  2.3627932 *
  10 H       2.4670665 *  2.4764701 *  2.4590290 *  3.0548181    2.7499026 *
  11 O       3.9587270    1.0096201 *  3.3232427    2.6374916 *  2.0089948 *
  12 C       3.0833144    3.2193878    1.0915264 *  1.1013351 *  1.9360786 *
  13 O       4.2976125    3.6126862    2.0730505 *  2.1324221 *  1.0020132 *
  14 H       3.1627706    4.5601469    5.3078369    5.2221191    6.5374620  
  15 H       4.6849974    2.5008902 *  5.7911904    5.1739520    5.4181420  
  16 H       0.0000000    4.1396084    2.6774694 *  3.5694201    4.6838207  
  17 H       4.1396084    0.0000000    4.1018285    3.4604403    2.9784620 *
  18 H       2.6774694 *  4.1018285    0.0000000    1.7852112 *  2.8354310 *
  19 H       3.5694201    3.4604403    1.7852112 *  0.0000000    2.4225741 *
  20 H       4.6838207    2.9784620 *  2.8354310 *  2.4225741 *  0.0000000  

  * ... LESS THAN  3.000


     ATOMIC BASIS SET
     ----------------
 THE CONTRACTED PRIMITIVE FUNCTIONS HAVE BEEN UNNORMALIZED
 THE CONTRACTED BASIS FUNCTIONS ARE NOW NORMALIZED TO UNITY

  SHELL TYPE  PRIMITIVE        EXPONENT          CONTRACTION COEFFICIENT(S)

 O         

      1   S       1           322.0370000    0.059239393389
      1   S       2            48.4308000    0.351499960776
      1   S       3            10.4206000    0.707657921031

      2   L       4             7.4029400   -0.404453583190    0.244586106967
      2   L       5             1.5762000    1.221561761397    0.853955373466

      3   L       6             0.3736840    1.000000000000    1.000000000000

 C         

      4   S       7           172.2560000    0.061766907377
      4   S       8            25.9109000    0.358794042852
      4   S       9             5.5333500    0.700713083689

      5   L      10             3.6649800   -0.395895162119    0.236459946619
      5   L      11             0.7705450    1.215834355681    0.860618805716

      6   L      12             0.1958570    1.000000000000    1.000000000000

 C         

      7   S      13           172.2560000    0.061766907377
      7   S      14            25.9109000    0.358794042852
      7   S      15             5.5333500    0.700713083689

      8   L      16             3.6649800   -0.395895162119    0.236459946619
      8   L      17             0.7705450    1.215834355681    0.860618805716

      9   L      18             0.1958570    1.000000000000    1.000000000000

 H         

     10   S      19             5.4471780    0.156284978695
     10   S      20             0.8245472    0.904690876670

     11   S      21             0.1831916    1.000000000000

 O         

     12   S      22           322.0370000    0.059239393389
     12   S      23            48.4308000    0.351499960776
     12   S      24            10.4206000    0.707657921031

     13   L      25             7.4029400   -0.404453583190    0.244586106967
     13   L      26             1.5762000    1.221561761397    0.853955373466

     14   L      27             0.3736840    1.000000000000    1.000000000000

 C         

     15   S      28           172.2560000    0.061766907377
     15   S      29            25.9109000    0.358794042852
     15   S      30             5.5333500    0.700713083689

     16   L      31             3.6649800   -0.395895162119    0.236459946619
     16   L      32             0.7705450    1.215834355681    0.860618805716

     17   L      33             0.1958570    1.000000000000    1.000000000000

 H         

     18   S      34             5.4471780    0.156284978695
     18   S      35             0.8245472    0.904690876670

     19   S      36             0.1831916    1.000000000000

 O         

     20   S      37           322.0370000    0.059239393389
     20   S      38            48.4308000    0.351499960776
     20   S      39            10.4206000    0.707657921031

     21   L      40             7.4029400   -0.404453583190    0.244586106967
     21   L      41             1.5762000    1.221561761397    0.853955373466

     22   L      42             0.3736840    1.000000000000    1.000000000000

 C         

     23   S      43           172.2560000    0.061766907377
     23   S      44            25.9109000    0.358794042852
     23   S      45             5.5333500    0.700713083689

     24   L      46             3.6649800   -0.395895162119    0.236459946619
     24   L      47             0.7705450    1.215834355681    0.860618805716

     25   L      48             0.1958570    1.000000000000    1.000000000000

 H         

     26   S      49             5.4471780    0.156284978695
     26   S      50             0.8245472    0.904690876670

     27   S      51             0.1831916    1.000000000000

 O         

     28   S      52           322.0370000    0.059239393389
     28   S      53            48.4308000    0.351499960776
     28   S      54            10.4206000    0.707657921031

     29   L      55             7.4029400   -0.404453583190    0.244586106967
     29   L      56             1.5762000    1.221561761397    0.853955373466

     30   L      57             0.3736840    1.000000000000    1.000000000000

 C         

     31   S      58           172.2560000    0.061766907377
     31   S      59            25.9109000    0.358794042852
     31   S      60             5.5333500    0.700713083689

     32   L      61             3.6649800   -0.395895162119    0.236459946619
     32   L      62             0.7705450    1.215834355681    0.860618805716

     33   L      63             0.1958570    1.000000000000    1.000000000000

 O         

     34   S      64           322.0370000    0.059239393389
     34   S      65            48.4308000    0.351499960776
     34   S      66            10.4206000    0.707657921031

     35   L      67             7.4029400   -0.404453583190    0.244586106967
     35   L      68             1.5762000    1.221561761397    0.853955373466

     36   L      69             0.3736840    1.000000000000    1.000000000000

 H         

     37   S      70             5.4471780    0.156284978695
     37   S      71             0.8245472    0.904690876670

     38   S      72             0.1831916    1.000000000000

 H         

     39   S      73             5.4471780    0.156284978695
     39   S      74             0.8245472    0.904690876670

     40   S      75             0.1831916    1.000000000000

 H         

     41   S      76             5.4471780    0.156284978695
     41   S      77             0.8245472    0.904690876670

     42   S      78             0.1831916    1.000000000000

 H         

     43   S      79             5.4471780    0.156284978695
     43   S      80             0.8245472    0.904690876670

     44   S      81             0.1831916    1.000000000000

 H         

     45   S      82             5.4471780    0.156284978695
     45   S      83             0.8245472    0.904690876670

     46   S      84             0.1831916    1.000000000000

 H         

     47   S      85             5.4471780    0.156284978695
     47   S      86             0.8245472    0.904690876670

     48   S      87             0.1831916    1.000000000000

 H         

     49   S      88             5.4471780    0.156284978695
     49   S      89             0.8245472    0.904690876670

     50   S      90             0.1831916    1.000000000000

 TOTAL NUMBER OF BASIS SET SHELLS             =   50
 NUMBER OF CARTESIAN GAUSSIAN BASIS FUNCTIONS =  110
 NUMBER OF ELECTRONS                          =   80
 CHARGE OF MOLECULE                           =    0
 SPIN MULTIPLICITY                            =    1
 NUMBER OF OCCUPIED ORBITALS (ALPHA)          =   40
 NUMBER OF OCCUPIED ORBITALS (BETA )          =   40
 TOTAL NUMBER OF ATOMS                        =   20
 THE NUCLEAR REPULSION ENERGY IS      582.0031802219

 SELECTED MURRAY-HANDY-LAMING RADIAL GRID

 LEGACY BECKE'S FUZZY CELL METHOD

 SELECTED ORIGINAL BECKE'S PARTITION FUNCTION

     LEBEDEV GRID-BASED DFT OPTIONS
     ------------------------------
     DFTTYP=B3LYP   
     NRAD  =      96     NLEB  =     302
     NRAD0 =      24     NLEB0 =     110
     SWOFF =    5.00E-03 (PURE SCF -> DFT)
     SWITCH=    3.00E-04 (COARSE -> TIGHT GRID)
     THRESH=    0.00E+00 GTHRE=    1.00E+00

 GRIMME'S EMPIRICAL DISPERSION CORRECTION= F

     $CONTRL OPTIONS
     ---------------
 SCFTYP=RHF          RUNTYP=ENERGY       EXETYP=RUN     
 MPLEVL=       0     CITYP =NONE         CCTYP =NONE         VBTYP =NONE    
 DFTTYP=B3LYP        TDDFT =NONE    
 MULT  =       1     ICHARG=       0     NZVAR =       0     COORD =UNIQUE  
 PP    =NONE         RELWFN=NONE         LOCAL =NONE         NUMGRD=       F
 ISPHER=      -1     NOSYM =       0     MAXIT =      60     UNITS =ANGS    
 PLTORB=       F     MOLPLT=       F     AIMPAC=       F     FRIEND=        
 NPRINT=       7     IREST =       0     GEOM  =INPUT   
 NORMF =       0     NORMP =       0     ITOL  =      20     ICUT  =       9
 INTTYP=BEST         GRDTYP=BEST         QMTTOL= 1.0E-06

     $SYSTEM OPTIONS
     ---------------
  REPLICATED MEMORY=    30000000 WORDS (ON EVERY NODE).
 DISTRIBUTED MEMDDI=        1000 MILLION WORDS IN AGGREGATE,
 MEMDDI DISTRIBUTED OVER   8 PROCESSORS IS   125000000 WORDS/PROCESSOR.
 TOTAL MEMORY REQUESTED ON EACH PROCESSOR=   155000000 WORDS.
 TIMLIM=      525600.00 MINUTES, OR     365.0 DAYS.
 PARALL= T  BALTYP=  DLB     KDIAG=    0  COREFL= F
 MXSEQ2=     300 MXSEQ3=     150  mem10=         0

     INPUT FOR POTENTIAL-DERIVED CHARGES 
     -----------------------------------
     VDWSCL=    1.00   RMAX=    3.00   DELR=    0.80
     VDWINC=    0.20 PTDENS=    0.28
     LAYER =       4  NFREQ=      30 MAXPDC=   10000
     CONSTR=CHARGE    UNITS=ANGS      PTSEL=CHELPG  
     CENTER=  0.0000  0.0000  0.0000
     DPOLE =  0.0000  0.0000  0.0000
     QPOLE =  0.0000  0.0000  0.0000  0.0000  0.0000  0.0000


          ----------------
          PROPERTIES INPUT
          ----------------

     MOMENTS            FIELD           POTENTIAL          DENSITY
 IEMOM =       1   IEFLD =       0   IEPOT =       1   IEDEN =       0
 WHERE =COMASS     WHERE =NUCLEI     WHERE =PDC        WHERE =NUCLEI  
 OUTPUT=BOTH       OUTPUT=BOTH       OUTPUT=BOTH       OUTPUT=BOTH    
 IEMINT=       0   IEFINT=       0                     IEDINT=       0
                                                       MORB  =       0
          EXTRAPOLATION IN EFFECT
          DIIS IN EFFECT
 ORBITAL PRINTING OPTION: NPREO=     1   110     2     1

     -------------------------------
     INTEGRAL TRANSFORMATION OPTIONS
     -------------------------------
     NWORD  =            0
     CUTOFF = 1.0E-09     MPTRAN =       0
     DIRTRF =       T     AOINTS =DUP     

          ----------------------
          INTEGRAL INPUT OPTIONS
          ----------------------
 NOPK  =       1 NORDER=       0 SCHWRZ=       T

     ------------------------------------------
     THE POINT GROUP IS C1 , NAXIS= 0, ORDER= 1
     ------------------------------------------

     DIMENSIONS OF THE SYMMETRY SUBSPACES ARE
 A   =  110

 ..... DONE SETTING UP THE RUN .....
 CPU     0: STEP CPU TIME=     0.03 TOTAL CPU TIME=          0.0 (      0.0 MIN)
 TOTAL WALL CLOCK TIME=          0.0 SECONDS, CPU UTILIZATION IS    75.00%

          ********************
          1 ELECTRON INTEGRALS
          ********************
 ...... END OF ONE-ELECTRON INTEGRALS ......
 CPU     0: STEP CPU TIME=     0.01 TOTAL CPU TIME=          0.0 (      0.0 MIN)
 TOTAL WALL CLOCK TIME=          0.0 SECONDS, CPU UTILIZATION IS    80.00%

          -------------
          GUESS OPTIONS
          -------------
          GUESS =HUCKEL            NORB  =       0          NORDER=       0
          MIX   =       F          PRTMO =       F          PUNMO =       F
          TOLZ  = 1.0E-08          TOLE  = 1.0E-05
          SYMDEN=       F          PURIFY=       F

 INITIAL GUESS ORBITALS GENERATED BY HUCKEL   ROUTINE.
 HUCKEL GUESS REQUIRES    117020 WORDS.

 SYMMETRIES FOR INITIAL GUESS ORBITALS FOLLOW.   BOTH SET(S).
    40 ORBITALS ARE OCCUPIED (   10 CORE ORBITALS).
    11=A       12=A       13=A       14=A       15=A       16=A       17=A   
    18=A       19=A       20=A       21=A       22=A       23=A       24=A   
    25=A       26=A       27=A       28=A       29=A       30=A       31=A   
    32=A       33=A       34=A       35=A       36=A       37=A       38=A   
    39=A       40=A       41=A       42=A       43=A       44=A       45=A   
    46=A       47=A       48=A       49=A       50=A   
 ...... END OF INITIAL ORBITAL SELECTION ......
 CPU     0: STEP CPU TIME=     0.03 TOTAL CPU TIME=          0.1 (      0.0 MIN)
 TOTAL WALL CLOCK TIME=          0.1 SECONDS, CPU UTILIZATION IS    87.50%

                    ----------------------
                    AO INTEGRAL TECHNOLOGY
                    ----------------------
     S,P,L SHELL ROTATED AXIS INTEGRALS, REPROGRAMMED BY
        KAZUYA ISHIMURA (IMS) AND JOSE SIERRA (SYNSTAR).
     S,P,D,L SHELL ROTATED AXIS INTEGRALS PROGRAMMED BY
        KAZUYA ISHIMURA (INSTITUTE FOR MOLECULAR SCIENCE).
     S,P,D,F,G SHELL TO TOTAL QUARTET ANGULAR MOMENTUM SUM 5,
        ERIC PROGRAM BY GRAHAM FLETCHER (ELORET AND NASA ADVANCED
        SUPERCOMPUTING DIVISION, AMES RESEARCH CENTER).
     S,P,D,F,G,L SHELL GENERAL RYS QUADRATURE PROGRAMMED BY
        MICHEL DUPUIS (PACIFIC NORTHWEST NATIONAL LABORATORY).

          --------------------
          2 ELECTRON INTEGRALS
          --------------------

 DIRECT SCF METHOD SKIPS INTEGRAL STORAGE ON DISK.
 DIRECT TRANSFORMATION SKIPS AO INTEGRAL STORAGE ON DISK.
  ...... END OF TWO-ELECTRON INTEGRALS .....
 CPU     0: STEP CPU TIME=     0.02 TOTAL CPU TIME=          0.1 (      0.0 MIN)
 TOTAL WALL CLOCK TIME=          0.1 SECONDS, CPU UTILIZATION IS    90.00%

          --------------------------
             R-B3LYP SCF CALCULATION
          --------------------------

     NUCLEAR ENERGY =       582.0031802219
     MAXIT =   60     NPUNCH=    2
     EXTRAP=T  DAMP=F  SHIFT=F  RSTRCT=F  DIIS=T  DEM=F  SOSCF=F
         DENSITY MATRIX CONVERGENCE THRESHOLD=  2.00E-05
     COARSE -> FINE DFT GRID SWITCH THRESHOLD=  3.00E-04 (SWITCH IN $DFT)
                   HF -> DFT SWITCH THRESHOLD=  5.00E-03 (SWOFF IN $DFT)
     MEMORY REQUIRED FOR RHF ITERS=    792048 WORDS.

 DIRECT SCF CALCULATION, SCHWRZ=T   FDIFF=T,  DIRTHR=  0.00E+00 NITDIR=10
 SCHWARZ INEQUALITY OVERHEAD:      5623 INTEGRALS, T=        0.00

 DFT CODE IS SWITCHING FROM THE FINE GRID NRAD= 96,  NLEB=  302
                      TO THE COARSE GRID NRAD0= 24, NLEB0=  110

     EXCHANGE FUNCTIONAL   =B88&HFX   
     CORRELATION FUNCTIONAL=LYP88&VWN5
     DFT THRESHOLD         =.690E-08
     GRID CHANGE THRESHOLD =.300E-03
 FOR AN EULER-MACLAURIN QUADRATURE USING  96 RADIAL POINTS:
 SMALLEST GAUSSIAN PRIMITIVE EXPONENT=        0.1831915800 OF TYPE -S-
 ON ATOM NUMBER   4 HAS RADIAL NORMALIZATION=  1.000000
  LARGEST GAUSSIAN PRIMITIVE EXPONENT=      322.0370000000 OF TYPE -S-
 ON ATOM NUMBER   1 HAS RADIAL NORMALIZATION=  1.000000
 DFT IS SWITCHED OFF, PERFORMING PURE SCF UNTIL SWOFF THRESHOLD IS REACHED.

                                                                                   NONZERO     BLOCKS
 ITER EX DEM     TOTAL ENERGY        E CHANGE  DENSITY CHANGE    DIIS ERROR      INTEGRALS    SKIPPED
   1  0  0     -564.6618543360  -564.6618543360   0.848792690   0.695612781       10636893     375559
          * * *   INITIATING DIIS PROCEDURE   * * *
   2  1  0     -566.1272880553    -1.4654337193   0.119717110   0.195298281       10620972     383099
   3  2  0     -566.2126218185    -0.0853337633   0.120632207   0.152817986       10523654     403326
   4  3  0     -566.2570203225    -0.0443985040   0.030041031   0.022851343       10386280     421107
   5  4  0     -566.2596165623    -0.0025962398   0.004175616   0.004691050       10212080     434865
 CONVERGED TO SWOFF, SO DFT CALCULATION IS NOW SWITCHED ON.
          * * *   INITIATING DIIS PROCEDURE   * * *
   6  5  0     -569.1056629313    -2.8460463689   0.147338387   0.070105178       10643588     371748
   7  6  0     -569.1465490127    -0.0408860815   0.128405754   0.067642865       10559016     398561
   8  7  0     -569.1395826389     0.0069663738   0.076721594   0.114222612       10448547     413784
   9  8  0     -569.1576708130    -0.0180881740   0.012024100   0.024372895       10312250     427984
  10  9  0     -569.1586455452    -0.0009747322   0.003452963   0.004283771        9982446     449458
  11 10  0     -569.1586933741    -0.0000478290   0.000754138   0.000531098        9507209     477962
  12 11  0     -569.1586953554    -0.0000019812   0.000107456   0.000134602        9019956     498594
 DFT CODE IS SWITCHING BACK TO THE FINE GRID
          * * *   INITIATING DIIS PROCEDURE   * * *
  13 12  0     -569.1611191117    -0.0024237564   0.001889368   0.000868248       10646781     369891
  14 13  0     -569.1611429940    -0.0000238823   0.001761727   0.000276398        9690120     467314
  15 14  0     -569.1611432081    -0.0000002140   0.000830227   0.000387463        9195982     492539
  16 15  0     -569.1611446541    -0.0000014461   0.000125297   0.000175156        8799565     511332
  17 16  0     -569.1611447123    -0.0000000582   0.000056452   0.000107606        8032163     543519
  18 17  0     -569.1611447255    -0.0000000132   0.000015942   0.000026893        7480330     571192
  19 18  0     -569.1611447269    -0.0000000014   0.000004784   0.000005206        7036409     587131

          -----------------
          DENSITY CONVERGED
          -----------------
     TIME TO FORM FOCK OPERATORS=      15.5 SECONDS (       0.8 SEC/ITER)
     FOCK TIME ON FIRST ITERATION=       0.1, LAST ITERATION=       1.8
     TIME TO SOLVE SCF EQUATIONS=       0.3 SECONDS (       0.0 SEC/ITER)

 FINAL R-B3LYP ENERGY IS     -569.1611447269 AFTER  19 ITERATIONS
 DFT EXCHANGE + CORRELATION ENERGY =       -59.2349025306
 TOTAL ELECTRON NUMBER             =        80.0002211917

          ------------
          EIGENVECTORS
          ------------

                      1          2          3          4          5
                  -19.0889   -19.0705   -19.0605   -19.0184   -19.0006
                     A          A          A          A          A   
    1  O  1  S    0.982635   0.006280   0.003087   0.000259   0.000072
    2  O  1  S    0.106369  -0.000002  -0.000075  -0.000075  -0.000030
    3  O  1  X    0.003077   0.000095  -0.000040  -0.000020   0.000018
    4  O  1  Y   -0.002426   0.000305   0.000066  -0.000047  -0.000008
    5  O  1  Z    0.002214  -0.000010   0.000074   0.000029  -0.000025
    6  O  1  S   -0.058686   0.004630   0.001815   0.000546   0.000251
    7  O  1  X   -0.010948   0.001021   0.000586   0.000318   0.000004
    8  O  1  Y    0.008440  -0.001751  -0.000477   0.000160   0.000018
    9  O  1  Z   -0.007819   0.000816  -0.000021   0.000002   0.000137
   10  C  2  S    0.000003   0.000212   0.000106   0.000053  -0.000011
   11  C  2  S    0.000219   0.000446   0.000655   0.000329  -0.000160
   12  C  2  X   -0.001786  -0.000615   0.000128   0.000059  -0.000159
   13  C  2  Y    0.000709  -0.000158   0.000043   0.000063   0.000028
   14  C  2  Z   -0.001177  -0.000280  -0.000115   0.000036   0.000004
   15  C  2  S    0.022024  -0.008222  -0.003058  -0.001956  -0.000516
   16  C  2  X   -0.008877  -0.001265  -0.000421  -0.001262  -0.000044
   17  C  2  Y    0.020685  -0.009161  -0.002091  -0.001312  -0.000616
   18  C  2  Z   -0.009449   0.002393   0.001370   0.000070  -0.000139
   19  C  3  S    0.000252  -0.001078   0.000067   0.000049  -0.000054
   20  C  3  S    0.000964  -0.004804  -0.000270   0.000515  -0.000338
   21  C  3  X    0.000333   0.000268  -0.000343   0.000517   0.000180
   22  C  3  Y    0.000757   0.001310   0.000400  -0.000032   0.000000
   23  C  3  Z   -0.000296   0.000504   0.000664   0.000386   0.000101
   24  C  3  S   -0.004934   0.024850  -0.002330  -0.000392   0.002576
   25  C  3  X    0.004513  -0.001704  -0.002822  -0.002050  -0.000130
   26  C  3  Y   -0.010211   0.014496   0.004779   0.000697  -0.000668
   27  C  3  Z    0.006410  -0.010099  -0.003630  -0.003160  -0.001351
   28  H  4  S   -0.000660  -0.000656   0.000961   0.000535   0.000007
   29  H  4  S   -0.001984   0.001435   0.000965   0.001470   0.000302
   30  O  5  S   -0.006472   0.982567  -0.004278  -0.004464   0.000073
   31  O  5  S   -0.001400   0.106080  -0.000167   0.000477   0.000002
   32  O  5  X   -0.000286  -0.001760  -0.000240   0.000632  -0.000048
   33  O  5  Y    0.000332  -0.002774   0.000127   0.000196  -0.000034
   34  O  5  Z   -0.000249  -0.000845   0.000048  -0.000127  -0.000032
   35  O  5  S    0.004669  -0.054130  -0.001704  -0.002185  -0.000091
   36  O  5  X    0.000940   0.003931   0.001055  -0.002298   0.000228
   37  O  5  Y   -0.003186   0.010313   0.000290  -0.000364   0.000217
   38  O  5  Z    0.001240   0.001270  -0.000097   0.000627   0.000155
   39  C  6  S    0.000001   0.000233  -0.001004   0.000205  -0.000156
   40  C  6  S   -0.000058   0.000936  -0.004425   0.000603  -0.000975
   41  C  6  X    0.000184   0.000311  -0.000090  -0.000566  -0.000592
   42  C  6  Y    0.000112   0.000002  -0.001240  -0.000312   0.000293
   43  C  6  Z    0.000533  -0.000785  -0.000122  -0.000447   0.000130
   44  C  6  S   -0.001532  -0.005687   0.023130  -0.006265   0.003252
   45  C  6  X   -0.001111   0.001678  -0.000038  -0.003090   0.004859
   46  C  6  Y    0.001043  -0.006317  -0.012994  -0.004220  -0.001502
   47  C  6  Z   -0.005980   0.005215   0.008837   0.004072  -0.000819
   48  H  7  S   -0.000329   0.001402  -0.001032   0.001016  -0.000497
   49  H  7  S   -0.003346   0.002086   0.000419   0.001534  -0.000128
   50  O  8  S   -0.003209   0.004343   0.982503  -0.000839  -0.000765
   51  O  8  S   -0.000724   0.000739   0.105176   0.000129   0.000173
   52  O  8  X    0.000057   0.000283   0.001168  -0.000249   0.000018
   53  O  8  Y   -0.000086  -0.000093   0.003296  -0.000078   0.000028
   54  O  8  Z    0.000013  -0.000063   0.001512   0.000067  -0.000060
   55  O  8  S    0.001656  -0.002341  -0.051463  -0.001544  -0.001165
   56  O  8  X    0.000107  -0.001160  -0.002832   0.000917  -0.000483
   57  O  8  Y    0.000773  -0.000407  -0.010943  -0.000222  -0.000491
   58  O  8  Z    0.000102   0.000232  -0.001905  -0.000269   0.000396
   59  C  9  S   -0.000063   0.000004   0.000182  -0.001035   0.000299
   60  C  9  S   -0.000405   0.000194   0.000592  -0.004636   0.001214
   61  C  9  X    0.000022  -0.000332   0.000464   0.000137  -0.000783
   62  C  9  Y    0.000033  -0.000084  -0.000034   0.001591   0.000110
   63  C  9  Z   -0.000098   0.000570   0.000586   0.000077  -0.000081
   64  C  9  S    0.002285   0.000940  -0.004764   0.023888  -0.009621
   65  C  9  X   -0.001219   0.000892   0.001825  -0.000372  -0.001883
   66  C  9  Y   -0.001398   0.000614   0.006075   0.009791   0.001882
   67  C  9  Z    0.001568  -0.004631  -0.004192  -0.010274   0.002719
   68  H 10  S   -0.000300   0.000771   0.001391  -0.000894   0.000533
   69  H 10  S   -0.000792   0.001344   0.000492   0.000558  -0.000861
   70  O 11  S   -0.000317   0.004688   0.000886   0.982519  -0.005697
   71  O 11  S   -0.000133   0.001557   0.000350   0.105583  -0.000310
   72  O 11  X   -0.000038  -0.000157   0.000294  -0.002389   0.000607
   73  O 11  Y    0.000049   0.000309   0.000075  -0.001807  -0.000149
   74  O 11  Z   -0.000003  -0.000005   0.000094   0.001888  -0.000147
   75  O 11  S    0.000499  -0.004316  -0.002239  -0.052388   0.000443
   76  O 11  X    0.000213   0.001075  -0.001061   0.005767  -0.002343
   77  O 11  Y   -0.000336  -0.000666   0.000582   0.007341   0.000088
   78  O 11  Z    0.000033  -0.000068  -0.000543  -0.005290   0.000527
   79  C 12  S    0.000015   0.000076   0.000003   0.000178  -0.000909
   80  C 12  S    0.000084   0.000473   0.000159   0.000449  -0.003648
   81  C 12  X    0.000008  -0.000083  -0.000246   0.000684   0.001476
   82  C 12  Y   -0.000013   0.000046   0.000119  -0.000648   0.000925
   83  C 12  Z    0.000002  -0.000183  -0.000289  -0.000408   0.000158
   84  C 12  S   -0.000304  -0.002254   0.000752  -0.006072   0.021617
   85  C 12  X    0.000053   0.001562   0.000543   0.001563   0.006458
   86  C 12  Y    0.000434  -0.001344  -0.000957  -0.003583   0.008079
   87  C 12  Z   -0.000362   0.001364   0.002899   0.002177   0.002912
   88  O 13  S   -0.000084  -0.000047   0.000826   0.005733   0.982449
   89  O 13  S   -0.000034  -0.000030   0.000285   0.000942   0.104834
   90  O 13  X    0.000029   0.000006  -0.000076  -0.000037  -0.003684
   91  O 13  Y    0.000004  -0.000075  -0.000068   0.000153   0.000531
   92  O 13  Z   -0.000030   0.000060   0.000149   0.000203  -0.001219
   93  O 13  S    0.000015   0.000095  -0.000634  -0.000831  -0.049420
   94  O 13  X   -0.000094  -0.000124   0.000381  -0.000244   0.010498
   95  O 13  Y   -0.000030   0.000362   0.000381  -0.000782   0.000430
   96  O 13  Z    0.000123  -0.000292  -0.000631  -0.000797   0.002956
   97  H 14  S    0.000716  -0.000822  -0.000495   0.000013  -0.000078
   98  H 14  S    0.005422  -0.002528   0.000211  -0.000683  -0.000195
   99  H 15  S   -0.000834   0.003190   0.000211  -0.000005   0.000047
  100  H 15  S    0.003064   0.006242  -0.000018  -0.000848   0.000049
  101  H 16  S   -0.000008  -0.000212   0.002974  -0.000369  -0.000146
  102  H 16  S    0.000134   0.000330   0.005593   0.000831   0.000187
  103  H 17  S   -0.000012  -0.000414  -0.000553   0.002716  -0.000657
  104  H 17  S    0.000322   0.004789   0.000312   0.008252  -0.000636
  105  H 18  S    0.000079  -0.000036  -0.000478  -0.000380  -0.001360
  106  H 18  S    0.000297  -0.000772  -0.000779  -0.000218  -0.000904
  107  H 19  S   -0.000058   0.000380   0.000508   0.000754  -0.001259
  108  H 19  S    0.000070   0.000720   0.000782   0.000878  -0.001202
  109  H 20  S   -0.000015  -0.000119  -0.000090  -0.000736   0.003132
  110  H 20  S    0.000095  -0.000192  -0.000134   0.002522   0.006355

                      6          7          8          9         10
                  -10.2487   -10.2114   -10.2004   -10.1787   -10.1579
                     A          A          A          A          A   
    1  O  1  S    0.000325   0.000052  -0.000009  -0.000023   0.000005
    2  O  1  S    0.001079   0.000128  -0.000096  -0.000225   0.000036
    3  O  1  X   -0.000718  -0.000083   0.000093   0.000084   0.000025
    4  O  1  Y    0.000499   0.000367   0.000006   0.000033   0.000005
    5  O  1  Z   -0.000332  -0.000078  -0.000118  -0.000092   0.000003
    6  O  1  S   -0.001936  -0.002434   0.000494   0.001042  -0.000200
    7  O  1  X   -0.001993  -0.002073  -0.000272  -0.000426  -0.000188
    8  O  1  Y    0.003553  -0.001463  -0.000045  -0.000235  -0.000001
    9  O  1  Z   -0.002576  -0.000793   0.000286   0.000412  -0.000096
   10  C  2  S    0.985355   0.008946   0.003984   0.001794   0.000521
   11  C  2  S    0.105937  -0.001798  -0.000972  -0.001234  -0.000407
   12  C  2  X    0.000215   0.000300  -0.001010  -0.000387  -0.000162
   13  C  2  Y    0.000717  -0.000400   0.000080   0.000243   0.000001
   14  C  2  Z   -0.000620  -0.000050  -0.000209  -0.000033  -0.000019
   15  C  2  S   -0.060222   0.028106   0.001776   0.004733   0.002142
   16  C  2  X   -0.013120   0.015792   0.001317   0.003986   0.000874
   17  C  2  Y    0.005211   0.009623   0.000183  -0.000912   0.000578
   18  C  2  Z   -0.006450   0.005123   0.001349   0.000693   0.000598
   19  C  3  S   -0.009432   0.986378   0.036424   0.004209   0.002155
   20  C  3  S   -0.002114   0.116563   0.000640  -0.000102  -0.001089
   21  C  3  X    0.000717  -0.000232   0.000509  -0.000830  -0.000424
   22  C  3  Y    0.000325  -0.000638  -0.000179  -0.000157  -0.000106
   23  C  3  Z    0.000174  -0.000763   0.000114  -0.000095   0.000056
   24  C  3  S    0.013340  -0.108919   0.023316  -0.001316   0.005061
   25  C  3  X   -0.011668   0.001960   0.013794   0.002298   0.004937
   26  C  3  Y   -0.004857   0.009359  -0.006556   0.000395  -0.000188
   27  C  3  Z   -0.001155   0.010909  -0.006595   0.001666  -0.000876
   28  H  4  S   -0.001482   0.000533  -0.001713   0.000198  -0.000425
   29  H  4  S    0.001603   0.015802   0.001897  -0.001882   0.000066
   30  O  5  S   -0.000029  -0.000213   0.000047   0.000032   0.000039
   31  O  5  S   -0.000470  -0.001246   0.000112   0.000288   0.000302
   32  O  5  X    0.000044  -0.000152   0.000069   0.000095   0.000073
   33  O  5  Y    0.000523  -0.000188   0.000290   0.000111   0.000031
   34  O  5  Z    0.000035   0.000161   0.000130  -0.000112  -0.000024
   35  O  5  S    0.000661   0.011578  -0.001566  -0.000847  -0.001342
   36  O  5  X    0.000729   0.000216  -0.001069  -0.000799  -0.000590
   37  O  5  Y   -0.001693  -0.005420   0.000559  -0.000303   0.000441
   38  O  5  Z    0.000103   0.000023  -0.000170   0.000297   0.000018
   39  C  6  S   -0.003965  -0.037669   0.986122   0.019451   0.004558
   40  C  6  S   -0.002039  -0.008137   0.115794  -0.001541  -0.000848
   41  C  6  X    0.001995  -0.000274  -0.000140  -0.000239  -0.001317
   42  C  6  Y    0.000060  -0.000101   0.000694  -0.000129   0.000421
   43  C  6  Z    0.000372   0.000184   0.000501  -0.000007   0.000452
   44  C  6  S    0.000760   0.032809  -0.105018   0.028756   0.001080
   45  C  6  X   -0.011177  -0.014145  -0.002318   0.018739   0.004933
   46  C  6  Y   -0.001803   0.009597  -0.010581   0.006957  -0.002930
   47  C  6  Z   -0.002309   0.004156  -0.005579   0.001726  -0.002943
   48  H  7  S   -0.001503  -0.002144   0.000692  -0.002156  -0.000290
   49  H  7  S   -0.000006  -0.001264   0.017036   0.000909  -0.002395
   50  O  8  S    0.000051  -0.000016  -0.000193   0.000021   0.000034
   51  O  8  S    0.000421  -0.000561  -0.001119  -0.000099   0.000259
   52  O  8  X   -0.000277   0.000034   0.000023   0.000003   0.000082
   53  O  8  Y    0.000083  -0.000451   0.000247  -0.000348   0.000068
   54  O  8  Z   -0.000160  -0.000263  -0.000072  -0.000093  -0.000119
   55  O  8  S   -0.001630  -0.000025   0.010417  -0.000665  -0.000997
   56  O  8  X    0.001829   0.000722   0.000455  -0.001308  -0.000794
   57  O  8  Y   -0.000965  -0.000071   0.004617   0.000077  -0.000618
   58  O  8  Z    0.000980   0.001018  -0.000865   0.000314   0.000842
   59  C  9  S   -0.002139  -0.003471  -0.020733   0.986774   0.018788
   60  C  9  S   -0.001891  -0.000843  -0.006047   0.116679  -0.000417
   61  C  9  X    0.000220   0.001086  -0.000186  -0.000289  -0.000263
   62  C  9  Y   -0.000019  -0.000290   0.000171  -0.000631   0.000117
   63  C  9  Z   -0.000144  -0.000332   0.000180  -0.000660   0.000126
   64  C  9  S    0.009233  -0.002828   0.030722  -0.109621   0.020602
   65  C  9  X   -0.005354  -0.001755  -0.015272   0.001806   0.012954
   66  C  9  Y   -0.001619   0.001855  -0.006798   0.010497  -0.007461
   67  C  9  Z   -0.000392   0.002504  -0.003321   0.009757  -0.004584
   68  H 10  S   -0.000656  -0.000057  -0.001670   0.000617  -0.001552
   69  H 10  S   -0.000103  -0.001546   0.000152   0.014991   0.001405
   70  O 11  S    0.000028   0.000042   0.000029  -0.000224   0.000012
   71  O 11  S    0.000216   0.000461  -0.000096  -0.001305  -0.000244
   72  O 11  X   -0.000090  -0.000169   0.000261  -0.000023  -0.000362
   73  O 11  Y   -0.000004   0.000003   0.000446  -0.000135   0.000719
   74  O 11  Z   -0.000026  -0.000006  -0.000018   0.000324   0.000122
   75  O 11  S   -0.000883  -0.001279  -0.001450   0.012084  -0.000775
   76  O 11  X    0.000658   0.000932   0.000243  -0.000415   0.000808
   77  O 11  Y    0.000347  -0.000187  -0.000105  -0.005643  -0.001556
   78  O 11  Z   -0.000077  -0.000202  -0.000153   0.000759  -0.000480
   79  C 12  S   -0.000516  -0.002289  -0.004389  -0.019745   0.986214
   80  C 12  S   -0.000335  -0.001521  -0.001479  -0.005981   0.112074
   81  C 12  X    0.000206   0.000358   0.000860  -0.000514  -0.000897
   82  C 12  Y    0.000003   0.000149   0.000162  -0.000094   0.000103
   83  C 12  Z   -0.000046  -0.000031  -0.000118   0.000257   0.000133
   84  C 12  S    0.000480   0.005098   0.000370   0.031768  -0.088450
   85  C 12  X   -0.000433  -0.003812  -0.000245  -0.013855   0.009629
   86  C 12  Y    0.000027   0.000173  -0.001644   0.009614  -0.002120
   87  C 12  Z    0.000172   0.000586  -0.000316   0.004276  -0.002764
   88  O 13  S   -0.000014  -0.000015  -0.000046   0.000059  -0.000098
   89  O 13  S   -0.000147  -0.000158  -0.000487   0.000189  -0.000409
   90  O 13  X    0.000084  -0.000028   0.000323   0.000245  -0.000450
   91  O 13  Y    0.000003   0.000095   0.000024   0.000129  -0.000065
   92  O 13  Z   -0.000036   0.000021  -0.000125  -0.000083  -0.000156
   93  O 13  S    0.000351   0.000700   0.001179  -0.002345   0.007927
   94  O 13  X   -0.000353   0.000088  -0.001447   0.001166  -0.002208
   95  O 13  Y   -0.000036  -0.000471  -0.000165  -0.000387  -0.001941
   96  O 13  Z    0.000109  -0.000139   0.000419   0.000224   0.000117
   97  H 14  S   -0.001515  -0.000999  -0.000439  -0.000702  -0.000110
   98  H 14  S    0.015247   0.003529   0.000278  -0.000061   0.000149
   99  H 15  S   -0.000419  -0.000882  -0.000239   0.000098   0.000018
  100  H 15  S    0.002351   0.003306   0.000255  -0.000006  -0.000113
  101  H 16  S   -0.000037  -0.000709  -0.000779  -0.000573   0.000209
  102  H 16  S   -0.000716  -0.000238   0.003457   0.001122  -0.001064
  103  H 17  S    0.000189  -0.000146  -0.000555  -0.000765   0.000510
  104  H 17  S    0.000195   0.001405   0.001351   0.003569   0.001744
  105  H 18  S   -0.000064  -0.000496  -0.000132  -0.001531  -0.000298
  106  H 18  S   -0.000023  -0.000159  -0.001147   0.001383   0.016978
  107  H 19  S   -0.000084  -0.000651  -0.000042  -0.002023  -0.000022
  108  H 19  S    0.000146   0.000219  -0.001099  -0.000572   0.016483
  109  H 20  S   -0.000108   0.000117  -0.000510  -0.000161  -0.000055
  110  H 20  S    0.000299   0.000010   0.001534   0.000990   0.002870

                     11         12         13         14         15
                   -1.1032    -1.0490    -1.0349    -1.0089    -0.9729
                     A          A          A          A          A   
    1  O  1  S   -0.192494   0.074685  -0.041231  -0.016056   0.005050
    2  O  1  S    0.183278  -0.071047   0.039139   0.015476  -0.004920
    3  O  1  X    0.091709  -0.028862   0.014990   0.005042  -0.001227
    4  O  1  Y   -0.079249   0.034331  -0.020640  -0.008049   0.002868
    5  O  1  Z    0.066733  -0.023671   0.012401   0.004678  -0.001301
    6  O  1  S    0.590662  -0.244317   0.137967   0.053639  -0.017283
    7  O  1  X    0.091688  -0.030549   0.014866   0.005399  -0.001276
    8  O  1  Y   -0.070871   0.035417  -0.023133  -0.009212   0.003514
    9  O  1  Z    0.065578  -0.024042   0.014250   0.004493  -0.001293
   10  C  2  S   -0.116626   0.027917  -0.018487  -0.003613   0.000884
   11  C  2  S    0.125970  -0.031142   0.020457   0.004782  -0.001051
   12  C  2  X   -0.076202   0.054323  -0.027901  -0.014232   0.005112
   13  C  2  Y    0.102222  -0.029061   0.010224   0.004392  -0.000607
   14  C  2  Z   -0.064286   0.033943  -0.018500  -0.008887   0.003248
   15  C  2  S    0.135419  -0.033390   0.021158   0.006126  -0.002046
   16  C  2  X    0.026274  -0.008388   0.011858   0.001913  -0.000800
   17  C  2  Y   -0.035025   0.038933  -0.025776  -0.009633   0.003556
   18  C  2  Z    0.019197  -0.017250   0.007651   0.004678  -0.001889
   19  C  3  S   -0.043494  -0.062473   0.031873   0.019278  -0.005707
   20  C  3  S    0.040375   0.067278  -0.032823  -0.019297   0.007766
   21  C  3  X   -0.020100   0.015163   0.007226   0.002719  -0.004213
   22  C  3  Y    0.020138   0.044330  -0.065478  -0.017831   0.009547
   23  C  3  Z   -0.017595  -0.017830   0.009058   0.004452  -0.001084
   24  C  3  S    0.077407   0.105811  -0.073635  -0.048978   0.006433
   25  C  3  X   -0.006910   0.000512  -0.007178  -0.000495  -0.006446
   26  C  3  Y    0.016080  -0.037661   0.005258   0.013712  -0.000886
   27  C  3  Z   -0.017855   0.024054   0.002737   0.003357  -0.000283
   28  H  4  S    0.012600   0.016096  -0.006327  -0.005170   0.002031
   29  H  4  S   -0.002917  -0.013043   0.006217   0.000997   0.000369
   30  O  5  S   -0.070226  -0.146221   0.135310   0.050947  -0.021891
   31  O  5  S    0.066861   0.133416  -0.126341  -0.048861   0.021568
   32  O  5  X   -0.024251  -0.036910   0.039444   0.021964  -0.013282
   33  O  5  Y   -0.027228  -0.047698   0.039933   0.016125  -0.006413
   34  O  5  Z   -0.010181  -0.017908   0.017451   0.006098  -0.002506
   35  O  5  S    0.200084   0.465447  -0.420562  -0.159105   0.068626
   36  O  5  X   -0.026886  -0.037491   0.039502   0.028226  -0.017243
   37  O  5  Y   -0.024487  -0.061236   0.048466   0.019468  -0.008464
   38  O  5  Z   -0.011228  -0.017354   0.017715   0.004088  -0.001543
   39  C  6  S   -0.011251  -0.063173  -0.054614   0.000098   0.007671
   40  C  6  S    0.014273   0.063068   0.057207  -0.000428  -0.005918
   41  C  6  X   -0.009210  -0.004633   0.001235   0.022480  -0.007803
   42  C  6  Y    0.001785  -0.028791  -0.068969   0.024603  -0.012314
   43  C  6  Z    0.001808   0.022901   0.020936  -0.006704   0.000091
   44  C  6  S    0.014776   0.110324   0.108303   0.000842  -0.012933
   45  C  6  X    0.023316  -0.003749  -0.004831  -0.012991  -0.005619
   46  C  6  Y    0.006583   0.030537   0.005632   0.015734  -0.006896
   47  C  6  Z    0.011266  -0.022119   0.011952   0.000744   0.010705
   48  H  7  S    0.005660   0.016184   0.015669   0.001695  -0.001959
   49  H  7  S    0.007264  -0.014323  -0.000254   0.001946   0.003213
   50  O  8  S   -0.011046  -0.123088  -0.172485   0.042208  -0.008490
   51  O  8  S    0.010097   0.114308   0.162312  -0.040867   0.008463
   52  O  8  X    0.001057   0.018956   0.028291  -0.004903   0.000789
   53  O  8  Y    0.005515   0.047686   0.061410  -0.013159   0.001689
   54  O  8  Z    0.002527   0.031257   0.045415  -0.012186   0.002977
   55  O  8  S    0.034556   0.383372   0.527741  -0.126213   0.024575
   56  O  8  X   -0.001106   0.021663   0.027072  -0.005350   0.003021
   57  O  8  Y    0.005980   0.057003   0.071697  -0.014470   0.001443
   58  O  8  Z    0.000120   0.028404   0.042886  -0.012696   0.001887
   59  C  9  S   -0.003999  -0.035531  -0.010214  -0.074303   0.029528
   60  C  9  S    0.006864   0.035418   0.009642   0.075731  -0.032828
   61  C  9  X   -0.002460  -0.011074  -0.008954   0.016222   0.022478
   62  C  9  Y    0.001413   0.010031  -0.013227   0.056847  -0.050443
   63  C  9  Z   -0.001346  -0.011732  -0.000275  -0.032100   0.015788
   64  C  9  S   -0.012838   0.057158   0.015985   0.143366  -0.054751
   65  C  9  X    0.008194  -0.002687   0.010668   0.003535   0.013275
   66  C  9  Y    0.004828  -0.017165  -0.015079  -0.004016   0.008540
   67  C  9  Z    0.003844   0.021860   0.003278   0.000587  -0.005371
   68  H 10  S    0.001719   0.008361   0.002804   0.020831  -0.007784
   69  H 10  S   -0.000210  -0.009415  -0.000236  -0.008227   0.006113
   70  O 11  S   -0.007219  -0.055389   0.008110  -0.168999   0.121749
   71  O 11  S    0.006473   0.050436  -0.008562   0.156838  -0.113505
   72  O 11  X   -0.003456  -0.021274   0.005018  -0.049318   0.048643
   73  O 11  Y   -0.001250  -0.012556  -0.001901  -0.040119   0.017602
   74  O 11  Z    0.001777   0.012881  -0.002029   0.038128  -0.026722
   75  O 11  S    0.021821   0.171731  -0.018234   0.517521  -0.383955
   76  O 11  X   -0.004262  -0.019150   0.004870  -0.050595   0.056358
   77  O 11  Y   -0.002793  -0.019378   0.000795  -0.043201   0.024366
   78  O 11  Z    0.001749   0.015353  -0.000534   0.041425  -0.031781
   79  C 12  S   -0.000975  -0.012786  -0.004841  -0.055042  -0.062170
   80  C 12  S    0.000944   0.012752   0.005655   0.057436   0.066187
   81  C 12  X   -0.000964  -0.002993  -0.001890   0.017829   0.063659
   82  C 12  Y    0.000600   0.007348   0.000443   0.039987   0.038214
   83  C 12  Z    0.000392   0.003603   0.001845   0.010971   0.010952
   84  C 12  S    0.003688   0.020293  -0.001767   0.091222   0.115946
   85  C 12  X   -0.000421  -0.004948  -0.003107  -0.001637  -0.003004
   86  C 12  Y    0.001025   0.006788  -0.003305   0.008878  -0.010643
   87  C 12  Z   -0.001012  -0.009681  -0.006634  -0.009175   0.004740
   88  O 13  S   -0.000702  -0.014869  -0.003712  -0.108604  -0.186496
   89  O 13  S    0.000872   0.013890   0.002854   0.102095   0.173845
   90  O 13  X   -0.000580  -0.008193  -0.001920  -0.053275  -0.080637
   91  O 13  Y    0.000119   0.002024   0.000260   0.014656   0.023048
   92  O 13  Z   -0.000081  -0.002355  -0.000485  -0.016559  -0.027859
   93  O 13  S    0.001357   0.043448   0.014126   0.324255   0.578903
   94  O 13  X    0.000283  -0.008771  -0.003185  -0.057506  -0.089403
   95  O 13  Y    0.000174   0.000422  -0.001148   0.012221   0.021508
   96  O 13  Z   -0.000117  -0.000774  -0.000368  -0.015181  -0.031642
   97  H 14  S    0.021457  -0.001920   0.003776  -0.000220   0.000083
   98  H 14  S   -0.026151   0.021836  -0.005045  -0.005391   0.001505
   99  H 15  S    0.041597   0.061875  -0.062138  -0.025752   0.012755
  100  H 15  S    0.005746   0.007390  -0.007489  -0.001940   0.000810
  101  H 16  S    0.005382   0.061149   0.086521  -0.021117   0.004493
  102  H 16  S    0.000456   0.010594   0.017666  -0.006481   0.002333
  103  H 17  S    0.007457   0.035368  -0.012470   0.072539  -0.059204
  104  H 17  S    0.001936   0.010976  -0.011399   0.005222  -0.007787
  105  H 18  S    0.000332   0.004577   0.002316   0.015964   0.017568
  106  H 18  S    0.000320   0.005672   0.004888  -0.002434  -0.006580
  107  H 19  S    0.000362   0.002927   0.001183   0.015473   0.017445
  108  H 19  S   -0.001482  -0.003948  -0.001608  -0.006777  -0.004874
  109  H 20  S    0.000732   0.008753   0.001635   0.057723   0.087402
  110  H 20  S   -0.000544   0.003134  -0.000154   0.014503   0.008154

                     16         17         18         19         20
                   -0.7977    -0.7454    -0.6699    -0.6143    -0.5972
                     A          A          A          A          A   
    1  O  1  S    0.035495  -0.036772  -0.048760  -0.040142   0.041086
    2  O  1  S   -0.034922   0.036586   0.047821   0.039900  -0.040070
    3  O  1  X    0.005405  -0.009605  -0.019923  -0.019409   0.012584
    4  O  1  Y    0.001399   0.001876   0.012627   0.036121  -0.046112
    5  O  1  Z    0.000614  -0.005791  -0.021638  -0.001073   0.020000
    6  O  1  S   -0.121886   0.129391   0.183592   0.153358  -0.160485
    7  O  1  X    0.002861  -0.004375  -0.012840  -0.013867   0.008796
    8  O  1  Y    0.003026   0.001399   0.008745   0.028637  -0.036967
    9  O  1  Z   -0.001263  -0.003347  -0.015128  -0.000772   0.015659
   10  C  2  S   -0.060045   0.066193   0.087011   0.072705  -0.073396
   11  C  2  S    0.074094  -0.074847  -0.098517  -0.077462   0.080434
   12  C  2  X    0.091186  -0.078315  -0.063534  -0.017537  -0.012559
   13  C  2  Y   -0.018226   0.021583   0.035822   0.097852  -0.092418
   14  C  2  Z    0.043795  -0.048063  -0.063434   0.005548   0.019032
   15  C  2  S    0.106717  -0.156145  -0.238795  -0.253764   0.251991
   16  C  2  X    0.006938  -0.031871  -0.037868  -0.046194   0.020223
   17  C  2  Y   -0.031855   0.021007   0.019037   0.061188  -0.057070
   18  C  2  Z    0.009168  -0.022412  -0.040928  -0.005928   0.028203
   19  C  3  S   -0.132988   0.085144   0.031703  -0.078574   0.048504
   20  C  3  S    0.128749  -0.075939  -0.026335   0.072647  -0.044378
   21  C  3  X    0.010711   0.060048   0.141628   0.064014  -0.064729
   22  C  3  Y   -0.076754   0.045249   0.005750   0.074360  -0.028004
   23  C  3  Z   -0.018080  -0.000421  -0.029040   0.116821  -0.013574
   24  C  3  S    0.365536  -0.277901  -0.130931   0.309456  -0.190864
   25  C  3  X   -0.022812   0.006247   0.043084   0.033636  -0.019358
   26  C  3  Y   -0.032600   0.041170   0.021606   0.012539   0.006757
   27  C  3  Z   -0.027460   0.011109  -0.008989   0.059569  -0.002269
   28  H  4  S    0.072462  -0.050483  -0.031319   0.107392  -0.038027
   29  H  4  S    0.003174  -0.001704  -0.009145   0.053149  -0.008770
   30  O  5  S    0.063173  -0.033980  -0.009705   0.018782  -0.013473
   31  O  5  S   -0.057524   0.031698   0.009219  -0.016876   0.012828
   32  O  5  X    0.035191  -0.018846   0.036267   0.069534  -0.070932
   33  O  5  Y   -0.051647   0.032543   0.007080  -0.110651   0.072114
   34  O  5  Z    0.030004  -0.020325  -0.011752   0.096701  -0.043305
   35  O  5  S   -0.235913   0.129211   0.035437  -0.084106   0.059155
   36  O  5  X    0.034517  -0.015435   0.035793   0.062415  -0.066281
   37  O  5  Y   -0.018291   0.014858   0.002138  -0.090952   0.062100
   38  O  5  Z    0.025293  -0.017222  -0.009893   0.084546  -0.038509
   39  C  6  S   -0.117480  -0.042938  -0.122639   0.057245   0.015123
   40  C  6  S    0.118185   0.042593   0.108793  -0.052570  -0.012691
   41  C  6  X   -0.026659   0.112663  -0.000383   0.027944   0.088686
   42  C  6  Y    0.067562   0.011182   0.023454   0.088175   0.016838
   43  C  6  Z    0.009518  -0.010993  -0.025106   0.124827   0.027807
   44  C  6  S    0.288366   0.113949   0.434362  -0.241005  -0.067320
   45  C  6  X    0.004652  -0.008308  -0.007261   0.024063   0.024504
   46  C  6  Y    0.017815   0.008730   0.042533   0.028020  -0.001937
   47  C  6  Z    0.022091   0.005468   0.000689   0.078236   0.028713
   48  H  7  S    0.065477   0.025138   0.084030  -0.099254  -0.026814
   49  H  7  S    0.001988   0.003975   0.013328  -0.039746  -0.014560
   50  O  8  S    0.069437   0.019606   0.026779  -0.002302   0.002978
   51  O  8  S   -0.063449  -0.018272  -0.023836   0.002866  -0.002259
   52  O  8  X   -0.022430   0.022294  -0.011848   0.031420   0.018222
   53  O  8  Y    0.038796   0.011641   0.070379  -0.072198  -0.021525
   54  O  8  Z   -0.053330  -0.019439  -0.075111   0.131278   0.036775
   55  O  8  S   -0.256314  -0.074566  -0.113896   0.013720  -0.012153
   56  O  8  X   -0.021461   0.024117  -0.009556   0.027221   0.012833
   57  O  8  Y    0.008992   0.003654   0.045416  -0.056518  -0.018859
   58  O  8  Z   -0.043741  -0.016019  -0.059841   0.107667   0.031170
   59  C  9  S   -0.063995  -0.127363   0.020768  -0.048777  -0.104355
   60  C  9  S    0.065195   0.120662  -0.019663   0.043602   0.093926
   61  C  9  X   -0.042104   0.011907  -0.131390  -0.009632  -0.022140
   62  C  9  Y   -0.040818  -0.079370   0.009020   0.022484   0.030315
   63  C  9  Z   -0.000338  -0.010347   0.007370   0.073151   0.063573
   64  C  9  S    0.145007   0.358421  -0.071645   0.184993   0.400729
   65  C  9  X    0.003650  -0.018772  -0.018093  -0.022280   0.009912
   66  C  9  Y   -0.005119  -0.047866   0.013240   0.003106  -0.013949
   67  C  9  Z   -0.013994  -0.008644  -0.003388   0.044360   0.024369
   68  H 10  S    0.033787   0.066076  -0.015076   0.067407   0.098262
   69  H 10  S    0.004748  -0.000316  -0.001693   0.033464   0.036187
   70  O 11  S    0.045244   0.060767   0.008045   0.017332   0.028376
   71  O 11  S   -0.041992  -0.054572  -0.007788  -0.017087  -0.025441
   72  O 11  X    0.015735   0.035344  -0.035558   0.014823   0.056945
   73  O 11  Y   -0.026924  -0.059460   0.023861  -0.029810  -0.097245
   74  O 11  Z   -0.002934   0.000569  -0.003630   0.027270   0.037638
   75  O 11  S   -0.159329  -0.228820  -0.028143  -0.066470  -0.123382
   76  O 11  X    0.011093   0.034018  -0.029248   0.012794   0.054965
   77  O 11  Y   -0.005421  -0.030400   0.018062  -0.021689  -0.075304
   78  O 11  Z   -0.006466  -0.004167  -0.003661   0.023016   0.029625
   79  C 12  S   -0.025827  -0.099007   0.114549   0.032032   0.105371
   80  C 12  S    0.030433   0.101517  -0.112106  -0.030843  -0.097937
   81  C 12  X   -0.029522  -0.078530   0.036708  -0.005430  -0.054410
   82  C 12  Y    0.000168  -0.002597   0.017964   0.023150   0.087768
   83  C 12  Z    0.005795   0.018870  -0.009553   0.030072   0.048361
   84  C 12  S    0.046741   0.246381  -0.345451  -0.107479  -0.386608
   85  C 12  X    0.005199  -0.027874   0.033978   0.012532   0.016227
   86  C 12  Y   -0.009867  -0.013261   0.001385   0.013078   0.033687
   87  C 12  Z    0.004827   0.007212  -0.002549   0.016162   0.016852
   88  O 13  S    0.014671   0.051179  -0.051040  -0.006300  -0.021555
   89  O 13  S   -0.013537  -0.048664   0.047403   0.005989   0.019048
   90  O 13  X   -0.001435  -0.012945   0.030433   0.005249   0.027554
   91  O 13  Y   -0.009900  -0.042993   0.070751   0.025069   0.114948
   92  O 13  Z    0.003227   0.009799  -0.006963   0.006858   0.010257
   93  O 13  S   -0.050914  -0.180430   0.195465   0.025309   0.094956
   94  O 13  X    0.004004   0.000456   0.014493   0.002783   0.013867
   95  O 13  Y   -0.003715  -0.027657   0.052200   0.022812   0.096205
   96  O 13  Z    0.001666   0.008495  -0.008148   0.006234   0.009088
   97  H 14  S    0.040762  -0.048142  -0.076797  -0.101054   0.104737
   98  H 14  S   -0.010561  -0.008007  -0.027551  -0.044378   0.046103
   99  H 15  S   -0.055784   0.033918  -0.005029  -0.084212   0.060833
  100  H 15  S   -0.038948   0.027849   0.011516  -0.052042   0.031818
  101  H 16  S   -0.061559  -0.014097  -0.060841   0.090679   0.027100
  102  H 16  S   -0.035607  -0.009857  -0.050831   0.066548   0.017523
  103  H 17  S   -0.034044  -0.052578   0.025240  -0.020102  -0.069780
  104  H 17  S   -0.034502  -0.028382   0.014081  -0.025213  -0.048258
  105  H 18  S    0.014288   0.057807  -0.078836  -0.023628  -0.099010
  106  H 18  S   -0.007429  -0.001197  -0.019181  -0.006346  -0.039035
  107  H 19  S    0.015788   0.054375  -0.067349  -0.036258  -0.091597
  108  H 19  S    0.002696   0.002069  -0.002678  -0.017183  -0.032229
  109  H 20  S   -0.011413  -0.042505   0.053687   0.015058   0.070789
  110  H 20  S   -0.014112  -0.034495   0.034902   0.007390   0.043059

                     21         22         23         24         25
                   -0.5581    -0.5234    -0.5171    -0.4957    -0.4907
                     A          A          A          A          A   
    1  O  1  S   -0.013158  -0.032149  -0.022636  -0.051108   0.023523
    2  O  1  S    0.012677   0.027575   0.020638   0.044577  -0.021109
    3  O  1  X    0.071405  -0.056466  -0.102852  -0.126849   0.019834
    4  O  1  Y    0.150574   0.083888  -0.037126   0.067165   0.006125
    5  O  1  Z    0.004182  -0.022295   0.000909  -0.104350   0.116887
    6  O  1  S    0.041889   0.133070   0.097494   0.209896  -0.098774
    7  O  1  X    0.058781  -0.048327  -0.090210  -0.109051   0.014622
    8  O  1  Y    0.133446   0.074013  -0.033626   0.062755   0.007308
    9  O  1  Z    0.001017  -0.016872   0.006173  -0.094125   0.108685
   10  C  2  S    0.041195   0.025067   0.020883   0.033325  -0.021290
   11  C  2  S   -0.047421  -0.035099  -0.025732  -0.044640   0.025481
   12  C  2  X    0.166508   0.028017  -0.105850   0.019314  -0.044542
   13  C  2  Y    0.212352  -0.033334  -0.092713  -0.158101   0.074227
   14  C  2  Z    0.044162   0.062778   0.031395   0.018439   0.096204
   15  C  2  S   -0.153226  -0.063132  -0.060919  -0.093968   0.067721
   16  C  2  X    0.086725  -0.000848  -0.083321  -0.043101  -0.019555
   17  C  2  Y    0.189601   0.004371  -0.077602  -0.078488   0.047710
   18  C  2  Z    0.004360   0.027759   0.018541  -0.022515   0.089679
   19  C  3  S   -0.029239   0.000381  -0.010148  -0.012166   0.008309
   20  C  3  S    0.030702   0.001761   0.007205   0.009193  -0.004628
   21  C  3  X   -0.136856  -0.002171   0.023513   0.108488  -0.113963
   22  C  3  Y   -0.033682  -0.163413   0.059544  -0.139548   0.014650
   23  C  3  Z   -0.050795   0.128209   0.180762   0.032610   0.162238
   24  C  3  S    0.084502  -0.014421   0.074504   0.057490  -0.045911
   25  C  3  X   -0.098010  -0.014200   0.004326   0.049609  -0.092722
   26  C  3  Y   -0.032849  -0.112267   0.026660  -0.130914   0.030008
   27  C  3  Z   -0.041278   0.106114   0.153687   0.021709   0.129154
   28  H  4  S   -0.003797   0.091433   0.103027   0.047086   0.091176
   29  H  4  S   -0.009102   0.061430   0.056750   0.037355   0.064902
   30  O  5  S    0.042815  -0.000436  -0.025959  -0.001770   0.008783
   31  O  5  S   -0.037983   0.000827   0.024441   0.002944  -0.007938
   32  O  5  X   -0.154356  -0.100406   0.022788  -0.062690  -0.065456
   33  O  5  Y    0.005275   0.190022  -0.025489   0.127138   0.060717
   34  O  5  Z   -0.054423  -0.069777   0.121721  -0.086209   0.031527
   35  O  5  S   -0.174331   0.000907   0.105184   0.006972  -0.037829
   36  O  5  X   -0.145333  -0.087403   0.015149  -0.052916  -0.061539
   37  O  5  Y    0.001316   0.167742  -0.026594   0.110846   0.060222
   38  O  5  Z   -0.045258  -0.058039   0.114138  -0.074108   0.026416
   39  C  6  S    0.004667  -0.008585   0.011197  -0.014244  -0.019282
   40  C  6  S   -0.003314   0.005211  -0.012085   0.013417   0.015961
   41  C  6  X   -0.031905  -0.034430  -0.019840  -0.061243   0.220924
   42  C  6  Y   -0.047542  -0.094267  -0.152406   0.145290  -0.002616
   43  C  6  Z   -0.056095   0.143782  -0.018360   0.022856  -0.018383
   44  C  6  S   -0.013709   0.037876  -0.017040   0.035753   0.091099
   45  C  6  X   -0.018906  -0.029791  -0.025128  -0.038516   0.161954
   46  C  6  Y   -0.041676  -0.054226  -0.110163   0.107459   0.017300
   47  C  6  Z   -0.027941   0.119196  -0.024674   0.025883   0.007869
   48  H  7  S    0.027835  -0.075942  -0.003408   0.008230   0.015214
   49  H  7  S    0.019065  -0.045283  -0.004520   0.011182   0.013512
   50  O  8  S   -0.009378   0.018592  -0.020618   0.019903   0.019905
   51  O  8  S    0.010296  -0.016914   0.018496  -0.017595  -0.018288
   52  O  8  X   -0.012184  -0.037884  -0.054247  -0.014358   0.105330
   53  O  8  Y    0.015917   0.131865   0.105726  -0.086525  -0.005902
   54  O  8  Z   -0.044362  -0.068109  -0.177960   0.174561   0.032262
   55  O  8  S    0.030430  -0.078427   0.082419  -0.082143  -0.081994
   56  O  8  X   -0.009184  -0.033704  -0.049358  -0.018489   0.097263
   57  O  8  Y    0.009655   0.116906   0.093310  -0.079863  -0.004888
   58  O  8  Z   -0.036216  -0.058440  -0.154241   0.156862   0.027257
   59  C  9  S   -0.012070   0.000686   0.004130   0.017693   0.008819
   60  C  9  S    0.010418   0.001505  -0.004874  -0.013952  -0.006351
   61  C  9  X    0.070586  -0.004235   0.109739  -0.024412  -0.153932
   62  C  9  Y    0.044414  -0.031536   0.037944   0.054576  -0.123007
   63  C  9  Z   -0.051703   0.144656  -0.079501  -0.128967  -0.103569
   64  C  9  S    0.060924  -0.005141  -0.000523  -0.079771  -0.067078
   65  C  9  X    0.063796   0.003658   0.070359  -0.005165  -0.084286
   66  C  9  Y    0.019339  -0.023117   0.035614   0.030860  -0.086671
   67  C  9  Z   -0.048226   0.094280  -0.059253  -0.104351  -0.078803
   68  H 10  S   -0.015859   0.079424  -0.041381  -0.084933  -0.075664
   69  H 10  S   -0.010822   0.060035  -0.027265  -0.052221  -0.046623
   70  O 11  S   -0.016476  -0.010093  -0.014236  -0.001823  -0.001708
   71  O 11  S    0.014868   0.009849   0.014427   0.002047   0.001195
   72  O 11  X    0.090947  -0.043577   0.115036   0.050312  -0.088512
   73  O 11  Y   -0.090241   0.104988  -0.094472  -0.102369   0.079232
   74  O 11  Z   -0.000182   0.024196  -0.005998  -0.029391  -0.068360
   75  O 11  S    0.063211   0.040898   0.045291   0.005704   0.013453
   76  O 11  X    0.079298  -0.036678   0.109488   0.047285  -0.079578
   77  O 11  Y   -0.071103   0.090502  -0.081750  -0.092361   0.071149
   78  O 11  Z   -0.001866   0.023860  -0.006051  -0.028494  -0.060633
   79  C 12  S    0.015628  -0.005167   0.000331  -0.014245   0.010356
   80  C 12  S   -0.012503   0.004493  -0.000724   0.014893  -0.009817
   81  C 12  X   -0.042289   0.054988  -0.067500  -0.013625  -0.065762
   82  C 12  Y    0.053834  -0.045942   0.071361   0.026146  -0.053891
   83  C 12  Z   -0.008364   0.070559  -0.038952  -0.108582  -0.095480
   84  C 12  S   -0.078297   0.021783  -0.007793   0.046636  -0.040260
   85  C 12  X   -0.014330   0.034917  -0.048219  -0.007090  -0.040660
   86  C 12  Y    0.030173  -0.036489   0.050283   0.029915  -0.035900
   87  C 12  Z   -0.016847   0.049692  -0.037606  -0.080534  -0.067230
   88  O 13  S    0.009806  -0.006746   0.020271   0.011975  -0.016483
   89  O 13  S   -0.009547   0.006773  -0.019261  -0.010932   0.015188
   90  O 13  X   -0.003813  -0.004688  -0.014260  -0.007695   0.064592
   91  O 13  Y    0.048591  -0.062148   0.072769   0.019907   0.092951
   92  O 13  Z   -0.003126   0.023700  -0.014895  -0.039752  -0.036009
   93  O 13  S   -0.034535   0.023225  -0.077176  -0.049971   0.068795
   94  O 13  X   -0.007065  -0.002516  -0.016201  -0.006735   0.059047
   95  O 13  Y    0.040152  -0.053100   0.061342   0.018313   0.076210
   96  O 13  Z   -0.001371   0.020996  -0.011680  -0.035284  -0.034502
   97  H 14  S   -0.151272  -0.004275   0.041682   0.054368  -0.013515
   98  H 14  S   -0.059026   0.005829   0.029143   0.046598  -0.023291
   99  H 15  S    0.088125   0.113454  -0.051954   0.085818   0.031766
  100  H 15  S    0.068112   0.120174  -0.038589   0.106621   0.020179
  101  H 16  S   -0.026050  -0.070482  -0.123999   0.104134   0.034827
  102  H 16  S   -0.025226  -0.060840  -0.106324   0.092234   0.026740
  103  H 17  S   -0.086341   0.053698  -0.079642  -0.060050   0.055395
  104  H 17  S   -0.079828   0.051743  -0.050810  -0.046012   0.044033
  105  H 18  S   -0.038372   0.045294  -0.048023  -0.028618  -0.008675
  106  H 18  S   -0.018093   0.020955  -0.031942  -0.020315   0.002003
  107  H 19  S   -0.005707  -0.036665   0.021049   0.069351   0.057260
  108  H 19  S   -0.001890  -0.025612   0.011210   0.043598   0.045520
  109  H 20  S    0.031203  -0.038299   0.046665   0.016991   0.052834
  110  H 20  S    0.024270  -0.024570   0.037052   0.008713   0.048313

                     26         27         28         29         30
                   -0.4517    -0.4493    -0.4169    -0.4069    -0.4009
                     A          A          A          A          A   
    1  O  1  S   -0.052597  -0.054487   0.017877   0.003243  -0.000733
    2  O  1  S    0.045714   0.047398  -0.014422  -0.002214   0.001067
    3  O  1  X   -0.099325  -0.189999   0.031189   0.051924  -0.188626
    4  O  1  Y    0.141197   0.177054  -0.099634  -0.086926   0.038489
    5  O  1  Z   -0.158642  -0.048245   0.084910  -0.190356   0.265312
    6  O  1  S    0.216131   0.218139  -0.068585  -0.025623  -0.005069
    7  O  1  X   -0.092782  -0.182517   0.029376   0.058950  -0.188181
    8  O  1  Y    0.132182   0.170848  -0.100973  -0.072272   0.048104
    9  O  1  Z   -0.152745  -0.044458   0.084858  -0.192438   0.271008
   10  C  2  S    0.012747   0.013126   0.009752   0.008233   0.004866
   11  C  2  S   -0.024970  -0.028946  -0.003562  -0.009067  -0.003919
   12  C  2  X    0.152575   0.076066  -0.091059   0.005030  -0.127410
   13  C  2  Y   -0.108330  -0.121088   0.069855  -0.088434  -0.000532
   14  C  2  Z    0.034536   0.160987  -0.027271  -0.144694   0.175604
   15  C  2  S   -0.003214   0.013750  -0.066562  -0.046752  -0.033741
   16  C  2  X    0.053810  -0.013024  -0.044465  -0.015741  -0.156285
   17  C  2  Y   -0.035611  -0.019725   0.006135  -0.070871   0.019365
   18  C  2  Z   -0.024548   0.079677   0.004222  -0.164532   0.171319
   19  C  3  S   -0.009649   0.003692  -0.008757  -0.011800  -0.002003
   20  C  3  S    0.006887  -0.003361   0.005839   0.013007   0.005405
   21  C  3  X   -0.044891  -0.118553   0.048538   0.026451   0.069073
   22  C  3  Y    0.013188   0.078182  -0.084861   0.083523   0.036345
   23  C  3  Z   -0.085974   0.036354   0.098595   0.031691  -0.131814
   24  C  3  S    0.065012  -0.001052   0.038968   0.053585  -0.008294
   25  C  3  X   -0.015615  -0.086466   0.032398  -0.048536   0.007943
   26  C  3  Y   -0.020434   0.039480  -0.045911   0.042436   0.007179
   27  C  3  Z   -0.078777   0.046972   0.080341   0.008518  -0.127208
   28  H  4  S   -0.052366   0.008027   0.093604   0.025955  -0.098232
   29  H  4  S   -0.042135  -0.000656   0.089551   0.023717  -0.093957
   30  O  5  S   -0.000405   0.008990  -0.012672   0.023908   0.012953
   31  O  5  S    0.000751  -0.007862   0.012980  -0.020709  -0.012474
   32  O  5  X    0.078536  -0.025957   0.024643  -0.170229  -0.051586
   33  O  5  Y   -0.058286  -0.057066   0.132521  -0.109700  -0.115430
   34  O  5  Z   -0.004584   0.058052  -0.004697   0.032315  -0.062743
   35  O  5  S   -0.004264  -0.041224   0.047558  -0.099319  -0.045263
   36  O  5  X    0.083967  -0.013326   0.019763  -0.182750  -0.062973
   37  O  5  Y   -0.063063  -0.064567   0.143997  -0.117089  -0.123501
   38  O  5  Z    0.000947   0.060837  -0.008079   0.033047  -0.057963
   39  C  6  S    0.023657   0.004196  -0.011502  -0.019393  -0.028068
   40  C  6  S   -0.018967  -0.005409   0.007878   0.016579   0.020759
   41  C  6  X   -0.004382   0.094948  -0.104163   0.070641  -0.070247
   42  C  6  Y   -0.029942   0.018504   0.056608  -0.032190   0.012373
   43  C  6  Z   -0.007698  -0.180696  -0.189051   0.048261   0.078082
   44  C  6  S   -0.118262  -0.009594   0.074676   0.104105   0.144365
   45  C  6  X    0.006645   0.038935  -0.080891   0.091488  -0.042726
   46  C  6  Y   -0.033422   0.003507   0.048532   0.005659   0.037498
   47  C  6  Z   -0.026033  -0.180758  -0.147144   0.092260   0.099362
   48  H  7  S   -0.012902   0.103248   0.149411  -0.021251  -0.031139
   49  H  7  S   -0.005790   0.057163   0.120409  -0.002557  -0.036727
   50  O  8  S    0.001093  -0.018771   0.006728   0.028731   0.021442
   51  O  8  S   -0.001543   0.017368  -0.003158  -0.026037  -0.019223
   52  O  8  X    0.014625   0.032922  -0.015433   0.098260   0.003861
   53  O  8  Y   -0.010762  -0.111263  -0.124053   0.082583   0.084348
   54  O  8  Z   -0.011375  -0.035488   0.069073   0.040137   0.063454
   55  O  8  S   -0.000953   0.077721  -0.044531  -0.123975  -0.094336
   56  O  8  X    0.017381   0.031757  -0.015389   0.100598   0.008530
   57  O  8  Y   -0.008834  -0.108532  -0.128124   0.083471   0.084335
   58  O  8  Z   -0.011602  -0.033654   0.064832   0.034247   0.061412
   59  C  9  S   -0.004359  -0.017452   0.014824   0.022690   0.023008
   60  C  9  S   -0.000080   0.012035  -0.012966  -0.020488  -0.021767
   61  C  9  X    0.077311  -0.039909   0.156994  -0.036428   0.012756
   62  C  9  Y   -0.142039   0.029277  -0.071300  -0.051721   0.000603
   63  C  9  Z    0.052794  -0.009079  -0.003364  -0.076143   0.003836
   64  C  9  S    0.023924   0.096919  -0.067995  -0.108276  -0.102807
   65  C  9  X    0.043367  -0.053497   0.148343   0.042502   0.053962
   66  C  9  Y   -0.095988   0.011937  -0.047520  -0.050594   0.001658
   67  C  9  Z    0.052283  -0.001705  -0.009020  -0.075231  -0.004887
   68  H 10  S    0.037078   0.005677  -0.001065  -0.077496  -0.021618
   69  H 10  S    0.023884  -0.001292   0.014653  -0.051959  -0.012782
   70  O 11  S    0.001081   0.010092  -0.007370  -0.050898  -0.029720
   71  O 11  S   -0.000914  -0.009295   0.008975   0.042354   0.024429
   72  O 11  X   -0.027963  -0.052369   0.038335   0.098650   0.097010
   73  O 11  Y    0.157933  -0.037412   0.077326  -0.008478  -0.000253
   74  O 11  Z   -0.030146   0.020289  -0.034414  -0.075190  -0.021909
   75  O 11  S   -0.006879  -0.039036   0.018675   0.239134   0.138848
   76  O 11  X   -0.020090  -0.056102   0.041661   0.088173   0.091375
   77  O 11  Y    0.147117  -0.031990   0.074035  -0.003169   0.001765
   78  O 11  Z   -0.029430   0.019361  -0.035629  -0.070384  -0.021023
[...]
    576    4.96168    4.19805    5.34692        -9.017897       9.013820      -0.004078
    577    4.96168    5.70983   -3.72377        -9.541834       9.527279      -0.014555
    578    4.96168    5.70983   -2.21199       -10.345161      10.325703      -0.019458
    579    4.96168    5.70983   -0.70021       -10.751143      10.729466      -0.021677
    580    4.96168    5.70983    0.81157       -10.554226      10.536191      -0.018034
    581    4.96168    5.70983    2.32335        -9.911707       9.899699      -0.012008
    582    4.96168    7.22162   -2.21199        -8.851469       8.840984      -0.010485
    583    4.96168    7.22162   -0.70021        -9.087157       9.076225      -0.010932
    584    4.96168    7.22162    0.81157        -8.997188       8.987324      -0.009865
    585    6.47346   -7.89619   -2.21199        -7.955419       7.952519      -0.002901
    586    6.47346   -7.89619   -0.70021        -8.140738       8.139809      -0.000929
    587    6.47346   -7.89619    0.81157        -8.100018       8.101449       0.001431
    588    6.47346   -7.89619    2.32335        -7.846280       7.849536       0.003256
    589    6.47346   -6.38441   -5.23555        -7.870619       7.865835      -0.004784
    590    6.47346   -6.38441   -3.72377        -8.535054       8.529992      -0.005062
    591    6.47346   -6.38441   -2.21199        -9.088969       9.085124      -0.003846
    592    6.47346   -6.38441   -0.70021        -9.382345       9.382348       0.000003
    593    6.47346   -6.38441    0.81157        -9.299846       9.303501       0.003655
    594    6.47346   -6.38441    2.32335        -8.881614       8.886245       0.004631
    595    6.47346   -6.38441    3.83514        -8.279606       8.284680       0.005074
    596    6.47346   -4.87263   -6.74733        -7.775477       7.770609      -0.004869
    597    6.47346   -4.87263   -5.23555        -8.673910       8.667988      -0.005923
    598    6.47346   -4.87263   -3.72377        -9.650519       9.643516      -0.007002
    599    6.47346   -4.87263   -2.21199       -10.554989      10.549532      -0.005457
    600    6.47346   -4.87263    2.32335       -10.119476      10.124530       0.005054
    601    6.47346   -4.87263    3.83514        -9.191470       9.195325       0.003855
    602    6.47346   -4.87263    5.34692        -8.286412       8.290934       0.004522
    603    6.47346   -3.36085   -6.74733        -8.297468       8.291730      -0.005738
    604    6.47346   -3.36085   -5.23555        -9.468480       9.461296      -0.007183
    605    6.47346   -3.36085   -3.72377       -10.904437      10.896193      -0.008243
    606    6.47346   -3.36085    3.83514       -10.099982      10.098060      -0.001922
    607    6.47346   -3.36085    5.34692        -8.897114       8.898732       0.001618
    608    6.47346   -1.84907   -6.74733        -8.677471       8.670483      -0.006988
    609    6.47346   -1.84907   -5.23555       -10.085952      10.076668      -0.009284
    610    6.47346   -1.84907    2.32335       -12.821825      12.792706      -0.029120
    611    6.47346   -1.84907    3.83514       -10.840425      10.828127      -0.012298
    612    6.47346   -1.84907    5.34692        -9.352992       9.350082      -0.002910
    613    6.47346   -0.33729   -6.74733        -8.829604       8.821220      -0.008384
    614    6.47346   -0.33729   -5.23555       -10.321929      10.309688      -0.012241
    615    6.47346   -0.33729    3.83514       -11.172176      11.151126      -0.021050
    616    6.47346   -0.33729    5.34692        -9.542820       9.535950      -0.006871
    617    6.47346    1.17449   -6.74733        -8.724218       8.715148      -0.009070
    618    6.47346    1.17449   -5.23555       -10.123029      10.110844      -0.012184
    619    6.47346    1.17449   -3.72377       -11.996814      11.985988      -0.010826
    620    6.47346    1.17449    3.83514       -10.928664      10.908647      -0.020017
    621    6.47346    1.17449    5.34692        -9.406245       9.397891      -0.008354
    622    6.47346    2.68627   -5.23555        -9.587052       9.576076      -0.010976
    623    6.47346    2.68627   -3.72377       -11.039128      11.033405      -0.005724
    624    6.47346    2.68627    2.32335       -11.693710      11.675701      -0.018010
    625    6.47346    2.68627    3.83514       -10.234661      10.220437      -0.014225
    626    6.47346    2.68627    5.34692        -8.987475       8.979643      -0.007832
    627    6.47346    4.19805   -5.23555        -8.860872       8.850829      -0.010042
    628    6.47346    4.19805   -3.72377        -9.903002       9.893627      -0.009375
    629    6.47346    4.19805   -2.21199       -10.879358      10.879119      -0.000239
    630    6.47346    4.19805    0.81157       -11.140835      11.135949      -0.004886
    631    6.47346    4.19805    2.32335       -10.328668      10.316495      -0.012173
    632    6.47346    4.19805    3.83514        -9.346925       9.336567      -0.010359
    633    6.47346    5.70983   -3.72377        -8.801974       8.792247      -0.009727
    634    6.47346    5.70983   -2.21199        -9.406776       9.397069      -0.009707
    635    6.47346    5.70983   -0.70021        -9.703728       9.694147      -0.009580
    636    6.47346    5.70983    0.81157        -9.574021       9.563732      -0.010289
    637    6.47346    5.70983    2.32335        -9.095237       9.085331      -0.009907
    638    6.47346    7.22162   -0.70021        -8.406825       8.398092      -0.008733
    639    7.98524   -7.89619   -0.70021        -7.505678       7.501897      -0.003782
    640    7.98524   -7.89619    0.81157        -7.469024       7.466704      -0.002320
    641    7.98524   -6.38441   -2.21199        -8.263812       8.256121      -0.007692
    642    7.98524   -6.38441   -0.70021        -8.476482       8.470017      -0.006465
    643    7.98524   -6.38441    0.81157        -8.409911       8.405380      -0.004530
    644    7.98524   -6.38441    2.32335        -8.092141       8.089390      -0.002752
    645    7.98524   -6.38441    3.83514        -7.620946       7.619865      -0.001081
    646    7.98524   -4.87263   -5.23555        -7.965346       7.956216      -0.009130
    647    7.98524   -4.87263   -3.72377        -8.710592       8.698750      -0.011842
    648    7.98524   -4.87263   -2.21199        -9.357236       9.343423      -0.013814
    649    7.98524   -4.87263   -0.70021        -9.697372       9.684185      -0.013187
    650    7.98524   -4.87263    0.81157        -9.566638       9.555845      -0.010793
    651    7.98524   -4.87263    2.32335        -9.044715       9.036583      -0.008131
    652    7.98524   -4.87263    3.83514        -8.351940       8.347133      -0.004807
    653    7.98524   -3.36085   -6.74733        -7.675842       7.667188      -0.008655
    654    7.98524   -3.36085   -5.23555        -8.592914       8.580213      -0.012701
    655    7.98524   -3.36085   -3.72377        -9.635454       9.615904      -0.019550
    656    7.98524   -3.36085   -2.21199       -10.666325      10.638411      -0.027914
    657    7.98524   -3.36085   -0.70021       -11.270436      11.238455      -0.031981
    658    7.98524   -3.36085    0.81157       -10.994404      10.964377      -0.030027
    659    7.98524   -3.36085    2.32335       -10.090046      10.067947      -0.022099
    660    7.98524   -3.36085    3.83514        -9.070042       9.057598      -0.012444
    661    7.98524   -1.84907   -6.74733        -7.988833       7.978527      -0.010306
    662    7.98524   -1.84907   -5.23555        -9.078518       9.061854      -0.016664
    663    7.98524   -1.84907   -3.72377       -10.451039      10.419406      -0.031632
    664    7.98524   -1.84907    2.32335       -11.111038      11.059974      -0.051064
    665    7.98524   -1.84907    3.83514        -9.655316       9.631783      -0.023534
    666    7.98524   -0.33729   -6.74733        -8.115955       8.104861      -0.011095
    667    7.98524   -0.33729   -5.23555        -9.280050       9.261928      -0.018122
    668    7.98524   -0.33729   -3.72377       -10.835639      10.798001      -0.037637
    669    7.98524   -0.33729    3.83514        -9.922124       9.890910      -0.031214
    670    7.98524    1.17449   -5.23555        -9.130718       9.115682      -0.015036
    671    7.98524    1.17449   -3.72377       -10.545544      10.523087      -0.022457
    672    7.98524    1.17449    3.83514        -9.735263       9.708103      -0.027160
    673    7.98524    2.68627   -5.23555        -8.696784       8.685801      -0.010983
    674    7.98524    2.68627   -3.72377        -9.788097       9.779492      -0.008605
    675    7.98524    2.68627    2.32335       -10.287114      10.263750      -0.023364
    676    7.98524    2.68627    3.83514        -9.188859       9.170974      -0.017884
    677    7.98524    4.19805   -5.23555        -8.107403       8.098585      -0.008818
    678    7.98524    4.19805   -3.72377        -8.896556       8.889597      -0.006959
    679    7.98524    4.19805   -2.21199        -9.596596       9.596741       0.000145
    680    7.98524    4.19805   -0.70021        -9.963968       9.968293       0.004325
    681    7.98524    4.19805    0.81157        -9.801532       9.796206      -0.005325
    682    7.98524    4.19805    2.32335        -9.225398       9.213139      -0.012259
    683    7.98524    4.19805    3.83514        -8.484479       8.472830      -0.011649
    684    7.98524    5.70983   -3.72377        -8.033987       8.026480      -0.007506
    685    7.98524    5.70983   -2.21199        -8.486327       8.479983      -0.006345
    686    7.98524    5.70983   -0.70021        -8.705576       8.699552      -0.006024
    687    7.98524    5.70983    0.81157        -8.617654       8.609865      -0.007789
    688    7.98524    5.70983    2.32335        -8.264199       8.255110      -0.009089
    689    9.49702   -6.38441   -0.70021        -7.606984       7.596884      -0.010099
    690    9.49702   -6.38441    0.81157        -7.558466       7.549540      -0.008926
    691    9.49702   -4.87263   -2.21199        -8.235296       8.218082      -0.017214
    692    9.49702   -4.87263   -0.70021        -8.457957       8.439393      -0.018564
    693    9.49702   -4.87263    0.81157        -8.375823       8.358769      -0.017053
    694    9.49702   -4.87263    2.32335        -8.027989       8.014608      -0.013382
    695    9.49702   -3.36085   -3.72377        -8.438841       8.417143      -0.021698
    696    9.49702   -3.36085   -2.21199        -9.084784       9.053951      -0.030834
    697    9.49702   -3.36085   -0.70021        -9.433307       9.396407      -0.036900
    698    9.49702   -3.36085    0.81157        -9.290131       9.255918      -0.034213
    699    9.49702   -3.36085    2.32335        -8.752619       8.727395      -0.025224
    700    9.49702   -1.84907   -5.23555        -8.075024       8.056796      -0.018228
    701    9.49702   -1.84907   -3.72377        -8.980128       8.949012      -0.031115
    702    9.49702   -1.84907   -2.21199        -9.906650       9.852615      -0.054035
    703    9.49702   -1.84907    0.81157       -10.240042      10.173537      -0.066505
    704    9.49702   -1.84907    2.32335        -9.399442       9.356632      -0.042810
    705    9.49702   -1.84907    3.83514        -8.487269       8.463215      -0.024054
    706    9.49702   -0.33729   -5.23555        -8.226209       8.206975      -0.019234
    707    9.49702   -0.33729   -3.72377        -9.232580       9.197988      -0.034592
    708    9.49702   -0.33729    2.32335        -9.732554       9.678510      -0.054044
    709    9.49702   -0.33729    3.83514        -8.674175       8.645602      -0.028573
    710    9.49702    1.17449   -5.23555        -8.123203       8.106853      -0.016350
    711    9.49702    1.17449   -3.72377        -9.061817       9.036248      -0.025569
    712    9.49702    1.17449   -2.21199       -10.072441      10.030569      -0.041872
    713    9.49702    1.17449    2.32335        -9.515214       9.473036      -0.042178
    714    9.49702    1.17449    3.83514        -8.548001       8.522763      -0.025238
    715    9.49702    2.68627   -5.23555        -7.803797       7.791633      -0.012164
    716    9.49702    2.68627   -3.72377        -8.563262       8.548673      -0.014589
    717    9.49702    2.68627   -2.21199        -9.274981       9.258923      -0.016058
    718    9.49702    2.68627   -0.70021        -9.679465       9.660834      -0.018631
    719    9.49702    2.68627    0.81157        -9.508249       9.483901      -0.024347
    720    9.49702    2.68627    2.32335        -8.899574       8.875685      -0.023889
    721    9.49702    2.68627    3.83514        -8.161666       8.143690      -0.017975
    722    9.49702    4.19805   -3.72377        -7.931399       7.921872      -0.009527
    723    9.49702    4.19805   -2.21199        -8.411283       8.402572      -0.008711
    724    9.49702    4.19805   -0.70021        -8.653607       8.644465      -0.009142
    725    9.49702    4.19805    0.81157        -8.556188       8.543961      -0.012228
    726    9.49702    4.19805    2.32335        -8.171607       8.157811      -0.013796
    727    9.49702    5.70983   -2.21199        -7.618980       7.611347      -0.007633
    728    9.49702    5.70983   -0.70021        -7.777658       7.769748      -0.007909
    729    9.49702    5.70983    0.81157        -7.718205       7.709262      -0.008943
    730   11.00880   -3.36085   -2.21199        -7.797946       7.773351      -0.024595
    731   11.00880   -3.36085   -0.70021        -7.997715       7.969741      -0.027974
    732   11.00880   -3.36085    0.81157        -7.922438       7.895926      -0.026512
    733   11.00880   -1.84907   -3.72377        -7.742041       7.717876      -0.024165
    734   11.00880   -1.84907   -2.21199        -8.244740       8.210595      -0.034145
    735   11.00880   -1.84907   -0.70021        -8.511943       8.470832      -0.041111
    736   11.00880   -1.84907    0.81157        -8.406801       8.368031      -0.038770
    737   11.00880   -1.84907    2.32335        -7.993508       7.963983      -0.029525
    738   11.00880   -0.33729   -3.72377        -7.892541       7.866888      -0.025653
    739   11.00880   -0.33729   -2.21199        -8.456092       8.418458      -0.037634
    740   11.00880   -0.33729   -0.70021        -8.768450       8.721653      -0.046797
    741   11.00880   -0.33729    0.81157        -8.643768       8.599390      -0.044378
    742   11.00880   -0.33729    2.32335        -8.169364       8.136028      -0.033336
    743   11.00880    1.17449   -3.72377        -7.794586       7.773090      -0.021496
    744   11.00880    1.17449   -2.21199        -8.321123       8.291366      -0.029757
    745   11.00880    1.17449   -0.70021        -8.606800       8.570583      -0.036217
    746   11.00880    1.17449    0.81157        -8.493538       8.457860      -0.035678
    747   11.00880    1.17449    2.32335        -8.055453       8.026815      -0.028638
    748   11.00880    2.68627   -3.72377        -7.486269       7.470958      -0.015312
    749   11.00880    2.68627   -2.21199        -7.910543       7.891752      -0.018791
    750   11.00880    2.68627   -0.70021        -8.127285       8.105587      -0.021698
    751   11.00880    2.68627    0.81157        -8.043259       8.020742      -0.022517
    752   11.00880    2.68627    2.32335        -7.702285       7.682149      -0.020136
    753   11.00880    4.19805   -2.21199        -7.381245       7.369202      -0.012043
    754   11.00880    4.19805   -0.70021        -7.536749       7.523551      -0.013198
    755   11.00880    4.19805    0.81157        -7.478760       7.464761      -0.013999
    756   12.52058   -0.33729   -0.70021        -7.323915       7.297259      -0.026656
    757   12.52058   -0.33729    0.81157        -7.266424       7.240534      -0.025890
    758   12.52058    1.17449   -0.70021        -7.244493       7.221228      -0.023266

 NET CHARGES:
 -------------------------------------
 ATOM                CHARGE    E.S.D.
 -------------------------------------
 O                  -0.4030    0.0149
 C                   0.3674    0.1374
 C                   0.2915    0.4634
 H                   0.0008    0.0445
 O                  -0.6541    0.0759
 C                   0.0607    0.4326
 H                   0.1031    0.0479
 O                  -0.6262    0.0322
 C                   0.1903    0.4138
 H                   0.0178    0.0442
 O                  -0.6615    0.0899
 C                   0.2241    0.3792
 O                  -0.6160    0.0384
 H                   0.0279    0.0166
 H                   0.4131    0.0160
 H                   0.3962    0.0087
 H                   0.4369    0.0442
 H                   0.0267    0.0354
 H                   0.0011    0.0341
 H                   0.4033    0.0153
 -------------------------------------

 RMS DEVIATION IS            0.967 KCAL/MOLE
 RELATIVE RMS DEVIATION IS   8.498 %

 MULTIPOLE MOMENTS:
 ---------------------------------------------------------
 STATUS  ACTUAL VALUE       QUANTITY        FITTED VALUE 
 ---------------------------------------------------------
 FIXED       0.0000       TOTAL CHARGE        -0.0000
             3.7229 D    DIPOLE MOMENT         3.7209 D
 FREE       -3.1358 D          DX             -3.1267 D
 FREE       -0.9559 D          DY             -0.9335 D
 FREE        1.7643 D          DZ              1.7881 D
 FREE        0.0000 BU         QXX           -17.9863 BU
 FREE        0.0000 BU         QYY             5.7502 BU
 FREE        0.0000 BU         QZZ            12.2361 BU
 FREE        0.0000 BU         QXY             1.5815 BU
 FREE        0.0000 BU         QXZ            -3.7519 BU
 FREE        0.0000 BU         QYZ            -5.8267 BU
 ---------------------------------------------------------
 ...... END OF PROPERTY EVALUATION ......
 CPU     0: STEP CPU TIME=     0.21 TOTAL CPU TIME=         16.6 (      0.3 MIN)
 TOTAL WALL CLOCK TIME=         33.0 SECONDS, CPU UTILIZATION IS    50.30%
               792378  WORDS OF DYNAMIC MEMORY USED
 EXECUTION OF GAMESS TERMINATED NORMALLY Fri May 22 16:37:55 2020
 DDI: 263640 bytes (0.3 MB / 0 MWords) used by master data server.
Note: The following floating-point exceptions are signalling: IEEE_UNDERFLOW_FLAGNote: The following floating-point exceptions are signalling: IEEE_UNDERFLOW_FLAGNote: The following floating-point exceptions are signalling: IEEE_UNDERFLOW_FLAGNote: The following floating-point exceptions are signalling: IEEE_UNDERFLOW_FLAGNote: The following floating-point exceptions are signalling: IEEE_UNDERFLOW_FLAGNote: The following floating-point exceptions are signalling: IEEE_UNDERFLOW_FLAG IEEE_DENORMAL

 ----------------------------------------
 CPU timing information for all processes
 ========================================
 0: 16.332 + 0.283 = 16.615
 1: 15.468 + 0.64 = 15.532
 2: 16.60 + 0.76 = 16.136
 3: 15.674 + 0.64 = 15.739
 4: 15.893 + 0.88 = 15.981
 5: 16.134 + 0.72 = 16.207
 6: 15.889 + 0.111 = 16.01
 7: 15.708 + 0.44 = 15.752
 ----------------------------------------
 IEEE_DENORMAL
 IEEE_DENORMAL
 IEEE_DENORMAL
 IEEE_DENORMAL
 IEEE_DENORMALNote: The following floating-point exceptions are signalling:Note: The following floating-point exceptions are signalling: IEEE_UNDERFLOW_FLAG
 IEEE_UNDERFLOW_FLAG IEEE_DENORMAL IEEE_DENORMAL

 ddikick.x: exited gracefully.
unset echo
----- accounting info -----
Files used on the master node pietdev were:
-rwxr-xr-x 1 piet piet     1298 mei 22 16:37 /home/piet/scr/d-ribose_charge_chelpg.F05*
-rw-r--r-- 1 piet piet 50790400 mei 22 16:37 /home/piet/scr/d-ribose_charge_chelpg.F10
ls: No match.
ls: No match.
ls: No match.
vr 22 mei 2020 16:37:58 CEST
0.116u 0.023s 0:36.15 0.3%	0+0k 0+8io 0pf+0w
