----- GAMESS execution script 'rungms' -----
This job is running on host pietdev
under operating system Linux at vr 22 mei 2020 16:38:15 CEST
Available scratch disk space (Kbyte units) at beginning of the job is
Filesystem     1K-blocks     Used Available Use% Mounted on
/dev/sda2      244568380 31372908 200702416  14% /
GAMESS temporary binary files will be written to /home/piet/scr
GAMESS supplementary output files will be written to /home/piet/gamess/scr
Copying input file d-ribose_fukui_base.inp to your run's scratch directory...
cp d-ribose_fukui_base.inp /home/piet/scr/d-ribose_fukui_base.F05
unset echo
 
Assuming a single but multicore node.
 
/home/piet/gamess/ddikick.x /home/piet/gamess/gamess.03.x d-ribose_fukui_base -ddi 1 8 pietdev:cpus=8 -scr /home/piet/scr

 Distributed Data Interface kickoff program.
 Initiating 8 compute processes on 1 nodes to run the following command:
 /home/piet/gamess/gamess.03.x d-ribose_fukui_base 

          ******************************************************
          *         GAMESS VERSION = 30 SEP 2019 (R2)          *
          *             FROM IOWA STATE UNIVERSITY             *
          * M.W.SCHMIDT, K.K.BALDRIDGE, J.A.BOATZ, S.T.ELBERT, *
          *   M.S.GORDON, J.H.JENSEN, S.KOSEKI, N.MATSUNAGA,   *
          *          K.A.NGUYEN, S.J.SU, T.L.WINDUS,           *
          *       TOGETHER WITH M.DUPUIS, J.A.MONTGOMERY       *
          *         J.COMPUT.CHEM.  14, 1347-1363(1993)        *
          **************** 64 BIT LINUX VERSION ****************

  SINCE 1993, STUDENTS AND POSTDOCS WORKING AT IOWA STATE UNIVERSITY
  AND ALSO IN THEIR VARIOUS JOBS AFTER LEAVING ISU HAVE MADE IMPORTANT
  CONTRIBUTIONS TO THE CODE:
     IVANA ADAMOVIC, CHRISTINE AIKENS, YURI ALEXEEV, POOJA ARORA,
     ANDREY ASADCHEV, ROB BELL, PRADIPTA BANDYOPADHYAY, JONATHAN BENTZ,
     COLLEEN BERTONI, BRETT BODE, KURT BRORSEN, CALEB CARLIN, GALINA CHABAN,
     WEI CHEN, CHEOL HO CHOI, PAUL DAY, ALBERT DEFUSCO, NUWAN DESILVA,
     TIM DUDLEY, DMITRI FEDOROV, ALEX FINDLATER, GRAHAM FLETCHER, 
     MARK FREITAG, KURT GLAESEMANN, EMILIE B GUIDEZ, ANASTASIA GUNINA, 
     DAN KEMP, SAROM SOK LEANG, GRANT MERRILL,
     NORIYUKI MINEZAWA, JONATHAN MULLIN,
     TAKESHI NAGATA, SEAN NEDD, HEATHER NETZLOFF, BOSILJKA NJEGIC, RYAN OLSON,
     MIKE PAK, BUU PHAM, DAVID POOLE,
     SPENCER PRUITT, LUKE ROSKOP, TOSAPORN SATTASATHUCHANA,
     JIM SHOEMAKER, LYUDMILA SLIPCHENKO,
     TONY SMITH, JIE SONG, TETSUYA TAKETSUGU, SIMON WEBB,
     JORGE LUIS GALVEZ VALLEJO, PENG XU, SOOHAENG YOO,
     FEDERICO ZAHARIEV

  ADDITIONAL CODE HAS BEEN PROVIDED BY COLLABORATORS IN OTHER GROUPS:
     IOWA STATE UNIVERSITY:
          JOE IVANIC, AARON WEST, LAIMUTIS BYTAUTAS, KLAUS RUEDENBERG
     UNIVERSITY OF TOKYO: KIMIHIKO HIRAO, TAKAHITO NAKAJIMA,
          TAKAO TSUNEDA, MUNEAKI KAMIYA, SUSUMU YANAGISAWA,
          KIYOSHI YAGI, MAHITO CHIBA, SEIKEN TOKURA, NAOAKI KAWAKAMI
     UNIVERSITY OF AARHUS: FRANK JENSEN
     UNIVERSITY OF IOWA: VISVALDAS KAIRYS, HUI LI
     NATIONAL INST. OF STANDARDS AND TECHNOLOGY: WALT STEVENS, DAVID GARMER
     UNIVERSITY OF PISA: BENEDETTA MENNUCCI, JACOPO TOMASI
     UNIVERSITY OF MEMPHIS: HENRY KURTZ, PRAKASHAN KORAMBATH
     UNIVERSITY OF ALBERTA: TOBY ZENG, MARIUSZ KLOBUKOWSKI
     UNIVERSITY OF NEW ENGLAND: MARK SPACKMAN
     MIE UNIVERSITY: HIROAKI UMEDA
     NAT. INST. OF ADVANCED INDUSTRIAL SCIENCE AND TECHNOLOGY: KAZUO KITAURA
     MICHIGAN STATE UNIVERSITY:
          KAROL KOWALSKI, MARTA WLOCH, JEFFREY GOUR, JESSE LUTZ,
          WEI LI, JUN SHEN, J. EMILIANO DEUSTUA, PIOTR PIECUCH
     UNIVERSITY OF MINNESOTA:
          ANDREW SAND, PRACHI SHARMA, YINAN SHU
     UNIVERSITY OF SILESIA: MONIKA MUSIAL, STANISLAW KUCHARSKI
     FACULTES UNIVERSITAIRES NOTRE-DAME DE LA PAIX:
          OLIVIER QUINET, BENOIT CHAMPAGNE
     UNIVERSITY OF CALIFORNIA - SANTA BARBARA: BERNARD KIRTMAN
     INSTITUTE FOR MOLECULAR SCIENCE:
          KAZUYA ISHIMURA, MICHIO KATOUDA, AND SHIGERU NAGASE
     UNIVERSITY OF NOTRE DAME: ANNA POMOGAEVA, DAN CHIPMAN
     KYUSHU UNIVERSITY:
          HARUYUKI NAKANO,
          FENG LONG GU, JACEK KORCHOWIEC, MARCIN MAKOWSKI, AND YURIKO AOKI,
          HIROTOSHI MORI AND EISAKU MIYOSHI
     PENNSYLVANIA STATE UNIVERSITY:
          TZVETELIN IORDANOV, CHET SWALINA, JONATHAN SKONE,
          SHARON HAMMES-SCHIFFER
     WASEDA UNIVERSITY:
          MASATO KOBAYASHI, TOMOKO AKAMA, TSUGUKI TOUMA,
          TAKESHI YOSHIKAWA, YASUHIRO IKABATA, JUNJI SEINO,
          YUYA NAKAJIMA, HIROMI NAKAI
     NANJING UNIVERSITY: SHUHUA LI
     UNIVERSITY OF NEBRASKA:
          PEIFENG SU, DEJUN SI, NANDUN THELLAMUREGE, YALI WANG, HUI LI
     UNIVERSITY OF ZURICH: ROBERTO PEVERATI, KIM BALDRIDGE
     N. COPERNICUS UNIVERSITY AND JACKSON STATE UNIVERSITY:
          MARIA BARYSZ
     UNIVERSITY OF COPENHAGEN: Jimmy Kromann, CASPER STEINMANN
     TOKYO INSTITUTE OF TECHNOLOGY: HIROYA NAKATA
     NAGOYA UNIVERSITY: YOSHIO NISHIMOTO, STEPHAN IRLE
     MOSCOW STATE UNIVERSITY: VLADIMIR MIRONOV
     A.N.NESMEYANOV INSTITUTE OF ORGANOELEMENT COMPOUNDS OF RUSSIAN ACADEMY OF SCIENCES:
          IGOR S. GERASIMOV
     JOHANNES KEPLER UNIVERSITY LINZ:
          CHRISTIAN FRIEDL


 PARALLEL VERSION RUNNING ON        8 PROCESSORS IN        1 NODES.

 EXECUTION OF GAMESS BEGUN Fri May 22 16:38:15 2020

            ECHO OF THE FIRST FEW INPUT CARDS -
 INPUT CARD> $BASIS GBASIS=N21 NGAUSS=3 $END                                                
 INPUT CARD> $CONTRL SCFTYP=UHF MAXIT=60 MULT=2 ICHARG=1 $END                               
 INPUT CARD> $SYSTEM MEMDDI=1000 MWORDS=30 $END                                             
 INPUT CARD> $SCF DIRSCF=.TRUE. $END                                                        
 INPUT CARD> $STATPT OPTTOL=0.0001 NSTEP=999 $END                                           
 INPUT CARD> $DATA                                                                          
 INPUT CARD>                                                                                
 INPUT CARD>C1                                                                              
 INPUT CARD>O 8.0000000 -3.2619090791 0.4073462201 -0.6983425722                            
 INPUT CARD>C 6.0000000 -2.4975049918 -0.3687170729 -0.1121930616                           
 INPUT CARD>C 6.0000000 -1.1914535956 0.1426987428 0.4619871894                             
 INPUT CARD>H 1.0000000 -1.1653017061 -0.0316498378 1.5473655414                            
 INPUT CARD>O 8.0000000 -1.0923419593 1.5628692065 0.1695409674                             
 INPUT CARD>C 6.0000000 -0.0226750982 -0.6497363123 -0.1849830220                           
 INPUT CARD>H 1.0000000 -0.1286454357 -0.6262153308 -1.2726042359                           
 INPUT CARD>O 8.0000000 -0.1484188926 -2.0464771531 0.2111749881                            
 INPUT CARD>C 6.0000000 1.3304570036 -0.0345999699 0.1714310354                             
 INPUT CARD>H 1.0000000 1.4381225234 0.0039690201 1.2705053057                              
 INPUT CARD>O 8.0000000 1.4506885329 1.2852261766 -0.4293240310                             
 INPUT CARD>C 6.0000000 2.5127955978 -0.8115468600 -0.4162375238                            
 INPUT CARD>O 8.0000000 3.7131241725 -0.0320254794 -0.1773739192                            
 INPUT CARD>H 1.0000000 -2.6675463923 -1.4458663828 -0.0057003230                           
 INPUT CARD>H 1.0000000 -1.9255117788 1.7690435899 -0.3609894399                            
 INPUT CARD>H 1.0000000 0.1999011879 -2.1260141202 1.1424552720                             
 INPUT CARD>H 1.0000000 0.5730653025 1.7527865652 -0.2546888231                             
 INPUT CARD>H 1.0000000 2.6291137978 -1.7816063488 0.0704702424                             
 INPUT CARD>H 1.0000000 2.3169498826 -0.9696001752 -1.4884327531                            
 INPUT CARD>H 1.0000000 3.4218910285 0.8978153220 -0.4110611370                             
 INPUT CARD> $END                                                                           
   30000000 WORDS OF MEMORY AVAILABLE

     BASIS OPTIONS
     -------------
     GBASIS=N21          IGAUSS=       3      POLAR=NONE    
     NDFUNC=       0     NFFUNC=       0     DIFFSP=       F
     NPFUNC=       0      DIFFS=       F     BASNAM=        


     RUN TITLE
     ---------
                                                                                 

 THE POINT GROUP OF THE MOLECULE IS C1      
 THE ORDER OF THE PRINCIPAL AXIS IS     0

 ATOM      ATOMIC                      COORDINATES (BOHR)
           CHARGE         X                   Y                   Z
 O           8.0    -6.1641143564        0.7697727381       -1.3196761070
 C           6.0    -4.7196000875       -0.6967742348       -0.2120141441
 C           6.0    -2.2515208228        0.2696615227        0.8730291978
 H           1.0    -2.2021009176       -0.0598095210        2.9240968761
 O           8.0    -2.0642269880        2.9533945549        0.3203859721
 C           6.0    -0.0428497223       -1.2278235945       -0.3495672240
 H           1.0    -0.2431046230       -1.1833753845       -2.4048732967
 O           8.0    -0.2804710384       -3.8672810595        0.3990628630
 C           6.0     2.5141991752       -0.0653844623        0.3239576827
 H           1.0     2.7176575060        0.0075003604        2.4009068937
 O           8.0     2.7414038207        2.4287253060       -0.8113047785
 C           6.0     4.7484951430       -1.5336011916       -0.7865748658
 O           8.0     7.0167872444       -0.0605193807       -0.3351881047
 H           1.0    -5.0409317410       -2.7322912784       -0.0107720485
 H           1.0    -3.6386896481        3.3430076452       -0.6821711259
 H           1.0     0.3777584698       -4.0175841332        2.1589274173
 H           1.0     1.0829363948        3.3122863232       -0.4812920878
 H           1.0     4.9683046684       -3.3667478172        0.1331694484
 H           1.0     4.3784004054       -1.8322786488       -2.8127300545
 H           1.0     6.4664364037        1.6966249462       -0.7767929131

          INTERNUCLEAR DISTANCES (ANGS.)
          ------------------------------

                1 O          2 C          3 C          4 H          5 O     

   1 O       0.0000000    1.2369960 *  2.3881351 *  3.1034956    2.6068135 *
   2 C       1.2369960 *  0.0000000    1.5155855 *  2.1546495 *  2.4051783 *
   3 C       2.3881351 *  1.5155855 *  0.0000000    1.0996033 *  1.4533520 *
   4 H       3.1034956    2.1546495 *  1.0996033 *  0.0000000    2.1086049 *
   5 O       2.6068135 *  2.4051783 *  1.4533520 *  2.1086049 *  0.0000000  
   6 C       3.4458088    2.4917972 *  1.5532440 *  2.1653309 *  2.4830420 *
   7 H       3.3489352    2.6503500 *  2.1747638 *  3.0627429    2.7929527 *
   8 O       4.0672217    2.9047636 *  2.4378924 *  2.6227819 *  3.7309657  
   9 C       4.6948534    3.8529690    2.5447772 *  2.8499151 *  2.9020452 *
  10 H       5.1116898    4.1880680    2.7545631 *  2.6183464 *  3.1694704  
  11 O       4.8012103    4.2923574    3.0134232    3.5333934    2.6273045 *
  12 C       5.9086799    5.0390131    3.9247070    4.2417421    4.3563752  
  13 O       7.0082483    6.2200904    4.9491610    5.1743372    5.0750905  
  14 H       2.0657728 *  1.0956758 *  2.2183599 *  2.5823945 *  3.4006570  
  15 H       1.9375202 *  2.2269029 *  1.9649757 *  2.7317092 *  1.0090304 *
  16 H       4.6680383    3.4551752    2.7469916 *  2.5326060 *  4.0279418  
  17 H       4.0882841    3.7349009    2.4938994 *  3.0746598    1.7290520 *
  18 H       6.3314088    5.3208874    4.2956921    4.4318344    5.0044545  
  19 H       5.8003354    5.0432204    4.1653621    4.7140108    4.5591171  
  20 H       6.7079262    6.0607488    4.7555613    5.0736257    4.5997494  

                6 C          7 H          8 O          9 C         10 H     

   1 O       3.4458088    3.3489352    4.0672217    4.6948534    5.1116898  
   2 C       2.4917972 *  2.6503500 *  2.9047636 *  3.8529690    4.1880680  
   3 C       1.5532440 *  2.1747638 *  2.4378924 *  2.5447772 *  2.7545631 *
   4 H       2.1653309 *  3.0627429    2.6227819 *  2.8499151 *  2.6183464 *
   5 O       2.4830420 *  2.7929527 *  3.7309657    2.9020452 *  3.1694704  
   6 C       0.0000000    1.0930246 *  1.4572706 *  1.5285255 *  2.1632630 *
   7 H       1.0930246 *  0.0000000    2.0540534 *  2.1364050 *  3.0527529  
   8 O       1.4572706 *  2.0540534 *  0.0000000    2.4972592 *  2.8006470 *
   9 C       1.5285255 *  2.1364050 *  2.4972592 *  0.0000000    1.1050085 *
  10 H       2.1632630 *  3.0527529    2.8006470 *  1.1050085 *  0.0000000  
  11 O       2.4442960 *  2.6189742 *  3.7506840    1.4550956 *  2.1286610 *
  12 C       2.5511317 *  2.7829701 *  3.0001270    1.5319678 *  2.1598819 *
  13 O       3.7865315    4.0387851    4.3726995    2.4080644 *  2.6969024 *
  14 H       2.7679071 *  2.9534542 *  2.5988019 *  4.2434749    4.5373165  
  15 H       3.0825739    3.1300216    4.2477794    3.7600445    4.1341624  
  16 H       1.9977559 *  2.8617917 *  0.9974648 *  2.5680844 *  2.4670665 *
  17 H       2.4762637 *  2.6810818 *  3.8951217    1.9874534 *  2.4764701 *
  18 H       2.8945415 *  3.2778062    2.7936790 *  2.1791590 *  2.4590290 *
  19 H       2.6972466 *  2.4789981 *  3.1821964    2.1453534 *  3.0548181  
  20 H       3.7829966    3.9586911    4.6693842    2.3627932 *  2.7499026 *

               11 O         12 C         13 O         14 H         15 H     

   1 O       4.8012103    5.9086799    7.0082483    2.0657728 *  1.9375202 *
   2 C       4.2923574    5.0390131    6.2200904    1.0956758 *  2.2269029 *
   3 C       3.0134232    3.9247070    4.9491610    2.2183599 *  1.9649757 *
   4 H       3.5333934    4.2417421    5.1743372    2.5823945 *  2.7317092 *
   5 O       2.6273045 *  4.3563752    5.0750905    3.4006570    1.0090304 *
   6 C       2.4442960 *  2.5511317 *  3.7865315    2.7679071 *  3.0825739  
   7 H       2.6189742 *  2.7829701 *  4.0387851    2.9534542 *  3.1300216  
   8 O       3.7506840    3.0001270    4.3726995    2.5988019 *  4.2477794  
   9 C       1.4550956 *  1.5319678 *  2.4080644 *  4.2434749    3.7600445  
  10 H       2.1286610 *  2.1598819 *  2.6969024 *  4.5373165    4.1341624  
  11 O       0.0000000    2.3504680 *  2.6300657 *  4.9596555    3.4113747  
  12 C       2.3504680 *  0.0000000    1.4510335 *  5.2351547    5.1343034  
  13 O       2.6300657 *  1.4510335 *  0.0000000    6.5376888    5.9221432  
  14 H       4.9596555    5.2351547    6.5376888    0.0000000    3.3185075  
  15 H       3.4113747    5.1343034    5.9221432    3.3185075    0.0000000  
  16 H       3.9587270    3.0833144    4.2976125    3.1627706    4.6849974  
  17 H       1.0096201 *  3.2193878    3.6126862    4.5601469    2.5008902 *
  18 H       3.3232427    1.0915264 *  2.0730505 *  5.3078369    5.7911904  
  19 H       2.6374916 *  1.1013351 *  2.1324221 *  5.2221191    5.1739520  
  20 H       2.0089948 *  1.9360786 *  1.0020132 *  6.5374620    5.4181420  

               16 H         17 H         18 H         19 H         20 H     

   1 O       4.6680383    4.0882841    6.3314088    5.8003354    6.7079262  
   2 C       3.4551752    3.7349009    5.3208874    5.0432204    6.0607488  
   3 C       2.7469916 *  2.4938994 *  4.2956921    4.1653621    4.7555613  
   4 H       2.5326060 *  3.0746598    4.4318344    4.7140108    5.0736257  
   5 O       4.0279418    1.7290520 *  5.0044545    4.5591171    4.5997494  
   6 C       1.9977559 *  2.4762637 *  2.8945415 *  2.6972466 *  3.7829966  
   7 H       2.8617917 *  2.6810818 *  3.2778062    2.4789981 *  3.9586911  
   8 O       0.9974648 *  3.8951217    2.7936790 *  3.1821964    4.6693842  
   9 C       2.5680844 *  1.9874534 *  2.1791590 *  2.1453534 *  2.3627932 *
  10 H       2.4670665 *  2.4764701 *  2.4590290 *  3.0548181    2.7499026 *
  11 O       3.9587270    1.0096201 *  3.3232427    2.6374916 *  2.0089948 *
  12 C       3.0833144    3.2193878    1.0915264 *  1.1013351 *  1.9360786 *
  13 O       4.2976125    3.6126862    2.0730505 *  2.1324221 *  1.0020132 *
  14 H       3.1627706    4.5601469    5.3078369    5.2221191    6.5374620  
  15 H       4.6849974    2.5008902 *  5.7911904    5.1739520    5.4181420  
  16 H       0.0000000    4.1396084    2.6774694 *  3.5694201    4.6838207  
  17 H       4.1396084    0.0000000    4.1018285    3.4604403    2.9784620 *
  18 H       2.6774694 *  4.1018285    0.0000000    1.7852112 *  2.8354310 *
  19 H       3.5694201    3.4604403    1.7852112 *  0.0000000    2.4225741 *
  20 H       4.6838207    2.9784620 *  2.8354310 *  2.4225741 *  0.0000000  

  * ... LESS THAN  3.000


     ATOMIC BASIS SET
     ----------------
 THE CONTRACTED PRIMITIVE FUNCTIONS HAVE BEEN UNNORMALIZED
 THE CONTRACTED BASIS FUNCTIONS ARE NOW NORMALIZED TO UNITY

  SHELL TYPE  PRIMITIVE        EXPONENT          CONTRACTION COEFFICIENT(S)

 O         

      1   S       1           322.0370000    0.059239393389
      1   S       2            48.4308000    0.351499960776
      1   S       3            10.4206000    0.707657921031

      2   L       4             7.4029400   -0.404453583190    0.244586106967
      2   L       5             1.5762000    1.221561761397    0.853955373466

      3   L       6             0.3736840    1.000000000000    1.000000000000

 C         

      4   S       7           172.2560000    0.061766907377
      4   S       8            25.9109000    0.358794042852
      4   S       9             5.5333500    0.700713083689

      5   L      10             3.6649800   -0.395895162119    0.236459946619
      5   L      11             0.7705450    1.215834355681    0.860618805716

      6   L      12             0.1958570    1.000000000000    1.000000000000

 C         

      7   S      13           172.2560000    0.061766907377
      7   S      14            25.9109000    0.358794042852
      7   S      15             5.5333500    0.700713083689

      8   L      16             3.6649800   -0.395895162119    0.236459946619
      8   L      17             0.7705450    1.215834355681    0.860618805716

      9   L      18             0.1958570    1.000000000000    1.000000000000

 H         

     10   S      19             5.4471780    0.156284978695
     10   S      20             0.8245472    0.904690876670

     11   S      21             0.1831916    1.000000000000

 O         

     12   S      22           322.0370000    0.059239393389
     12   S      23            48.4308000    0.351499960776
     12   S      24            10.4206000    0.707657921031

     13   L      25             7.4029400   -0.404453583190    0.244586106967
     13   L      26             1.5762000    1.221561761397    0.853955373466

     14   L      27             0.3736840    1.000000000000    1.000000000000

 C         

     15   S      28           172.2560000    0.061766907377
     15   S      29            25.9109000    0.358794042852
     15   S      30             5.5333500    0.700713083689

     16   L      31             3.6649800   -0.395895162119    0.236459946619
     16   L      32             0.7705450    1.215834355681    0.860618805716

     17   L      33             0.1958570    1.000000000000    1.000000000000

 H         

     18   S      34             5.4471780    0.156284978695
     18   S      35             0.8245472    0.904690876670

     19   S      36             0.1831916    1.000000000000

 O         

     20   S      37           322.0370000    0.059239393389
     20   S      38            48.4308000    0.351499960776
     20   S      39            10.4206000    0.707657921031

     21   L      40             7.4029400   -0.404453583190    0.244586106967
     21   L      41             1.5762000    1.221561761397    0.853955373466

     22   L      42             0.3736840    1.000000000000    1.000000000000

 C         

     23   S      43           172.2560000    0.061766907377
     23   S      44            25.9109000    0.358794042852
     23   S      45             5.5333500    0.700713083689

     24   L      46             3.6649800   -0.395895162119    0.236459946619
     24   L      47             0.7705450    1.215834355681    0.860618805716

     25   L      48             0.1958570    1.000000000000    1.000000000000

 H         

     26   S      49             5.4471780    0.156284978695
     26   S      50             0.8245472    0.904690876670

     27   S      51             0.1831916    1.000000000000

 O         

     28   S      52           322.0370000    0.059239393389
     28   S      53            48.4308000    0.351499960776
     28   S      54            10.4206000    0.707657921031

     29   L      55             7.4029400   -0.404453583190    0.244586106967
     29   L      56             1.5762000    1.221561761397    0.853955373466

     30   L      57             0.3736840    1.000000000000    1.000000000000

 C         

     31   S      58           172.2560000    0.061766907377
     31   S      59            25.9109000    0.358794042852
     31   S      60             5.5333500    0.700713083689

     32   L      61             3.6649800   -0.395895162119    0.236459946619
     32   L      62             0.7705450    1.215834355681    0.860618805716

     33   L      63             0.1958570    1.000000000000    1.000000000000

 O         

     34   S      64           322.0370000    0.059239393389
     34   S      65            48.4308000    0.351499960776
     34   S      66            10.4206000    0.707657921031

     35   L      67             7.4029400   -0.404453583190    0.244586106967
     35   L      68             1.5762000    1.221561761397    0.853955373466

     36   L      69             0.3736840    1.000000000000    1.000000000000

 H         

     37   S      70             5.4471780    0.156284978695
     37   S      71             0.8245472    0.904690876670

     38   S      72             0.1831916    1.000000000000

 H         

     39   S      73             5.4471780    0.156284978695
     39   S      74             0.8245472    0.904690876670

     40   S      75             0.1831916    1.000000000000

 H         

     41   S      76             5.4471780    0.156284978695
     41   S      77             0.8245472    0.904690876670

     42   S      78             0.1831916    1.000000000000

 H         

     43   S      79             5.4471780    0.156284978695
     43   S      80             0.8245472    0.904690876670

     44   S      81             0.1831916    1.000000000000

 H         

     45   S      82             5.4471780    0.156284978695
     45   S      83             0.8245472    0.904690876670

     46   S      84             0.1831916    1.000000000000

 H         

     47   S      85             5.4471780    0.156284978695
     47   S      86             0.8245472    0.904690876670

     48   S      87             0.1831916    1.000000000000

 H         

     49   S      88             5.4471780    0.156284978695
     49   S      89             0.8245472    0.904690876670

     50   S      90             0.1831916    1.000000000000

 TOTAL NUMBER OF BASIS SET SHELLS             =   50
 NUMBER OF CARTESIAN GAUSSIAN BASIS FUNCTIONS =  110
 NUMBER OF ELECTRONS                          =   79
 CHARGE OF MOLECULE                           =    1
 SPIN MULTIPLICITY                            =    2
 NUMBER OF OCCUPIED ORBITALS (ALPHA)          =   40
 NUMBER OF OCCUPIED ORBITALS (BETA )          =   39
 TOTAL NUMBER OF ATOMS                        =   20
 THE NUCLEAR REPULSION ENERGY IS      582.0031802219

     $CONTRL OPTIONS
     ---------------
 SCFTYP=UHF          RUNTYP=ENERGY       EXETYP=RUN     
 MPLEVL=       0     CITYP =NONE         CCTYP =NONE         VBTYP =NONE    
 DFTTYP=NONE         TDDFT =NONE    
 MULT  =       2     ICHARG=       1     NZVAR =       0     COORD =UNIQUE  
 PP    =NONE         RELWFN=NONE         LOCAL =NONE         NUMGRD=       F
 ISPHER=      -1     NOSYM =       0     MAXIT =      60     UNITS =ANGS    
 PLTORB=       F     MOLPLT=       F     AIMPAC=       F     FRIEND=        
 NPRINT=       7     IREST =       0     GEOM  =INPUT   
 NORMF =       0     NORMP =       0     ITOL  =      20     ICUT  =       9
 INTTYP=BEST         GRDTYP=BEST         QMTTOL= 1.0E-06

     $SYSTEM OPTIONS
     ---------------
  REPLICATED MEMORY=    30000000 WORDS (ON EVERY NODE).
 DISTRIBUTED MEMDDI=        1000 MILLION WORDS IN AGGREGATE,
 MEMDDI DISTRIBUTED OVER   8 PROCESSORS IS   125000000 WORDS/PROCESSOR.
 TOTAL MEMORY REQUESTED ON EACH PROCESSOR=   155000000 WORDS.
 TIMLIM=      525600.00 MINUTES, OR     365.0 DAYS.
 PARALL= T  BALTYP=  DLB     KDIAG=    0  COREFL= F
 MXSEQ2=     300 MXSEQ3=     150  mem10=         0

          ----------------
          PROPERTIES INPUT
          ----------------

     MOMENTS            FIELD           POTENTIAL          DENSITY
 IEMOM =       1   IEFLD =       0   IEPOT =       0   IEDEN =       0
 WHERE =COMASS     WHERE =NUCLEI     WHERE =NUCLEI     WHERE =NUCLEI  
 OUTPUT=BOTH       OUTPUT=BOTH       OUTPUT=BOTH       OUTPUT=BOTH    
 IEMINT=       0   IEFINT=       0                     IEDINT=       0
                                                       MORB  =       0
          EXTRAPOLATION IN EFFECT
          SOSCF IN EFFECT
          DIIS or SOSCF will be reset if energy rises
 ORBITAL PRINTING OPTION: NPREO=     1   110     2     1

     -------------------------------
     INTEGRAL TRANSFORMATION OPTIONS
     -------------------------------
     NWORD  =            0
     CUTOFF = 1.0E-09     MPTRAN =       0
     DIRTRF =       T     AOINTS =DUP     

          ----------------------
          INTEGRAL INPUT OPTIONS
          ----------------------
 NOPK  =       1 NORDER=       0 SCHWRZ=       T

     ------------------------------------------
     THE POINT GROUP IS C1 , NAXIS= 0, ORDER= 1
     ------------------------------------------

     DIMENSIONS OF THE SYMMETRY SUBSPACES ARE
 A   =  110

 ..... DONE SETTING UP THE RUN .....
 CPU     0: STEP CPU TIME=     0.03 TOTAL CPU TIME=          0.0 (      0.0 MIN)
 TOTAL WALL CLOCK TIME=          0.0 SECONDS, CPU UTILIZATION IS    75.00%

          ********************
          1 ELECTRON INTEGRALS
          ********************
 ...... END OF ONE-ELECTRON INTEGRALS ......
 CPU     0: STEP CPU TIME=     0.01 TOTAL CPU TIME=          0.0 (      0.0 MIN)
 TOTAL WALL CLOCK TIME=          0.1 SECONDS, CPU UTILIZATION IS    66.67%

          -------------
          GUESS OPTIONS
          -------------
          GUESS =HUCKEL            NORB  =       0          NORDER=       0
          MIX   =       F          PRTMO =       F          PUNMO =       F
          TOLZ  = 1.0E-08          TOLE  = 1.0E-05
          SYMDEN=       F          PURIFY=       F

 INITIAL GUESS ORBITALS GENERATED BY HUCKEL   ROUTINE.
 HUCKEL GUESS REQUIRES    117020 WORDS.

 SYMMETRIES FOR INITIAL GUESS ORBITALS FOLLOW.  ALPHA SET(S).
    40 ORBITALS ARE OCCUPIED (   10 CORE ORBITALS).
    11=A       12=A       13=A       14=A       15=A       16=A       17=A   
    18=A       19=A       20=A       21=A       22=A       23=A       24=A   
    25=A       26=A       27=A       28=A       29=A       30=A       31=A   
    32=A       33=A       34=A       35=A       36=A       37=A       38=A   
    39=A       40=A       41=A       42=A       43=A       44=A       45=A   
    46=A       47=A       48=A       49=A       50=A   

 SYMMETRIES FOR INITIAL GUESS ORBITALS FOLLOW.   BETA SET(S).
    39 ORBITALS ARE OCCUPIED (   10 CORE ORBITALS).
    11=A       12=A       13=A       14=A       15=A       16=A       17=A   
    18=A       19=A       20=A       21=A       22=A       23=A       24=A   
    25=A       26=A       27=A       28=A       29=A       30=A       31=A   
    32=A       33=A       34=A       35=A       36=A       37=A       38=A   
    39=A       40=A       41=A       42=A       43=A       44=A       45=A   
    46=A       47=A       48=A       49=A   
 ...... END OF INITIAL ORBITAL SELECTION ......
 CPU     0: STEP CPU TIME=     0.03 TOTAL CPU TIME=          0.1 (      0.0 MIN)
 TOTAL WALL CLOCK TIME=          0.1 SECONDS, CPU UTILIZATION IS    63.64%

                    ----------------------
                    AO INTEGRAL TECHNOLOGY
                    ----------------------
     S,P,L SHELL ROTATED AXIS INTEGRALS, REPROGRAMMED BY
        KAZUYA ISHIMURA (IMS) AND JOSE SIERRA (SYNSTAR).
     S,P,D,L SHELL ROTATED AXIS INTEGRALS PROGRAMMED BY
        KAZUYA ISHIMURA (INSTITUTE FOR MOLECULAR SCIENCE).
     S,P,D,F,G SHELL TO TOTAL QUARTET ANGULAR MOMENTUM SUM 5,
        ERIC PROGRAM BY GRAHAM FLETCHER (ELORET AND NASA ADVANCED
        SUPERCOMPUTING DIVISION, AMES RESEARCH CENTER).
     S,P,D,F,G,L SHELL GENERAL RYS QUADRATURE PROGRAMMED BY
        MICHEL DUPUIS (PACIFIC NORTHWEST NATIONAL LABORATORY).

          --------------------
          2 ELECTRON INTEGRALS
          --------------------

 DIRECT SCF METHOD SKIPS INTEGRAL STORAGE ON DISK.
 DIRECT TRANSFORMATION SKIPS AO INTEGRAL STORAGE ON DISK.
  ...... END OF TWO-ELECTRON INTEGRALS .....
 CPU     0: STEP CPU TIME=     0.02 TOTAL CPU TIME=          0.1 (      0.0 MIN)
 TOTAL WALL CLOCK TIME=          0.1 SECONDS, CPU UTILIZATION IS    69.23%

          ---------------------------
                  UHF SCF CALCULATION
          ---------------------------

     NUCLEAR ENERGY =       582.0031802219
     MAXIT = 60     NPUNCH=  2     MULT=  2
     EXTRAP=T  DAMP=F  SHIFT=F  RSTRCT=F  DIIS=F  SOSCF=T
     DENSITY MATRIX CONV=  2.00E-05
     SOSCF WILL OPTIMIZE    2800 ALPHA AND    2769 BETA ROTATION ANGLES.
     SOGTOL= 2.500E-01
     MEMORY REQUIRED FOR UHF/ROHF ITERS=    208649 WORDS.

 DIRECT SCF CALCULATION, SCHWRZ=T   FDIFF=T
 SCHWARZ INEQUALITY OVERHEAD:      5623 INTEGRALS, T=        0.00

                                                                                NONZERO     BLOCKS
 ITER EX      TOTAL ENERGY        E CHANGE  DENSITY CHANGE    ORB. GRAD       INTEGRALS    SKIPPED
   1  0     -564.1602922126  -564.1602922126   0.983766300   0.000000000       10619571     383997
          ---------------START SECOND ORDER SCF---------------
   2  1     -565.6703068555    -1.5100146429   0.161939596   0.092246829       10594962     390837
   3  2     -565.7206998397    -0.0503929842   0.177984481   0.093238783       10544114     403804
   4  3     -565.8593366367    -0.1386367970   0.061272121   0.015135723       10436205     418947
   5  4     -565.8676495573    -0.0083129206   0.036376861   0.012839052       10350689     428073
 SOSCF IS SCALING ROTATION ANGLE MATRIX, SQCDF=    4.099290
   6  5     -565.8746418019    -0.0069922446   7.742311689   0.016909018       10391679     425285
 SOSCF IS SCALING ROTATION ANGLE MATRIX, SQCDF=    0.596560
   7  6     -542.7893268319    23.0853149700   3.715149525   0.534862525       10654534     361115
 SOSCF IS SCALING ROTATION ANGLE MATRIX, SQCDF=    0.172226
   8  7     -556.4961140219   -13.7067871900   2.356309381   0.298861618       10652875     364871
   9  8     -560.6821482394    -4.1860342175   2.075196888   0.269752892       10652185     365757
 SOSCF IS SCALING ROTATION ANGLE MATRIX, SQCDF=    0.130082
  10  9     -563.7117655856    -3.0296173462   1.137526350   0.158731721       10646912     371611
  11 10     -562.8961676454     0.8155979402   1.187072321   0.183860680       10648705     370310
  12 11     -564.8301613218    -1.9339936764   0.481961377   0.126836713       10645247     372941
  13 12     -565.2469726432    -0.4168113214   0.671593901   0.179309713       10623533     383318
  14 13     -565.5513228792    -0.3043502360   0.179208727   0.158695670       10618270     384828
  15 14     -565.7054828109    -0.1541599317   0.189997549   0.130203701       10599382     390092
  16 15     -565.7933089346    -0.0878261237   0.068799488   0.069167581       10573475     396699
  17 16     -565.8323738983    -0.0390649637   0.053457636   0.038206005       10524175     405118
  18 17     -565.8535495156    -0.0211756173   0.045401884   0.028817806       10466713     412659
  19 18     -565.8694777723    -0.0159282566   0.096079433   0.017928767       10428668     417228
  20 19     -565.8901523728    -0.0206746005   0.056440821   0.016661110       10463666     413007
  21 20     -565.9048680710    -0.0147156982   0.040385038   0.022566734       10448254     414297
  22 21     -565.9188268663    -0.0139587953   0.045068575   0.011889763       10416456     418803
  23 22     -565.9265870294    -0.0077601631   0.038655257   0.018492001       10361511     423433
  24 23     -565.9312713508    -0.0046843214   0.030007234   0.012735415       10325107     427216
  25 24     -565.9340507603    -0.0027794095   0.021480728   0.009303932       10256335     433103
  26 25     -565.9355525603    -0.0015018000   0.012872092   0.010650499       10204444     437259
  27 26     -565.9365782054    -0.0010256451   0.007714566   0.008297409       10111415     442799
  28 27     -565.9372101133    -0.0006319080   0.008857760   0.008375464       10037749     448556
  29 28     -565.9377516292    -0.0005415159   0.011819570   0.008704585        9963173     451765
  30 29     -565.9383619794    -0.0006103502   0.010985691   0.008864300        9980694     450067
  31 30     -565.9390897071    -0.0007277277   0.010538036   0.007173624        9977968     450632
  32 31     -565.9399755714    -0.0008858643   0.009252588   0.004257038       10023058     448419
  33 32     -565.9406251923    -0.0006496208   0.007325797   0.002517738       10021540     448372
  34 33     -565.9409559977    -0.0003308054   0.003639300   0.001478701        9974306     451460
  35 34     -565.9410848411    -0.0001288434   0.002466214   0.001475204        9860121     458046
  36 35     -565.9411265812    -0.0000417402   0.001604787   0.000709252        9721371     467336
  37 36     -565.9411426616    -0.0000160803   0.001476174   0.000366777        9439443     481589
  38 37     -565.9411483564    -0.0000056948   0.000549923   0.000270548        9225772     491822
  39 38     -565.9411519089    -0.0000035525   0.001061091   0.000247187        8991423     503221
  40 39     -565.9411556078    -0.0000036988   0.001569118   0.000281042        9023132     501633
  41 40     -565.9411592930    -0.0000036852   0.002322961   0.000217706        8966773     504498
  42 41     -565.9411634641    -0.0000041711   0.002002205   0.000224894        8975069     504447
  43 42     -565.9411664838    -0.0000030197   0.001332568   0.000180187        8960050     505089
  44 43     -565.9411682001    -0.0000017163   0.000652054   0.000159570        8914880     507160
  45 44     -565.9411691369    -0.0000009368   0.000369843   0.000140902        8766249     514006
  46 45     -565.9411697196    -0.0000005828   0.000400311   0.000084021        8603140     521298
  47 46     -565.9411701166    -0.0000003970   0.000440797   0.000058073        8507377     525643
  48 47     -565.9411703605    -0.0000002439   0.000344064   0.000061578        8409343     530101
  49 48     -565.9411704885    -0.0000001280   0.000122030   0.000054842        8319040     534608
  50 49     -565.9411705365    -0.0000000480   0.000052972   0.000027737        8082788     545258
  51 50     -565.9411705520    -0.0000000154   0.000026240   0.000012360        7822720     556676
  52 51     -565.9411705560    -0.0000000040   0.000014804   0.000004645        7498567     570080
  53 52     -565.9411705564    -0.0000000004   0.000008888   0.000001974        7118765     586556

          -----------------
          DENSITY CONVERGED
          -----------------
     TIME TO FORM FOCK OPERATORS=       6.7 SECONDS (       0.1 SEC/ITER)
     FOCK TIME ON FIRST ITERATION=       0.2, LAST ITERATION=       0.1
     TIME TO SOLVE SCF EQUATIONS=       0.4 SECONDS (       0.0 SEC/ITER)

 FINAL UHF ENERGY IS     -565.9411705564 AFTER  53 ITERATIONS

          --------------------
          SPIN SZ   =    0.500
          S-SQUARED =    0.837
          --------------------

  ----- ALPHA SET ----- 

          ------------
          EIGENVECTORS
          ------------

                      1          2          3          4          5
                  -20.9324   -20.6429   -20.6420   -20.6408   -20.6296
                     A          A          A          A          A   
    1  O  1  S   -0.000026  -0.038935  -0.014322   0.982670   0.009365
    2  O  1  S   -0.000037  -0.004318  -0.001542   0.099335   0.000330
    3  O  1  X    0.000016  -0.000168  -0.000061   0.003106   0.000094
    4  O  1  Y   -0.000008   0.000164  -0.000003  -0.002439   0.000263
    5  O  1  Z   -0.000023  -0.000028  -0.000010   0.002226  -0.000002
    6  O  1  S    0.000235   0.003967   0.001309  -0.052695   0.004012
    7  O  1  X    0.000006   0.000982   0.000439  -0.010080   0.000884
    8  O  1  Y    0.000016  -0.000770   0.000010   0.007771  -0.001560
    9  O  1  Z    0.000125   0.000300   0.000125  -0.007213   0.000717
   10  C  2  S   -0.000010   0.000099   0.000049  -0.000002   0.000193
   11  C  2  S   -0.000143   0.000590   0.000282   0.000319   0.000394
   12  C  2  X   -0.000142   0.000181   0.000063  -0.001712  -0.000577
   13  C  2  Y    0.000026   0.000012   0.000041   0.000741  -0.000154
   14  C  2  Z    0.000004  -0.000056   0.000047  -0.001144  -0.000260
   15  C  2  S   -0.000471  -0.003774  -0.002135   0.020051  -0.007413
   16  C  2  X   -0.000040  -0.000093  -0.001034  -0.008084  -0.001179
   17  C  2  Y   -0.000563  -0.002841  -0.001575   0.018760  -0.008214
   18  C  2  Z   -0.000124   0.001621   0.000193  -0.008544   0.002118
   19  C  3  S   -0.000047   0.000045   0.000017   0.000238  -0.000988
   20  C  3  S   -0.000297  -0.000317   0.000371   0.000885  -0.004331
   21  C  3  X    0.000163  -0.000310   0.000479   0.000311   0.000252
   22  C  3  Y    0.000001   0.000353  -0.000027   0.000697   0.001281
   23  C  3  Z    0.000093   0.000635   0.000341  -0.000230   0.000435
   24  C  3  S    0.002287  -0.001746   0.000269  -0.004707   0.022655
   25  C  3  X   -0.000137  -0.002857  -0.001861   0.003988  -0.001543
   26  C  3  Y   -0.000593   0.004842   0.000894  -0.009105   0.013094
   27  C  3  Z   -0.001224  -0.003755  -0.003019   0.005670  -0.009138
   28  H  4  S    0.000011   0.000907   0.000449  -0.000549  -0.000617
   29  H  4  S    0.000279   0.001029   0.001350  -0.001744   0.001287
   30  O  5  S   -0.000009   0.003853   0.016669  -0.009163   0.983413
   31  O  5  S   -0.000002   0.000713   0.002545  -0.001535   0.098872
   32  O  5  X   -0.000040  -0.000200   0.000539  -0.000250  -0.001723
   33  O  5  Y   -0.000029   0.000085   0.000108   0.000318  -0.002807
   34  O  5  Z   -0.000030   0.000040  -0.000129  -0.000221  -0.000851
   35  O  5  S   -0.000088  -0.002189  -0.003022   0.004257  -0.048479
   36  O  5  X    0.000193   0.000881  -0.002044   0.000856   0.003695
   37  O  5  Y    0.000189   0.000449  -0.000090  -0.002915   0.009501
   38  O  5  Z    0.000143  -0.000096   0.000579   0.001132   0.001194
   39  C  6  S   -0.000141  -0.000911   0.000226  -0.000035   0.000215
   40  C  6  S   -0.000889  -0.003946   0.000708  -0.000213   0.000858
   41  C  6  X   -0.000531  -0.000117  -0.000511   0.000150   0.000298
   42  C  6  Y    0.000260  -0.001236  -0.000250   0.000046   0.000009
   43  C  6  Z    0.000115  -0.000134  -0.000421   0.000474  -0.000706
   44  C  6  S    0.002983   0.020887  -0.006568  -0.000570  -0.005196
   45  C  6  X    0.004372   0.000007  -0.002776  -0.001050   0.001599
   46  C  6  Y   -0.001361  -0.011970  -0.003520   0.000406  -0.005559
   47  C  6  Z   -0.000709   0.008525   0.003564  -0.005031   0.004614
   48  H  7  S   -0.000446  -0.000872   0.000982  -0.000324   0.001259
   49  H  7  S   -0.000113   0.000612   0.001460  -0.003002   0.001868
   50  O  8  S    0.000178   0.982118  -0.036224   0.038326  -0.002796
   51  O  8  S    0.000248   0.097935  -0.003407   0.003476  -0.000034
   52  O  8  X    0.000016   0.001246  -0.000265   0.000100   0.000253
   53  O  8  Y    0.000027   0.003326  -0.000192   0.000060  -0.000104
   54  O  8  Z   -0.000052   0.001516   0.000004   0.000077  -0.000067
   55  O  8  S   -0.001101  -0.046209   0.000220  -0.000463  -0.001754
   56  O  8  X   -0.000433  -0.002653   0.000907  -0.000002  -0.001054
   57  O  8  Y   -0.000453  -0.010126   0.000158   0.000274  -0.000291
   58  O  8  Z    0.000352  -0.001834  -0.000175   0.000010   0.000222
   59  C  9  S    0.000266   0.000137  -0.000953  -0.000065   0.000022
   60  C  9  S    0.001071   0.000407  -0.004185  -0.000413   0.000259
   61  C  9  X   -0.000721   0.000432   0.000115   0.000041  -0.000303
   62  C  9  Y    0.000110   0.000035   0.001522   0.000055  -0.000109
   63  C  9  Z   -0.000075   0.000542   0.000024  -0.000067   0.000512
   64  C  9  S   -0.008609  -0.003732   0.021948   0.002235   0.000410
   65  C  9  X   -0.001668   0.001758  -0.000372  -0.001034   0.000800
   66  C  9  Y    0.001764   0.005881   0.008752  -0.000890   0.000342
   67  C  9  Z    0.002441  -0.004227  -0.009298   0.001118  -0.003979
   68  H 10  S    0.000471   0.001251  -0.000859  -0.000233   0.000707
   69  H 10  S   -0.000787   0.000511   0.000524  -0.000695   0.001209
   70  O 11  S    0.000314   0.035641   0.982635   0.015867  -0.016443
   71  O 11  S    0.000304   0.003807   0.098380   0.001505  -0.000691
   72  O 11  X    0.000532   0.000187  -0.002220  -0.000058  -0.000092
   73  O 11  Y   -0.000143   0.000000  -0.001905   0.000015   0.000316
   74  O 11  Z   -0.000121   0.000151   0.001892   0.000032  -0.000045
   75  O 11  S    0.000110  -0.003722  -0.046925  -0.000393  -0.002898
   76  O 11  X   -0.002095  -0.000781   0.005332   0.000236   0.000870
   77  O 11  Y    0.000116   0.000765   0.006762  -0.000170  -0.000746
   78  O 11  Z    0.000444  -0.000661  -0.004880  -0.000071   0.000043
   79  C 12  S   -0.000823   0.000009   0.000169   0.000016   0.000065
   80  C 12  S   -0.003248   0.000163   0.000428   0.000089   0.000418
   81  C 12  X    0.001413  -0.000199   0.000623   0.000009  -0.000086
   82  C 12  Y    0.000874   0.000089  -0.000598  -0.000017   0.000054
   83  C 12  Z    0.000156  -0.000277  -0.000367  -0.000015  -0.000156
   84  C 12  S    0.019508   0.000446  -0.005689  -0.000337  -0.001922
   85  C 12  X    0.005799   0.000532   0.001389   0.000088   0.001380
   86  C 12  Y    0.007313  -0.001025  -0.003309   0.000304  -0.001143
   87  C 12  Z    0.002606   0.002712   0.001905  -0.000189   0.001182
   88  O 13  S    0.983187  -0.000137  -0.000274   0.000010   0.000012
   89  O 13  S    0.098771   0.000176   0.000264  -0.000010  -0.000029
   90  O 13  X   -0.003535  -0.000067  -0.000008   0.000023   0.000006
   91  O 13  Y    0.000592  -0.000057   0.000134   0.000004  -0.000070
   92  O 13  Z   -0.001205   0.000145   0.000189  -0.000018   0.000049
   93  O 13  S   -0.044174  -0.000542  -0.000458  -0.000020   0.000098
   94  O 13  X    0.009600   0.000328  -0.000293  -0.000075  -0.000107
   95  O 13  Y    0.000320   0.000319  -0.000719  -0.000026   0.000341
   96  O 13  Z    0.002721  -0.000610  -0.000730   0.000076  -0.000246
   97  H 14  S   -0.000071  -0.000482   0.000003   0.000617  -0.000736
   98  H 14  S   -0.000178  -0.000081  -0.000746   0.004924  -0.002255
   99  H 15  S    0.000042   0.000249   0.000064  -0.000756   0.003030
  100  H 15  S    0.000039  -0.000115  -0.000683   0.002764   0.005670
  101  H 16  S   -0.000129   0.002828  -0.000441   0.000108  -0.000203
  102  H 16  S    0.000177   0.005092   0.000576   0.000348   0.000246
  103  H 17  S   -0.000579  -0.000414   0.002607   0.000011  -0.000425
  104  H 17  S   -0.000525   0.000573   0.007500   0.000415   0.004170
  105  H 18  S   -0.001230  -0.000452  -0.000323   0.000048  -0.000024
  106  H 18  S   -0.000795  -0.000719  -0.000192   0.000238  -0.000691
  107  H 19  S   -0.001152   0.000491   0.000681  -0.000023   0.000326
  108  H 19  S   -0.001089   0.000735   0.000794   0.000105   0.000632
  109  H 20  S    0.002952  -0.000108  -0.000681  -0.000028  -0.000092
  110  H 20  S    0.005771  -0.000051   0.002255   0.000119  -0.000221

                      6          7          8          9         10
                  -11.4881   -11.4544   -11.4281   -11.4265   -11.4118
                     A          A          A          A          A   
    1  O  1  S    0.000005  -0.000021  -0.000021   0.000090   0.000051
    2  O  1  S    0.000038  -0.000205  -0.000191   0.000942   0.000131
    3  O  1  X    0.000020   0.000076   0.000129  -0.000397  -0.000072
    4  O  1  Y    0.000003   0.000025  -0.000035   0.000183   0.000320
    5  O  1  Z    0.000007  -0.000080  -0.000082  -0.000128  -0.000076
    6  O  1  S   -0.000205   0.000936   0.000606  -0.000832  -0.002253
    7  O  1  X   -0.000146  -0.000353   0.000014  -0.001427  -0.001933
    8  O  1  Y    0.000003  -0.000215  -0.000284   0.002884  -0.001330
    9  O  1  Z   -0.000100   0.000387   0.000505  -0.001991  -0.000714
   10  C  2  S   -0.000681  -0.004303  -0.105630   0.981185   0.005884
   11  C  2  S   -0.000419  -0.001641  -0.011345   0.094911  -0.001840
   12  C  2  X   -0.000119  -0.000326  -0.000956   0.000328   0.000464
   13  C  2  Y   -0.000007   0.000213  -0.000010   0.000785  -0.000241
   14  C  2  Z   -0.000015  -0.000016  -0.000141  -0.000483   0.000055
   15  C  2  S    0.001788   0.004266   0.006290  -0.053697   0.025552
   16  C  2  X    0.000647   0.003475   0.001717  -0.011695   0.014247
   17  C  2  Y    0.000527  -0.000925  -0.000649   0.004045   0.008656
   18  C  2  Z    0.000510   0.000542   0.001585  -0.005551   0.004606
   19  C  3  S   -0.001501  -0.002611  -0.009830  -0.007464   0.988175
   20  C  3  S   -0.001298  -0.000678  -0.004195  -0.002062   0.105459
   21  C  3  X   -0.000371  -0.000735   0.000588   0.000448  -0.000019
   22  C  3  Y   -0.000089  -0.000118  -0.000266   0.000161  -0.000615
   23  C  3  Z    0.000046  -0.000075   0.000009   0.000053  -0.000877
   24  C  3  S    0.004500  -0.001351   0.024296   0.015293  -0.095858
   25  C  3  X    0.004237   0.001555   0.013425  -0.009239   0.002283
   26  C  3  Y   -0.000083   0.000419  -0.005793  -0.004892   0.008041
   27  C  3  Z   -0.000718   0.001568  -0.006109  -0.002003   0.009683
   28  H  4  S   -0.000370   0.000236  -0.001436  -0.001509   0.000792
   29  H  4  S    0.000023  -0.001781   0.000715   0.001545   0.014005
   30  O  5  S    0.000034   0.000027   0.000060  -0.000010  -0.000269
   31  O  5  S    0.000266   0.000248   0.000220  -0.000352  -0.001064
   32  O  5  X    0.000062   0.000080   0.000065   0.000052  -0.000149
   33  O  5  Y    0.000023   0.000093   0.000213   0.000493  -0.000375
   34  O  5  Z   -0.000017  -0.000108   0.000105   0.000043   0.000195
   35  O  5  S   -0.001195  -0.000709  -0.002023   0.000157   0.010451
   36  O  5  X   -0.000497  -0.000663  -0.001085   0.000572   0.000124
   37  O  5  Y    0.000409  -0.000275   0.000950  -0.001288  -0.004984
   38  O  5  Z   -0.000005   0.000287  -0.000151   0.000081   0.000029
   39  C  6  S   -0.002790  -0.007221   0.982507   0.105447   0.009390
   40  C  6  S   -0.001362  -0.004173   0.104521   0.009808  -0.002286
   41  C  6  X   -0.001122  -0.000006   0.000092   0.001788  -0.000448
   42  C  6  Y    0.000350  -0.000028   0.000637   0.000122   0.000060
   43  C  6  Z    0.000378   0.000066   0.000577   0.000378   0.000296
   44  C  6  S    0.000664   0.028553  -0.093624  -0.009734   0.025419
   45  C  6  X    0.003683   0.017070  -0.000254  -0.009820  -0.012499
   46  C  6  Y   -0.002608   0.006413  -0.009466  -0.002721   0.008279
   47  C  6  Z   -0.002500   0.001599  -0.005109  -0.002513   0.003512
   48  H  7  S   -0.000172  -0.001974   0.001207  -0.001201  -0.001917
   49  H  7  S   -0.002186   0.000256   0.014983   0.001745  -0.000458
   50  O  8  S    0.000030   0.000030  -0.000255   0.000019  -0.000019
   51  O  8  S    0.000227  -0.000030  -0.000975   0.000274  -0.000540
   52  O  8  X    0.000067   0.000005   0.000061  -0.000233   0.000037
   53  O  8  Y    0.000064  -0.000310   0.000432   0.000118  -0.000391
   54  O  8  Z   -0.000095  -0.000081  -0.000094  -0.000151  -0.000238
   55  O  8  S   -0.000869  -0.000952   0.009561  -0.000431   0.000375
   56  O  8  X   -0.000642  -0.001257   0.000233   0.001631   0.000662
   57  O  8  Y   -0.000548  -0.000130   0.004375  -0.000384   0.000087
   58  O  8  Z    0.000702   0.000315  -0.000906   0.000768   0.000853
   59  C  9  S   -0.004416   0.988277   0.005637   0.004518   0.002749
   60  C  9  S   -0.002815   0.105787  -0.002358  -0.001330  -0.000215
   61  C  9  X   -0.000034   0.000307  -0.000471   0.000156   0.000968
   62  C  9  Y   -0.000015  -0.000771   0.000051  -0.000021  -0.000249
   63  C  9  Z    0.000026  -0.000857   0.000111  -0.000123  -0.000297
   64  C  9  S    0.021098  -0.098031   0.024544   0.010428  -0.002132
   65  C  9  X    0.011684   0.001867  -0.012865  -0.006269  -0.002045
   66  C  9  Y   -0.006865   0.009550  -0.005899  -0.001983   0.001439
   67  C  9  Z   -0.004451   0.009032  -0.002879  -0.000641   0.002202
   68  H 10  S   -0.001423   0.000950  -0.001440  -0.000746  -0.000119
   69  H 10  S    0.000903   0.013243   0.000544   0.000065  -0.001267
   70  O 11  S    0.000024  -0.000281   0.000019   0.000027   0.000036
   71  O 11  S   -0.000163  -0.001148  -0.000150   0.000176   0.000389
   72  O 11  X   -0.000326  -0.000060   0.000245  -0.000053  -0.000138
   73  O 11  Y    0.000636  -0.000316   0.000396   0.000037   0.000023
   74  O 11  Z    0.000104   0.000388  -0.000002  -0.000019  -0.000004
   75  O 11  S   -0.001087   0.011040  -0.000907  -0.000856  -0.001077
   76  O 11  X    0.000710  -0.000371   0.000138   0.000607   0.000827
   77  O 11  Y   -0.001145  -0.005242  -0.000218   0.000271  -0.000228
   78  O 11  Z   -0.000454   0.000733  -0.000098  -0.000089  -0.000178
   79  C 12  S    0.987618   0.003450   0.002624   0.000914   0.001207
   80  C 12  S    0.101554  -0.002867  -0.000591  -0.000274  -0.001077
   81  C 12  X    0.000076  -0.000699   0.000725   0.000255   0.000346
   82  C 12  Y    0.000742   0.000065   0.000127   0.000017   0.000143
   83  C 12  Z    0.000202   0.000336  -0.000093  -0.000051  -0.000025
   84  C 12  S   -0.078894   0.026983   0.000019   0.000561   0.004518
   85  C 12  X    0.008636  -0.012207  -0.000227  -0.000474  -0.003498
   86  C 12  Y   -0.002485   0.008730  -0.001306  -0.000059   0.000158
   87  C 12  Z   -0.002620   0.003856  -0.000285   0.000173   0.000509
   88  O 13  S   -0.000151   0.000058  -0.000042  -0.000017  -0.000015
   89  O 13  S   -0.000189   0.000188  -0.000423  -0.000177  -0.000160
   90  O 13  X   -0.000634   0.000215   0.000281   0.000107  -0.000013
   91  O 13  Y   -0.000201   0.000108   0.000018   0.000004   0.000088
   92  O 13  Z   -0.000182  -0.000082  -0.000113  -0.000045   0.000012
   93  O 13  S    0.007086  -0.002064   0.001031   0.000413   0.000681
   94  O 13  X   -0.001891   0.001086  -0.001271  -0.000449   0.000030
   95  O 13  Y   -0.001697  -0.000344  -0.000154  -0.000045  -0.000442
   96  O 13  Z    0.000110   0.000203   0.000379   0.000139  -0.000104
   97  H 14  S   -0.000071  -0.000600  -0.000228  -0.000945  -0.000912
   98  H 14  S    0.000114  -0.000172  -0.001368   0.013327   0.003089
   99  H 15  S    0.000016   0.000100  -0.000127  -0.000367  -0.000825
  100  H 15  S   -0.000115  -0.000030  -0.000168   0.002073   0.002911
  101  H 16  S    0.000210  -0.000460  -0.000704  -0.000110  -0.000655
  102  H 16  S   -0.000980   0.000855   0.003136  -0.000286  -0.000070
  103  H 17  S    0.000481  -0.000678  -0.000502   0.000114  -0.000157
  104  H 17  S    0.001430   0.003089   0.001188   0.000307   0.001319
  105  H 18  S    0.000191  -0.001388  -0.000114  -0.000081  -0.000458
  106  H 18  S    0.014854   0.001590  -0.000858  -0.000097  -0.000116
  107  H 19  S    0.000427  -0.001827  -0.000052  -0.000088  -0.000600
  108  H 19  S    0.014539  -0.000148  -0.000877   0.000049   0.000188
  109  H 20  S   -0.000019  -0.000129  -0.000453  -0.000149   0.000087
  110  H 20  S    0.002527   0.000878   0.001375   0.000425   0.000082

                     11         12         13         14         15
                   -1.7999    -1.5758    -1.5493    -1.5273    -1.5066
                     A          A          A          A          A   
    1  O  1  S    0.000024  -0.190649   0.074673   0.001482   0.078716
    2  O  1  S    0.000041   0.181783  -0.070920  -0.001567  -0.074743
    3  O  1  X   -0.000015   0.071855  -0.025115  -0.000409  -0.021142
    4  O  1  Y    0.000035  -0.059219   0.024333  -0.000129   0.028858
    5  O  1  Z    0.000035   0.051016  -0.018987  -0.000602  -0.017769
    6  O  1  S   -0.000513   0.603835  -0.243033  -0.003794  -0.264990
    7  O  1  X   -0.000106   0.085566  -0.031680  -0.001091  -0.028225
    8  O  1  Y   -0.000080  -0.062836   0.027175  -0.000450   0.035675
    9  O  1  Z   -0.000250   0.059616  -0.022697   0.000448  -0.023149
   10  C  2  S    0.000037  -0.102634   0.032277  -0.002351   0.026519
   11  C  2  S    0.000287   0.112236  -0.034829   0.002408  -0.028841
   12  C  2  X    0.000422  -0.061979   0.035715   0.003407   0.049209
   13  C  2  Y   -0.000050   0.088657  -0.031048  -0.002603  -0.022533
   14  C  2  Z    0.000010  -0.053953   0.025108   0.001728   0.031441
   15  C  2  S    0.001619   0.095842  -0.029754  -0.000131  -0.024122
   16  C  2  X    0.000648   0.027583  -0.009610   0.003096  -0.014862
   17  C  2  Y    0.001261  -0.037628   0.025669  -0.001081   0.039416
   18  C  2  Z    0.000187   0.019804  -0.012745  -0.002365  -0.016424
   19  C  3  S    0.000176  -0.046284  -0.022286  -0.006717  -0.062549
   20  C  3  S    0.001804   0.044328   0.026244   0.008060   0.066542
   21  C  3  X   -0.000209  -0.015505   0.017357   0.008084   0.003823
   22  C  3  Y    0.000025   0.018841   0.007377  -0.019593   0.069039
   23  C  3  Z   -0.000307  -0.017765  -0.006263  -0.001924  -0.016172
   24  C  3  S   -0.013023   0.085962   0.026124   0.008470   0.121642
   25  C  3  X   -0.002864  -0.007500   0.001946  -0.005470   0.007235
   26  C  3  Y    0.003485   0.011067  -0.022130  -0.011921  -0.030552
   27  C  3  Z    0.005365  -0.015873   0.021612   0.005178   0.009996
   28  H  4  S    0.000266   0.013535   0.005647   0.003091   0.015907
   29  H  4  S   -0.000961  -0.004058  -0.007702  -0.000612  -0.011199
   30  O  5  S   -0.000261  -0.081695  -0.046858   0.021495  -0.199260
   31  O  5  S    0.000068   0.076538   0.040165  -0.019489   0.182470
   32  O  5  X    0.000122  -0.018275  -0.000574   0.001084  -0.038253
   33  O  5  Y    0.000002  -0.024445  -0.011491   0.002466  -0.044987
   34  O  5  Z    0.000034  -0.008888  -0.004339   0.002720  -0.017385
   35  O  5  S    0.001587   0.243399   0.159505  -0.066651   0.640753
   36  O  5  X    0.000061  -0.022586   0.001468  -0.002408  -0.047996
   37  O  5  Y   -0.000899  -0.026342  -0.020221   0.004619  -0.070468
   38  O  5  Z   -0.000551  -0.011450  -0.005422   0.004604  -0.020065
   39  C  6  S   -0.000790  -0.020909  -0.056732  -0.055483   0.001736
   40  C  6  S    0.003170   0.024443   0.056690   0.058385  -0.002819
   41  C  6  X    0.003528  -0.006934   0.012574  -0.011889  -0.015960
   42  C  6  Y   -0.000664  -0.000532  -0.018627  -0.067481   0.016381
   43  C  6  Z   -0.000608   0.004843   0.016501   0.022147   0.002495
   44  C  6  S   -0.000923   0.031906   0.103716   0.102485  -0.009522
   45  C  6  X   -0.016146   0.022097  -0.008026   0.003723   0.004940
   46  C  6  Y    0.008349   0.011114   0.029513   0.004398   0.005660
   47  C  6  Z    0.005949   0.008143  -0.017735   0.001614  -0.017356
   48  H  7  S    0.001543   0.008475   0.015713   0.015928  -0.001997
   49  H  7  S    0.001441   0.004748  -0.012452  -0.005077  -0.007858
   50  O  8  S   -0.000704  -0.028221  -0.104719  -0.188293   0.027286
   51  O  8  S    0.000000   0.026062   0.096300   0.175367  -0.025602
   52  O  8  X    0.000129   0.002709   0.013503   0.021461  -0.005145
   53  O  8  Y    0.000235   0.009847   0.031018   0.048392  -0.005456
   54  O  8  Z    0.000223   0.004362   0.016649   0.031984  -0.004636
   55  O  8  S    0.005137   0.089422   0.333156   0.590916  -0.083720
   56  O  8  X    0.001941   0.002166   0.017880   0.029512  -0.003117
   57  O  8  Y    0.001464   0.012671   0.044524   0.071796  -0.008575
   58  O  8  Z   -0.001524   0.002718   0.018493   0.036382  -0.005678
   59  C  9  S   -0.012176  -0.016355  -0.074186   0.029458   0.028547
   60  C  9  S    0.009783   0.019767   0.076554  -0.031681  -0.029684
   61  C  9  X    0.013726  -0.003837  -0.006035  -0.016069  -0.005219
   62  C  9  Y   -0.001088   0.007779   0.041489  -0.049439  -0.021013
   63  C  9  Z   -0.004254  -0.006042  -0.028617   0.017274   0.012028
   64  C  9  S    0.034920   0.010534   0.137379  -0.058992  -0.058740
   65  C  9  X    0.010747   0.008044   0.003059   0.003147  -0.009015
   66  C  9  Y   -0.000477   0.000777  -0.023113  -0.010637   0.004532
   67  C  9  Z   -0.005140   0.006752   0.017670   0.006580   0.007980
   68  H 10  S    0.001880   0.005163   0.020437  -0.008810  -0.008932
   69  H 10  S    0.001013  -0.002642  -0.014433   0.003276   0.000841
   70  O 11  S   -0.009896  -0.033801  -0.162154   0.121084   0.072223
   71  O 11  S    0.008378   0.030782   0.148323  -0.111982  -0.066203
   72  O 11  X    0.001152  -0.008936  -0.035419   0.024416   0.009390
   73  O 11  Y   -0.004205  -0.005880  -0.029673   0.017455   0.014798
   74  O 11  Z    0.001949   0.005623   0.025619  -0.018565  -0.010456
   75  O 11  S    0.027381   0.106558   0.514565  -0.379285  -0.232208
   76  O 11  X    0.009166  -0.010847  -0.041689   0.031514   0.015078
   77  O 11  Y   -0.004246  -0.009812  -0.043673   0.027225   0.015452
   78  O 11  Z    0.000589   0.007717   0.036995  -0.024708  -0.015322
   79  C 12  S   -0.052741  -0.003358  -0.016806   0.004652   0.007960
   80  C 12  S    0.061862   0.003350   0.016949  -0.003953  -0.008508
   81  C 12  X    0.044389  -0.005084  -0.021973   0.008469   0.009350
   82  C 12  Y    0.037159   0.002123   0.011093  -0.008271  -0.005674
   83  C 12  Z    0.010169   0.001218   0.005273  -0.000456  -0.002090
   84  C 12  S    0.035519   0.008056   0.028457  -0.014049  -0.009567
   85  C 12  X   -0.017991  -0.000511  -0.002181  -0.003800  -0.000633
   86  C 12  Y   -0.021932   0.003874   0.015342  -0.010357  -0.002799
   87  C 12  Z   -0.006756  -0.003248  -0.014372  -0.000408   0.004143
   88  O 13  S   -0.237930   0.004355   0.020173  -0.010702  -0.008689
   89  O 13  S    0.238516  -0.004046  -0.019845   0.009877   0.008691
   90  O 13  X   -0.072284  -0.000961  -0.005432   0.003356   0.003511
   91  O 13  Y    0.025209  -0.000407  -0.001922  -0.000540   0.000808
   92  O 13  Z   -0.025143   0.000519   0.002256  -0.001039  -0.001060
   93  O 13  S    0.758555  -0.016593  -0.074856   0.043276   0.032140
   94  O 13  X   -0.109355   0.001012  -0.000464   0.000057   0.001675
   95  O 13  Y    0.023895  -0.000486  -0.003287  -0.000871   0.001275
   96  O 13  Z   -0.035864   0.001224   0.006363  -0.002842  -0.002197
   97  H 14  S    0.000116   0.019879  -0.004343   0.001852  -0.003228
   98  H 14  S    0.000398  -0.022560   0.014890   0.004689   0.014479
   99  H 15  S   -0.000045   0.040794   0.013210  -0.008521   0.079800
  100  H 15  S   -0.000056   0.003222   0.001281  -0.001669   0.004276
  101  H 16  S    0.000653   0.012561   0.046770   0.083580  -0.012524
  102  H 16  S   -0.000476   0.000532   0.004165   0.014320  -0.001915
  103  H 17  S    0.003735   0.018221   0.067410  -0.048971  -0.015748
  104  H 17  S    0.000899   0.002046   0.002959  -0.004865   0.012411
  105  H 18  S    0.013551   0.001372   0.006727  -0.000470  -0.002896
  106  H 18  S   -0.005779   0.001299   0.005869   0.003694  -0.000494
  107  H 19  S    0.014085   0.001232   0.005692  -0.001975  -0.003247
  108  H 19  S   -0.003362  -0.002365  -0.005828   0.000587   0.001533
  109  H 20  S    0.080342  -0.000248  -0.001750  -0.000538   0.000497
  110  H 20  S   -0.014556   0.000666   0.007542  -0.006256  -0.003556

                     16         17         18         19         20
                   -1.2727    -1.2049    -1.1220    -1.0592    -1.0454
                     A          A          A          A          A   
    1  O  1  S    0.004666   0.029853  -0.036260  -0.034659  -0.005167
    2  O  1  S   -0.004275  -0.029443   0.036310   0.034816   0.005080
    3  O  1  X    0.000909   0.010290  -0.019608  -0.024532  -0.004277
    4  O  1  Y    0.000011  -0.002774   0.007226   0.010321   0.001193
    5  O  1  Z    0.000126   0.003978  -0.012291  -0.019823  -0.002404
    6  O  1  S   -0.017121  -0.103750   0.129906   0.127692   0.020036
    7  O  1  X    0.001194   0.006134  -0.012772  -0.017376  -0.003264
    8  O  1  Y    0.001267   0.000193   0.004632   0.007693   0.000514
    9  O  1  Z   -0.000651   0.001298  -0.008743  -0.015742  -0.001721
   10  C  2  S   -0.006531  -0.051396   0.066368   0.063136   0.008657
   11  C  2  S    0.011728   0.066230  -0.079411  -0.073341  -0.010408
   12  C  2  X    0.013637   0.076337  -0.076212  -0.055871  -0.008187
   13  C  2  Y   -0.001117  -0.009059   0.011505   0.010277   0.001856
   14  C  2  Z    0.005243   0.035616  -0.043832  -0.040952  -0.004543
   15  C  2  S   -0.002392   0.076569  -0.136061  -0.152242  -0.020790
   16  C  2  X   -0.009445   0.002274  -0.025156  -0.032083  -0.003831
   17  C  2  Y   -0.005614  -0.025961   0.020523   0.014278   0.000502
   18  C  2  Z   -0.003262   0.005406  -0.017925  -0.024527  -0.001975
   19  C  3  S   -0.026995  -0.127171   0.091142   0.049788   0.001781
   20  C  3  S    0.030733   0.120511  -0.080051  -0.042426  -0.001365
   21  C  3  X    0.016770   0.016797   0.064047   0.097989   0.016155
   22  C  3  Y   -0.015477  -0.075593   0.042735   0.008877   0.001117
   23  C  3  Z   -0.006116  -0.019544  -0.000507  -0.022525   0.004903
   24  C  3  S    0.054412   0.368285  -0.315394  -0.189109  -0.008633
   25  C  3  X   -0.019165  -0.013118   0.017482   0.028414   0.008305
   26  C  3  Y   -0.001115  -0.039725   0.045668   0.019261   0.004252
   27  C  3  Z   -0.004338  -0.028614   0.015826   0.000309   0.002458
   28  H  4  S    0.014514   0.067857  -0.054672  -0.040190   0.001820
   29  H  4  S    0.000715  -0.001120  -0.001272  -0.010006   0.002289
   30  O  5  S    0.014576   0.062452  -0.034624  -0.013775  -0.000198
   31  O  5  S   -0.012952  -0.054584   0.030614   0.011731   0.000084
   32  O  5  X    0.002113   0.026690  -0.006279   0.030322   0.009557
   33  O  5  Y   -0.011774  -0.052686   0.039906   0.023875   0.000204
   34  O  5  Z    0.004972   0.020534  -0.017687  -0.018480   0.001642
   35  O  5  S   -0.053237  -0.241676   0.139073   0.059890   0.000580
   36  O  5  X    0.004556   0.028340  -0.005659   0.032357   0.011223
   37  O  5  Y   -0.004164  -0.019018   0.020809   0.014266   0.000496
   38  O  5  Z    0.004623   0.019977  -0.016493  -0.016347   0.001253
   39  C  6  S   -0.062179  -0.114566  -0.044543  -0.093353  -0.002241
   40  C  6  S    0.066660   0.110847   0.037721   0.081466  -0.001084
   41  C  6  X    0.044347  -0.043627   0.106436   0.030337   0.002002
   42  C  6  Y    0.037108   0.065372   0.012725   0.015503   0.008769
   43  C  6  Z    0.001215   0.011315  -0.007609  -0.034291   0.019539
   44  C  6  S    0.136080   0.312686   0.149960   0.328268   0.018270
   45  C  6  X   -0.012537   0.021725   0.003167  -0.001195   0.004261
   46  C  6  Y    0.013464   0.028181   0.012476   0.032261   0.006404
   47  C  6  Z    0.012826   0.019363   0.005902  -0.023826   0.019651
   48  H  7  S    0.034577   0.064028   0.023403   0.071000  -0.010003
   49  H  7  S   -0.000067  -0.000861  -0.000915   0.010245  -0.003022
   50  O  8  S    0.047544   0.056673   0.014219   0.022659   0.001942
   51  O  8  S   -0.042960  -0.049199  -0.012422  -0.020337  -0.001438
   52  O  8  X    0.003242  -0.021319   0.025694   0.005130   0.001332
   53  O  8  Y    0.018783   0.047652   0.015378   0.049164   0.001721
   54  O  8  Z   -0.021043  -0.033900  -0.014133  -0.049363   0.007824
   55  O  8  S   -0.172472  -0.220854  -0.060633  -0.096828  -0.009390
   56  O  8  X    0.002270  -0.024598   0.023017   0.004624   0.000503
   57  O  8  Y    0.001040   0.017385   0.005901   0.034964  -0.000339
   58  O  8  Z   -0.019866  -0.030004  -0.010297  -0.040415   0.006398
   59  C  9  S   -0.116192  -0.017310  -0.104635   0.024037  -0.016693
   60  C  9  S    0.115068   0.019323   0.090739  -0.018764   0.012882
   61  C  9  X    0.028642  -0.090015  -0.042105  -0.129571  -0.012375
   62  C  9  Y   -0.083291   0.000141  -0.036866  -0.012459   0.007500
   63  C  9  Z   -0.013359   0.010794   0.018092  -0.016832   0.059969
   64  C  9  S    0.294873   0.039894   0.374732  -0.099383   0.072481
   65  C  9  X   -0.003313   0.008898   0.004856  -0.081795   0.020201
   66  C  9  Y   -0.032387   0.004858  -0.041668  -0.015911   0.013970
   67  C  9  Z   -0.006615  -0.011518  -0.005152  -0.015927   0.023905
   68  H 10  S    0.057656   0.012206   0.066687  -0.028582   0.039718
   69  H 10  S   -0.006882   0.007784   0.007922  -0.007309   0.025089
   70  O 11  S    0.071723   0.013226   0.045137  -0.003788   0.001959
   71  O 11  S   -0.062566  -0.013009  -0.038543   0.002493  -0.000676
   72  O 11  X    0.026333  -0.011058   0.019070  -0.078777  -0.026227
   73  O 11  Y   -0.050322  -0.007641  -0.056763   0.036777   0.012196
   74  O 11  Z    0.000480   0.002565   0.015477  -0.012191   0.024401
   75  O 11  S   -0.268588  -0.046596  -0.189899   0.024567  -0.016505
   76  O 11  X    0.023737  -0.011528   0.024978  -0.078914  -0.030740
   77  O 11  Y   -0.015899   0.000432  -0.035696   0.030483   0.016105
   78  O 11  Z   -0.006700   0.000917   0.008705  -0.006233   0.020214
   79  C 12  S   -0.148216   0.084599   0.064849   0.015991   0.037651
   80  C 12  S    0.150427  -0.077340  -0.056107  -0.015564  -0.032907
   81  C 12  X   -0.049032  -0.013819  -0.107460   0.082393   0.049760
   82  C 12  Y    0.010604   0.005214   0.042006  -0.062139  -0.004108
   83  C 12  Z    0.021547  -0.002288   0.027791  -0.042402   0.144293
   84  C 12  S    0.403649  -0.277264  -0.251449  -0.038960  -0.153281
   85  C 12  X   -0.018497   0.024012  -0.014185   0.052925   0.035638
   86  C 12  Y    0.001217  -0.008741   0.007210  -0.047628  -0.040371
   87  C 12  Z    0.010882  -0.001132   0.012069  -0.023096   0.127919
   88  O 13  S    0.045160  -0.024465  -0.005473  -0.038400  -0.035111
   89  O 13  S   -0.045260   0.025104   0.004330   0.043020   0.037039
   90  O 13  X   -0.092541   0.070140   0.051798   0.168306  -0.031789
   91  O 13  Y   -0.110796   0.100755   0.238035  -0.245934  -0.157521
   92  O 13  Z    0.009002   0.001433   0.041247  -0.140530   0.449397
   93  O 13  S   -0.188031   0.105472   0.036822   0.148278   0.148291
   94  O 13  X   -0.063563   0.057439   0.046634   0.158747  -0.038764
   95  O 13  Y   -0.086579   0.089509   0.224849  -0.238393  -0.154844
   96  O 13  Z    0.008853  -0.000573   0.037384  -0.134808   0.427354
   97  H 14  S    0.004965   0.033912  -0.046840  -0.047625  -0.007063
   98  H 14  S   -0.005249  -0.010239  -0.004583  -0.011492  -0.002468
   99  H 15  S   -0.009047  -0.047540   0.028120   0.002695  -0.004106
  100  H 15  S   -0.005693  -0.030522   0.024721   0.013795  -0.000207
  101  H 16  S   -0.029017  -0.046429  -0.008807  -0.040468   0.004614
  102  H 16  S   -0.015861  -0.030678  -0.011340  -0.029342   0.000885
  103  H 17  S   -0.049438  -0.004839  -0.035961   0.047630   0.015641
  104  H 17  S   -0.029334  -0.020259  -0.015630   0.021325   0.002720
  105  H 18  S    0.081217  -0.051422  -0.054704   0.009343   0.009310
  106  H 18  S   -0.011000  -0.006845  -0.015890   0.003130  -0.005631
  107  H 19  S    0.080531  -0.046806  -0.045690   0.006354  -0.101819
  108  H 19  S   -0.004960   0.003024  -0.005691   0.013555  -0.028332
  109  H 20  S   -0.055294   0.045203   0.101016  -0.109053  -0.108301
  110  H 20  S   -0.037867   0.015958   0.031997  -0.038945  -0.042821

                     21         22         23         24         25
                   -0.9898    -0.9558    -0.9399    -0.8979    -0.8659
                     A          A          A          A          A   
    1  O  1  S    0.012529   0.053554  -0.037810   0.023224  -0.010970
    2  O  1  S   -0.012297  -0.054208   0.038446  -0.024471   0.011030
    3  O  1  X    0.008483   0.050158  -0.036336  -0.033697   0.044814
    4  O  1  Y   -0.008818  -0.059280   0.048648  -0.141022   0.124963
    5  O  1  Z    0.016905   0.035197  -0.020982   0.009383  -0.010774
    6  O  1  S   -0.048507  -0.202422   0.143398  -0.077310   0.035823
    7  O  1  X    0.006538   0.042484  -0.031746  -0.027478   0.039535
    8  O  1  Y   -0.007299  -0.051918   0.042818  -0.132919   0.119348
    9  O  1  Z    0.014524   0.031379  -0.019161   0.012595  -0.012789
   10  C  2  S   -0.023601  -0.096264   0.066792  -0.057879   0.023360
   11  C  2  S    0.028623   0.108813  -0.074338   0.066883  -0.030427
   12  C  2  X    0.008156   0.016237  -0.000234  -0.100963   0.101413
   13  C  2  Y   -0.000139  -0.063248   0.059169  -0.142078   0.084510
   14  C  2  Z    0.020774   0.014797   0.001017  -0.029563   0.029215
   15  C  2  S    0.055045   0.291686  -0.213630   0.192522  -0.072230
   16  C  2  X    0.003145   0.051409  -0.037311  -0.028540   0.050912
   17  C  2  Y   -0.002813  -0.061229   0.050682  -0.150859   0.101734
   18  C  2  Z    0.015088   0.031397  -0.017697   0.010280  -0.000572
   19  C  3  S   -0.025473   0.051326  -0.055863   0.037619   0.000159
   20  C  3  S    0.020997  -0.048101   0.050021  -0.035237   0.002802
   21  C  3  X   -0.040812  -0.116686   0.062020   0.067229  -0.062033
   22  C  3  Y    0.018243  -0.029839   0.036627  -0.018372  -0.077615
   23  C  3  Z    0.057804  -0.066705   0.075913   0.011510  -0.040272
   24  C  3  S    0.116032  -0.192400   0.224285  -0.139674  -0.016980
   25  C  3  X   -0.005252  -0.057325   0.033101   0.050583  -0.051159
   26  C  3  Y   -0.001255   0.010968  -0.006068   0.017346  -0.056906
   27  C  3  Z    0.028755  -0.048001   0.048732   0.011221  -0.033550
   28  H  4  S    0.044186  -0.068009   0.075521  -0.016716  -0.015066
   29  H  4  S    0.020504  -0.028383   0.030207  -0.002865  -0.008258
   30  O  5  S    0.006517  -0.010353   0.013232  -0.029115   0.018549
   31  O  5  S   -0.005958   0.009155  -0.011764   0.026817  -0.016663
   32  O  5  X   -0.006931  -0.063523   0.068255   0.125593  -0.111814
   33  O  5  Y   -0.020514   0.064143  -0.069205   0.051994   0.060176
   34  O  5  Z    0.031967  -0.055736   0.062517   0.005325  -0.083995
   35  O  5  S   -0.028626   0.047020  -0.060464   0.121965  -0.075066
   36  O  5  X   -0.005939  -0.063700   0.070604   0.134277  -0.115555
   37  O  5  Y   -0.015871   0.062715  -0.065421   0.054475   0.057362
   38  O  5  Z    0.028226  -0.054147   0.059487   0.002905  -0.080133
   39  C  6  S    0.077762   0.001301   0.020033  -0.006193  -0.012362
   40  C  6  S   -0.063684   0.004052  -0.017788   0.002801   0.010590
   41  C  6  X    0.059290   0.044308  -0.008211   0.026948  -0.065410
   42  C  6  Y    0.042542  -0.050052   0.033716   0.017015  -0.096623
   43  C  6  Z    0.105028  -0.081596   0.058691   0.063891   0.032064
   44  C  6  S   -0.345029  -0.006700  -0.093654   0.034004   0.057062
   45  C  6  X    0.013527   0.023312   0.001667   0.019712  -0.037043
   46  C  6  Y   -0.009502  -0.036892   0.017473   0.030916  -0.059185
   47  C  6  Z    0.060379  -0.057193   0.039109   0.046508   0.028372
   48  H  7  S   -0.106241   0.043158  -0.044532  -0.033907  -0.009445
   49  H  7  S   -0.037609   0.020343  -0.014180  -0.019973  -0.006687
   50  O  8  S   -0.008997  -0.001898   0.003599   0.012289   0.006919
   51  O  8  S    0.006950   0.001650  -0.003952  -0.013149  -0.006686
   52  O  8  X    0.027151   0.009039   0.021968   0.013056  -0.032605
   53  O  8  Y   -0.062178   0.002692  -0.021670   0.014466   0.100038
   54  O  8  Z    0.100272  -0.053575   0.053526   0.031915  -0.094589
   55  O  8  S    0.047403   0.008312  -0.009858  -0.044143  -0.031921
   56  O  8  X    0.025795   0.006799   0.024727   0.010786  -0.029355
   57  O  8  Y   -0.049496   0.003501  -0.018734   0.017248   0.097850
   58  O  8  Z    0.088608  -0.047695   0.047095   0.028275  -0.091674
   59  C  9  S   -0.091809  -0.006232   0.036800   0.008374   0.006709
   60  C  9  S    0.077106   0.003345  -0.033692  -0.004408  -0.006243
   61  C  9  X    0.002090   0.014330  -0.012783  -0.073502   0.048744
   62  C  9  Y    0.025761  -0.044789  -0.057238  -0.062847  -0.035371
   63  C  9  Z    0.108394  -0.053834  -0.010144   0.116134   0.179198
   64  C  9  S    0.398751   0.027105  -0.148025  -0.050412  -0.013009
   65  C  9  X   -0.027841  -0.000827  -0.036045  -0.063215   0.051701
   66  C  9  Y   -0.030957  -0.034359  -0.022538  -0.029218  -0.014446
   67  C  9  Z    0.065987  -0.060424  -0.013211   0.112686   0.151229
   68  H 10  S    0.118474  -0.026103  -0.031695   0.057298   0.102705
   69  H 10  S    0.044062  -0.007745  -0.002244   0.027645   0.059402
   70  O 11  S    0.020029  -0.007267  -0.010765   0.015144  -0.017529
   71  O 11  S   -0.018371   0.009055   0.009496  -0.014226   0.015581
   72  O 11  X    0.004857  -0.006462  -0.050359  -0.141848   0.003323
   73  O 11  Y   -0.050483   0.000780   0.080960   0.149327   0.141385
   74  O 11  Z    0.055529  -0.025152  -0.022781   0.034682   0.058424
   75  O 11  S   -0.088508   0.020831   0.052198  -0.054491   0.080496
   76  O 11  X   -0.000660  -0.009177  -0.054504  -0.143683   0.004856
   77  O 11  Y   -0.041667   0.005991   0.079153   0.141690   0.140574
   78  O 11  Z    0.050008  -0.021955  -0.017842   0.034714   0.054721
   79  C 12  S    0.033991  -0.020857  -0.057271  -0.012337  -0.009409
   80  C 12  S   -0.028285   0.021660   0.051586   0.009621   0.008741
   81  C 12  X   -0.018280  -0.107984  -0.082955   0.053090   0.034162
   82  C 12  Y   -0.006305  -0.110564  -0.179864  -0.063375  -0.101000
   83  C 12  Z    0.034030  -0.012720  -0.040670   0.036583   0.129052
   84  C 12  S   -0.144100   0.104691   0.273984   0.062675   0.035987
   85  C 12  X    0.040395  -0.028191  -0.043208   0.008163   0.016862
   86  C 12  Y   -0.021255  -0.086079  -0.117649  -0.044873  -0.086757
   87  C 12  Z    0.016241   0.014529   0.000551   0.034980   0.102765
   88  O 13  S   -0.030587  -0.025558  -0.002330   0.016851   0.013047
   89  O 13  S    0.036028   0.036047   0.011173  -0.020765  -0.012793
   90  O 13  X    0.248413   0.278716   0.169096  -0.135096  -0.009540
   91  O 13  Y   -0.131330   0.049494   0.165775   0.084729   0.051447
   92  O 13  Z   -0.181545   0.112465   0.131196  -0.058965  -0.113419
   93  O 13  S    0.118967   0.079242  -0.021484  -0.062546  -0.060880
   94  O 13  X    0.247420   0.297287   0.192163  -0.140503  -0.009652
   95  O 13  Y   -0.124694   0.058403   0.177209   0.087049   0.052687
   96  O 13  Z   -0.178349   0.115729   0.136167  -0.064701  -0.122344
   97  H 14  S    0.018399   0.106839  -0.083524   0.125986  -0.069724
   98  H 14  S    0.005320   0.035537  -0.032773   0.035932  -0.020014
   99  H 15  S   -0.012444   0.056557  -0.064001  -0.046162   0.089653
  100  H 15  S   -0.011946   0.019987  -0.030016  -0.028616   0.065531
  101  H 16  S    0.073500  -0.029288   0.036431   0.015022  -0.076289
  102  H 16  S    0.048251  -0.016268   0.026861   0.011229  -0.059479
  103  H 17  S   -0.025320   0.000561   0.052161   0.121891   0.042749
  104  H 17  S   -0.023510   0.005479   0.027480   0.090586   0.029245
  105  H 18  S   -0.012193   0.062243   0.120104   0.055616   0.101980
  106  H 18  S   -0.005493   0.016570   0.046103   0.026364   0.053537
  107  H 19  S   -0.043987   0.048291   0.095187  -0.014635  -0.071082
  108  H 19  S   -0.015353   0.030398   0.046947  -0.011554  -0.043482
  109  H 20  S   -0.059924  -0.006627   0.050180   0.047754   0.037984
  110  H 20  S   -0.024601   0.010814   0.039276   0.013650   0.036916

                     26         27         28         29         30
                   -0.8474    -0.8230    -0.8157    -0.7866    -0.7778
                     A          A          A          A          A   
    1  O  1  S    0.031883  -0.025447   0.025561  -0.017509  -0.057622
    2  O  1  S   -0.030132   0.023368  -0.023920   0.017026   0.054637
    3  O  1  X    0.149150  -0.085385   0.055566  -0.094706  -0.169793
    4  O  1  Y    0.048902   0.086238  -0.018384   0.004399   0.205225
    5  O  1  Z    0.053133  -0.041132   0.121862  -0.047410  -0.126953
    6  O  1  S   -0.137631   0.104740  -0.108158   0.071445   0.239888
    7  O  1  X    0.137990  -0.079659   0.046934  -0.090843  -0.170076
    8  O  1  Y    0.047108   0.087772  -0.017283   0.008711   0.203715
    9  O  1  Z    0.045027  -0.036280   0.123518  -0.046196  -0.127583
   10  C  2  S   -0.021712   0.009141  -0.017993   0.007564   0.015599
   11  C  2  S    0.029059  -0.019720   0.023496  -0.011605  -0.033663
   12  C  2  X    0.076487   0.031551  -0.042868  -0.002941   0.155904
   13  C  2  Y    0.149379  -0.101174   0.099741  -0.090219  -0.133530
   14  C  2  Z   -0.008478   0.062347   0.037125   0.021785   0.123962
   15  C  2  S    0.032075   0.005476   0.039903  -0.005226   0.021817
   16  C  2  X    0.067169  -0.009064   0.001651  -0.037785   0.042467
   17  C  2  Y    0.113907  -0.037569   0.055372  -0.060500  -0.031337
   18  C  2  Z    0.004259   0.016824   0.041503  -0.003450   0.039572
   19  C  3  S    0.003428   0.010032  -0.002191  -0.006751  -0.012780
   20  C  3  S   -0.000088  -0.005180   0.005248   0.007229   0.006884
   21  C  3  X   -0.077125   0.006654  -0.126490   0.016529  -0.106100
   22  C  3  Y    0.014103  -0.160189   0.074608   0.009385  -0.009331
   23  C  3  Z   -0.135679   0.102985   0.182276   0.021679   0.008144
   24  C  3  S   -0.041916  -0.055399   0.020491   0.026973   0.091013
   25  C  3  X   -0.056370  -0.029370  -0.090913  -0.011644  -0.044749
   26  C  3  Y    0.014547  -0.115539   0.064179   0.000993  -0.042078
   27  C  3  Z   -0.135470   0.092811   0.161487   0.016910   0.018382
   28  H  4  S   -0.079945   0.073284   0.102196   0.018431   0.011756
   29  H  4  S   -0.038286   0.048811   0.055486   0.012999  -0.001301
   30  O  5  S    0.032326  -0.000395   0.002606  -0.000892   0.004574
   31  O  5  S   -0.031670   0.002922  -0.002150   0.002300  -0.004291
   32  O  5  X   -0.039474  -0.150994  -0.049864  -0.038057   0.047759
   33  O  5  Y   -0.050917   0.194185   0.001469  -0.009191   0.002878
   34  O  5  Z   -0.098501  -0.085716   0.138237   0.017790  -0.005111
   35  O  5  S   -0.130002   0.004776  -0.012729  -0.001052  -0.021018
   36  O  5  X   -0.036809  -0.156275  -0.054353  -0.046930   0.071810
   37  O  5  Y   -0.048522   0.194416   0.002635  -0.011579  -0.004566
   38  O  5  Z   -0.100276  -0.086611   0.136088   0.019601  -0.002697
   39  C  6  S    0.000001  -0.021013   0.000384  -0.018536   0.036865
   40  C  6  S    0.001062   0.015690  -0.000139   0.017104  -0.027547
   41  C  6  X    0.089407   0.044272   0.190874   0.034839   0.027672
   42  C  6  Y    0.128576   0.021457  -0.122401   0.051888   0.013943
   43  C  6  Z   -0.027015   0.135710  -0.007149  -0.056225  -0.120139
   44  C  6  S   -0.017378   0.077715  -0.001083   0.069137  -0.185407
   45  C  6  X    0.078836   0.025595   0.152338   0.020857  -0.003068
   46  C  6  Y    0.091930   0.039987  -0.090621   0.049176  -0.010644
   47  C  6  Z   -0.013614   0.157505  -0.007991  -0.021734  -0.176398
[...]
    3             0.064695   0.063922   0.035627   0.039611   0.037429
    4             0.015352   0.034248   0.006476   0.001237   0.028739
    5             0.119180   0.111753   0.293765   0.286549   0.289480
    6             0.027985   0.185844   0.031791   0.025185   0.005007
    7             0.004870   0.124882   0.003271   0.009617   0.001856
    8             0.125253   0.105912   0.282619   0.271707   0.317077
    9             0.070547   0.059896   0.033346   0.025563   0.036554
   10             0.020792   0.020431   0.009021   0.006550   0.022514
   11             0.253204   0.126243   0.142052   0.226926   0.157175
   12             0.041101   0.020001   0.001882   0.014845   0.016785
   13             0.011476   0.009090   0.000207   0.004273   0.003548
   14             0.017237   0.008081   0.002444   0.001403   0.003430
   15             0.001985   0.001876   0.024710   0.003401   0.010406
   16             0.006404   0.031812   0.014776   0.007487   0.000052
   17             0.005570   0.002951   0.001931   0.008903   0.001742
   18             0.007655   0.009274   0.001415   0.002026   0.000922
   19             0.010122   0.005957   0.000190   0.000106   0.000611
   20             0.002751   0.000810  -0.000010   0.003045   0.000533

                     36         37         38         39

                  1.000000   1.000000   1.000000   1.000000

    1             0.355269   0.035210   0.173858   0.486868
    2             0.388828   0.001643   0.063573   0.067159
    3             0.005017   0.007875   0.111458   0.151298
    4             0.001257   0.006788   0.079946   0.000408
    5             0.165536   0.018518   0.264362   0.035840
    6             0.003353   0.086233   0.099074   0.039129
    7             0.001951   0.029369   0.021442   0.000508
    8             0.053791   0.131893   0.132786   0.055835
    9             0.001031   0.097242   0.005678   0.028030
   10             0.001065   0.085798   0.000725   0.000749
   11             0.017936   0.464852   0.017055   0.016952
   12             0.001794   0.011179   0.008100   0.006626
   13             0.000183   0.003393   0.001720   0.003163
   14             0.000849   0.005452   0.016398   0.091498
   15             0.000554   0.000262   0.000964   0.014197
   16             0.000035   0.006643   0.000978   0.000310
   17             0.000797   0.000005   0.000704   0.000511
   18             0.000122   0.001875   0.000522   0.000260
   19             0.000085   0.005049   0.000073   0.000313
   20             0.000546   0.000723   0.000582   0.000345

     ATOMIC SPIN POPULATION (ALPHA MINUS BETA)
       ATOM         MULL.POP.                    LOW.POP.
    1 O             0.319241                     0.286514
    2 C            -0.365717                    -0.297655
    3 C             0.050570                     0.022189
    4 H            -0.011765                    -0.009706
    5 O            -0.002172                    -0.001916
    6 C            -0.011478                    -0.010612
    7 H             0.000795                     0.000640
    8 O             0.000929                     0.000727
    9 C             0.048325                     0.036387
   10 H            -0.001847                    -0.001692
   11 O            -0.003490                    -0.002869
   12 C            -0.134243                    -0.079798
   13 O             1.054008                     1.022244
   14 H             0.025313                     0.014505
   15 H            -0.001616                    -0.000978
   16 H             0.000005                     0.000001
   17 H            -0.000108                     0.000031
   18 H             0.009744                     0.006475
   19 H             0.071832                     0.054725
   20 H            -0.048326                    -0.039211


          ********* ALL ELECTRONS ********

               ----- POPULATIONS IN EACH AO -----
                             MULLIKEN      LOWDIN
              1  O  1  S      1.98713     1.98194
              2  O  1  S      0.43586     0.59295
              3  O  1  X      0.71198     0.70779
              4  O  1  Y      0.76496     0.76078
              5  O  1  Z      0.56742     0.55833
              6  O  1  S      1.55614     1.05602
              7  O  1  X      0.83834     0.86755
              8  O  1  Y      0.88209     0.91348
              9  O  1  Z      0.74372     0.75996
             10  C  2  S      1.98747     1.97713
             11  C  2  S      0.42211     0.44678
             12  C  2  X      0.52658     0.51039
             13  C  2  Y      0.60964     0.57580
             14  C  2  Z      0.39405     0.38297
             15  C  2  S      0.76186     0.56417
             16  C  2  X      0.22600     0.43542
             17  C  2  Y      0.39730     0.50524
             18  C  2  Z      0.34635     0.44093
             19  C  3  S      1.98996     1.97572
             20  C  3  S      0.35156     0.42812
             21  C  3  X      0.56037     0.54957
             22  C  3  Y      0.43342     0.42313
             23  C  3  Z      0.57036     0.54253
             24  C  3  S      1.04914     0.56470
             25  C  3  X      0.34848     0.52313
             26  C  3  Y      0.19791     0.40974
             27  C  3  Z      0.55186     0.57377
             28  H  4  S      0.46496     0.47638
             29  H  4  S      0.26037     0.41346
             30  O  5  S      1.98605     1.98001
             31  O  5  S      0.41003     0.56740
             32  O  5  X      0.70056     0.69659
             33  O  5  Y      0.59126     0.58381
             34  O  5  Z      0.79491     0.79900
             35  O  5  S      1.51650     1.03038
             36  O  5  X      0.92453     0.90612
             37  O  5  Y      0.79463     0.83633
             38  O  5  Z      0.98888     0.99125
             39  C  6  S      1.98980     1.97568
             40  C  6  S      0.35287     0.42510
             41  C  6  X      0.53414     0.52475
             42  C  6  Y      0.44283     0.42885
             43  C  6  Z      0.57121     0.54897
             44  C  6  S      1.01722     0.55859
             45  C  6  X      0.30151     0.50542
             46  C  6  Y      0.20409     0.41531
             47  C  6  Z      0.56490     0.56815
             48  H  7  S      0.46916     0.48239
             49  H  7  S      0.23721     0.40324
             50  O  8  S      1.98619     1.98062
             51  O  8  S      0.41794     0.57749
             52  O  8  X      0.82434     0.83238
             53  O  8  Y      0.60817     0.60275
             54  O  8  Z      0.63510     0.61879
             55  O  8  S      1.51987     1.04743
             56  O  8  X      1.03296     1.03260
             57  O  8  Y      0.81524     0.85671
             58  O  8  Z      0.79839     0.82014
             59  C  9  S      1.99004     1.97573
             60  C  9  S      0.35281     0.42488
             61  C  9  X      0.54443     0.53359
             62  C  9  Y      0.45371     0.44380
             63  C  9  Z      0.55438     0.52626
             64  C  9  S      1.02519     0.55844
             65  C  9  X      0.33964     0.51184
             66  C  9  Y      0.25033     0.42796
             67  C  9  Z      0.50257     0.55667
             68  H 10  S      0.46872     0.48315
             69  H 10  S      0.27045     0.42154
             70  O 11  S      1.98596     1.98006
             71  O 11  S      0.40811     0.56774
             72  O 11  X      0.70666     0.70604
             73  O 11  Y      0.58267     0.57349
             74  O 11  Z      0.79968     0.80740
             75  O 11  S      1.51890     1.04120
             76  O 11  X      0.94985     0.92600
             77  O 11  Y      0.76644     0.80978
             78  O 11  Z      1.01233     1.02706
             79  C 12  S      1.98876     1.97631
             80  C 12  S      0.36954     0.43780
             81  C 12  X      0.41875     0.40987
             82  C 12  Y      0.54921     0.52745
             83  C 12  Z      0.60360     0.57359
             84  C 12  S      1.06430     0.58251
             85  C 12  X      0.17689     0.39141
             86  C 12  Y      0.42049     0.50975
             87  C 12  Z      0.61269     0.60355
             88  O 13  S      1.98693     1.98192
             89  O 13  S      0.45226     0.60561
             90  O 13  X      0.76052     0.75767
             91  O 13  Y      0.69597     0.67769
             92  O 13  Z      0.55885     0.55684
             93  O 13  S      1.52104     1.04647
             94  O 13  X      0.86953     0.86610
             95  O 13  Y      0.79188     0.77570
             96  O 13  Z      0.56630     0.57151
             97  H 14  S      0.46850     0.46656
             98  H 14  S      0.24610     0.42211
             99  H 15  S      0.37137     0.39023
            100  H 15  S      0.17849     0.31546
            101  H 16  S      0.40822     0.42289
            102  H 16  S      0.20271     0.31735
            103  H 17  S      0.35022     0.36869
            104  H 17  S      0.16628     0.32671
            105  H 18  S      0.46081     0.46170
            106  H 18  S      0.19640     0.38407
            107  H 19  S      0.44153     0.44083
            108  H 19  S      0.19006     0.37848
            109  H 20  S      0.35498     0.36812
            110  H 20  S      0.10609     0.26828

          ----- MULLIKEN ATOMIC OVERLAP POPULATIONS -----
          (OFF-DIAGONAL ELEMENTS NEED TO BE MULTIPLIED BY 2)

             1           2           3           4           5

    1    8.1106804
    2    0.4645662   4.8589152
    3   -0.0802585   0.1483324   5.6314452
    4    0.0007495  -0.0354972   0.3610082   0.4714821
    5   -0.0078032  -0.0305674   0.1997322  -0.0261792   8.3043448
    6    0.0002094  -0.0738581   0.1306463  -0.0587249  -0.0399276
    7    0.0004749  -0.0010576  -0.0481838   0.0029432   0.0026498
    8    0.0000053  -0.0004437  -0.0415245   0.0022535   0.0002004
    9   -0.0000259   0.0036398  -0.0811120  -0.0037730   0.0030839
   10    0.0000001  -0.0000331  -0.0037441   0.0018980   0.0000725
   11   -0.0000000  -0.0000547   0.0009974  -0.0000631  -0.0125490
   12    0.0000000  -0.0000568   0.0040625  -0.0000979  -0.0000333
   13   -0.0000000   0.0000000  -0.0000097   0.0000000  -0.0000000
   14   -0.0402140   0.3441722  -0.0887741   0.0027527   0.0012495
   15    0.0392556  -0.0071462  -0.0714718   0.0033507   0.2521228
   16   -0.0000007  -0.0001866  -0.0000282   0.0027672  -0.0000008
   17   -0.0000019   0.0006437  -0.0080287   0.0004627   0.0609444
   18   -0.0000000   0.0000003   0.0000246   0.0000022   0.0000001
   19   -0.0000000  -0.0000022  -0.0000552  -0.0000001  -0.0000015
   20   -0.0000000   0.0000001  -0.0000111   0.0000004   0.0000052

             6           7           8           9          10

    6    5.4938055
    7    0.3726409   0.4434321
    8    0.2090286  -0.0237459   8.2518817
    9    0.1412720  -0.0533626  -0.0389616   5.4790700
   10   -0.0500537   0.0032956   0.0009226   0.3644373   0.5013783
   11   -0.0294636   0.0031192   0.0001953   0.2017398  -0.0283665
   12   -0.0634537  -0.0046508   0.0028886   0.1631230  -0.0578795
   13    0.0012903  -0.0000149   0.0000006  -0.0294309  -0.0009599
   14    0.0030650   0.0008409   0.0077037   0.0000029   0.0000035
   15    0.0045103   0.0003845  -0.0000174  -0.0003666   0.0000031
   16   -0.0574883   0.0044035   0.2638357  -0.0047116   0.0033086
   17   -0.0049633   0.0003660   0.0000344  -0.0453644   0.0003019
   18    0.0013304   0.0001808   0.0040637  -0.0397613   0.0015338
   19   -0.0021904   0.0026478  -0.0001265  -0.0350659   0.0027407
   20    0.0008911   0.0000049  -0.0000041  -0.0113261   0.0003106

            11          12          13          14          15

   11    8.3739856
   12   -0.0563623   5.4790284
   13   -0.0049119   0.0953720   7.9640234
   14   -0.0000001   0.0000010  -0.0000000   0.4823031
   15    0.0003683   0.0000030   0.0000000   0.0015867   0.3285047
   16    0.0000192  -0.0007427  -0.0000044  -0.0000840   0.0000018
   17    0.2380435   0.0040758   0.0000660  -0.0000165  -0.0012357
   18    0.0014751   0.3436784  -0.0185791  -0.0000007  -0.0000000
   19    0.0015991   0.3366303  -0.0160118   0.0000002   0.0000001
   20    0.0408315  -0.0413487   0.2124491  -0.0000000  -0.0000003

            16          17          18          19          20

   16    0.3990404
   17    0.0000148   0.2716390
   18    0.0007205  -0.0000611   0.3724854
   19    0.0000701  -0.0000160  -0.0125990   0.3542986
   20   -0.0000009  -0.0004013   0.0027146  -0.0003266   0.2572790

          TOTAL MULLIKEN AND LOWDIN ATOMIC POPULATIONS
       ATOM         MULL.POP.    CHARGE          LOW.POP.     CHARGE
    1 O             8.487637   -0.487637         8.198795   -0.198795
    2 C             5.671366    0.328634         5.838839    0.161161
    3 C             6.053047   -0.053047         5.990411    0.009589
    4 H             0.725335    0.274665         0.889846    0.110154
    5 O             8.707344   -0.707344         8.390889   -0.390889
    6 C             5.978566    0.021434         5.950822    0.049178
    7 H             0.706368    0.293632         0.885630    0.114370
    8 O             8.638190   -0.638190         8.368915   -0.368915
    9 C             6.013107   -0.013107         5.959167    0.040833
   10 H             0.739170    0.260830         0.904693    0.095307
   11 O             8.730603   -0.730603         8.438763   -0.438763
   12 C             6.204237   -0.204237         6.012230   -0.012230
   13 O             8.203279   -0.203279         7.839510    0.160490
   14 H             0.714592    0.285408         0.888671    0.111329
   15 H             0.549854    0.450146         0.705688    0.294312
   16 H             0.610934    0.389066         0.740242    0.259758
   17 H             0.516503    0.483497         0.695407    0.304593
   18 H             0.657209    0.342791         0.845769    0.154231
   19 H             0.631592    0.368408         0.819311    0.180689
   20 H             0.461067    0.538933         0.636404    0.363596

          -------------------------------
          BOND ORDER AND VALENCE ANALYSIS     BOND ORDER THRESHOLD=0.050
          -------------------------------

                   BOND                       BOND                       BOND
  ATOM PAIR DIST  ORDER      ATOM PAIR DIST  ORDER      ATOM PAIR DIST  ORDER
    1   2  1.237  1.748        1  15  1.938  0.076        2   3  1.516  0.852
    2  14  1.096  0.827        3   4  1.100  0.867        3   5  1.453  0.848
    3   6  1.553  0.828        5  15  1.009  0.705        5  17  1.729  0.124
    6   7  1.093  0.869        6   8  1.457  0.873        6   9  1.529  0.848
    8  16  0.997  0.801        9  10  1.105  0.865        9  11  1.455  0.902
    9  12  1.532  0.859       11  17  1.010  0.637       11  20  2.009  0.080
   12  13  1.451  0.633       12  18  1.092  0.848       12  19  1.101  0.815
   13  20  1.002  0.625

                       TOTAL       BONDED        FREE
      ATOM            VALENCE     VALENCE     VALENCE
    1 O                 1.980       1.901       0.079
    2 C                 3.491       3.414       0.077
    3 C                 3.406       3.405       0.001
    4 H                 0.879       0.879       0.000
    5 O                 1.772       1.772       0.000
    6 C                 3.427       3.426       0.000
    7 H                 0.872       0.872       0.000
    8 O                 1.775       1.775       0.000
    9 C                 3.471       3.470       0.002
   10 H                 0.882       0.882       0.000
   11 O                 1.711       1.711       0.000
   12 C                 3.146       3.140       0.006
   13 O                 2.221       1.324       0.896
   14 H                 0.877       0.876       0.001
   15 H                 0.793       0.793       0.000
   16 H                 0.822       0.822       0.000
   17 H                 0.774       0.774      -0.000
   18 H                 0.855       0.854       0.000
   19 H                 0.835       0.830       0.005
   20 H                 0.709       0.706       0.003

          -----------------------------------------
          ATOMIC SPIN DENSITY AT THE NUCLEUS (A.U.)
          -----------------------------------------
                            SPIN DENS    ALPHA DENS     BETA DENS
    1  O            8.0     0.0710492     116.99049     116.91944
    2  C            6.0    -0.0683202      46.98185      47.05017
    3  C            6.0     0.0144545      47.07995      47.06550
    4  H            1.0    -0.0045709       0.17977       0.18434
    5  O            8.0    -0.0010356     116.70699     116.70803
    6  C            6.0    -0.0134360      47.05645      47.06988
    7  H            1.0     0.0003609       0.18446       0.18410
    8  O            8.0     0.0005254     116.78124     116.78071
    9  C            6.0     0.0199244      47.08072      47.06080
   10  H            1.0    -0.0012486       0.18305       0.18430
   11  O            8.0    -0.0045662     116.70572     116.71029
   12  C            6.0    -0.0399688      47.02165      47.06162
   13  O            8.0     0.2610617     117.09645     116.83539
   14  H            1.0     0.0075586       0.18523       0.17768
   15  H            1.0     0.0002617       0.14973       0.14947
   16  H            1.0    -0.0000041       0.16483       0.16483
   17  H            1.0    -0.0000140       0.14043       0.14045
   18  H            1.0     0.0032608       0.18109       0.17783
   19  H            1.0     0.0291648       0.18580       0.15664
   20  H            1.0    -0.0236266       0.13040       0.15403

          ---------------------
          ELECTROSTATIC MOMENTS
          ---------------------

 POINT   1           X           Y           Z (BOHR)    CHARGE
                 0.212621   -0.055603   -0.195269        1.00 (A.U.)
         DX          DY          DZ         /D/  (DEBYE)
     8.723583   -1.902086    1.223029    9.011917
 ...... END OF PROPERTY EVALUATION ......
 CPU     0: STEP CPU TIME=     0.05 TOTAL CPU TIME=          7.3 (      0.1 MIN)
 TOTAL WALL CLOCK TIME=         10.8 SECONDS, CPU UTILIZATION IS    67.90%
               580000  WORDS OF DYNAMIC MEMORY USED
 EXECUTION OF GAMESS TERMINATED NORMALLY Fri May 22 16:38:26 2020
 DDI: 263640 bytes (0.3 MB / 0 MWords) used by master data server.
Note: The following floating-point exceptions are signalling: IEEE_DENORMALNote: The following floating-point exceptions are signalling: IEEE_DENORMALNote: The following floating-point exceptions are signalling: IEEE_DENORMALNote: The following floating-point exceptions are signalling: IEEE_DENORMALNote: The following floating-point exceptions are signalling:
Note: The following floating-point exceptions are signalling: IEEE_DENORMAL
 ----------------------------------------
 CPU timing information for all processes
 ========================================
 0: 7.89 + 0.247 = 7.337
 1: 6.785 + 0.47 = 6.833
 2: 6.885 + 0.56 = 6.941
 3: 6.879 + 0.35 = 6.914
 4: 6.904 + 0.71 = 6.976
 5: 7.44 + 0.31 = 7.76
 6: 7.40 + 0.47 = 7.88
 7: 6.940 + 0.47 = 6.988
 ----------------------------------------



 IEEE_DENORMAL

Note: The following floating-point exceptions are signalling: IEEE_DENORMALNote: The following floating-point exceptions are signalling:
 IEEE_DENORMAL
 ddikick.x: exited gracefully.
unset echo
----- accounting info -----
Files used on the master node pietdev were:
-rwxr-xr-x 1 piet piet     1253 mei 22 16:38 /home/piet/scr/d-ribose_fukui_base.F05*
-rw-r--r-- 1 piet piet 68812800 mei 22 16:38 /home/piet/scr/d-ribose_fukui_base.F10
ls: No match.
ls: No match.
ls: No match.
vr 22 mei 2020 16:38:29 CEST
0.112u 0.020s 0:13.94 0.9%	0+0k 0+8io 0pf+0w
