----- GAMESS execution script 'rungms' -----
This job is running on host pietdev
under operating system Linux at vr 22 mei 2020 16:38:15 CEST
Available scratch disk space (Kbyte units) at beginning of the job is
Filesystem     1K-blocks     Used Available Use% Mounted on
/dev/sda2      244568380 31372904 200702420  14% /
GAMESS temporary binary files will be written to /home/piet/scr
GAMESS supplementary output files will be written to /home/piet/gamess/scr
Copying input file d-ribose_fukui_acid.inp to your run's scratch directory...
cp d-ribose_fukui_acid.inp /home/piet/scr/d-ribose_fukui_acid.F05
unset echo
 
Assuming a single but multicore node.
 
/home/piet/gamess/ddikick.x /home/piet/gamess/gamess.03.x d-ribose_fukui_acid -ddi 1 8 pietdev:cpus=8 -scr /home/piet/scr

 Distributed Data Interface kickoff program.
 Initiating 8 compute processes on 1 nodes to run the following command:
 /home/piet/gamess/gamess.03.x d-ribose_fukui_acid 

          ******************************************************
          *         GAMESS VERSION = 30 SEP 2019 (R2)          *
          *             FROM IOWA STATE UNIVERSITY             *
          * M.W.SCHMIDT, K.K.BALDRIDGE, J.A.BOATZ, S.T.ELBERT, *
          *   M.S.GORDON, J.H.JENSEN, S.KOSEKI, N.MATSUNAGA,   *
          *          K.A.NGUYEN, S.J.SU, T.L.WINDUS,           *
          *       TOGETHER WITH M.DUPUIS, J.A.MONTGOMERY       *
          *         J.COMPUT.CHEM.  14, 1347-1363(1993)        *
          **************** 64 BIT LINUX VERSION ****************

  SINCE 1993, STUDENTS AND POSTDOCS WORKING AT IOWA STATE UNIVERSITY
  AND ALSO IN THEIR VARIOUS JOBS AFTER LEAVING ISU HAVE MADE IMPORTANT
  CONTRIBUTIONS TO THE CODE:
     IVANA ADAMOVIC, CHRISTINE AIKENS, YURI ALEXEEV, POOJA ARORA,
     ANDREY ASADCHEV, ROB BELL, PRADIPTA BANDYOPADHYAY, JONATHAN BENTZ,
     COLLEEN BERTONI, BRETT BODE, KURT BRORSEN, CALEB CARLIN, GALINA CHABAN,
     WEI CHEN, CHEOL HO CHOI, PAUL DAY, ALBERT DEFUSCO, NUWAN DESILVA,
     TIM DUDLEY, DMITRI FEDOROV, ALEX FINDLATER, GRAHAM FLETCHER, 
     MARK FREITAG, KURT GLAESEMANN, EMILIE B GUIDEZ, ANASTASIA GUNINA, 
     DAN KEMP, SAROM SOK LEANG, GRANT MERRILL,
     NORIYUKI MINEZAWA, JONATHAN MULLIN,
     TAKESHI NAGATA, SEAN NEDD, HEATHER NETZLOFF, BOSILJKA NJEGIC, RYAN OLSON,
     MIKE PAK, BUU PHAM, DAVID POOLE,
     SPENCER PRUITT, LUKE ROSKOP, TOSAPORN SATTASATHUCHANA,
     JIM SHOEMAKER, LYUDMILA SLIPCHENKO,
     TONY SMITH, JIE SONG, TETSUYA TAKETSUGU, SIMON WEBB,
     JORGE LUIS GALVEZ VALLEJO, PENG XU, SOOHAENG YOO,
     FEDERICO ZAHARIEV

  ADDITIONAL CODE HAS BEEN PROVIDED BY COLLABORATORS IN OTHER GROUPS:
     IOWA STATE UNIVERSITY:
          JOE IVANIC, AARON WEST, LAIMUTIS BYTAUTAS, KLAUS RUEDENBERG
     UNIVERSITY OF TOKYO: KIMIHIKO HIRAO, TAKAHITO NAKAJIMA,
          TAKAO TSUNEDA, MUNEAKI KAMIYA, SUSUMU YANAGISAWA,
          KIYOSHI YAGI, MAHITO CHIBA, SEIKEN TOKURA, NAOAKI KAWAKAMI
     UNIVERSITY OF AARHUS: FRANK JENSEN
     UNIVERSITY OF IOWA: VISVALDAS KAIRYS, HUI LI
     NATIONAL INST. OF STANDARDS AND TECHNOLOGY: WALT STEVENS, DAVID GARMER
     UNIVERSITY OF PISA: BENEDETTA MENNUCCI, JACOPO TOMASI
     UNIVERSITY OF MEMPHIS: HENRY KURTZ, PRAKASHAN KORAMBATH
     UNIVERSITY OF ALBERTA: TOBY ZENG, MARIUSZ KLOBUKOWSKI
     UNIVERSITY OF NEW ENGLAND: MARK SPACKMAN
     MIE UNIVERSITY: HIROAKI UMEDA
     NAT. INST. OF ADVANCED INDUSTRIAL SCIENCE AND TECHNOLOGY: KAZUO KITAURA
     MICHIGAN STATE UNIVERSITY:
          KAROL KOWALSKI, MARTA WLOCH, JEFFREY GOUR, JESSE LUTZ,
          WEI LI, JUN SHEN, J. EMILIANO DEUSTUA, PIOTR PIECUCH
     UNIVERSITY OF MINNESOTA:
          ANDREW SAND, PRACHI SHARMA, YINAN SHU
     UNIVERSITY OF SILESIA: MONIKA MUSIAL, STANISLAW KUCHARSKI
     FACULTES UNIVERSITAIRES NOTRE-DAME DE LA PAIX:
          OLIVIER QUINET, BENOIT CHAMPAGNE
     UNIVERSITY OF CALIFORNIA - SANTA BARBARA: BERNARD KIRTMAN
     INSTITUTE FOR MOLECULAR SCIENCE:
          KAZUYA ISHIMURA, MICHIO KATOUDA, AND SHIGERU NAGASE
     UNIVERSITY OF NOTRE DAME: ANNA POMOGAEVA, DAN CHIPMAN
     KYUSHU UNIVERSITY:
          HARUYUKI NAKANO,
          FENG LONG GU, JACEK KORCHOWIEC, MARCIN MAKOWSKI, AND YURIKO AOKI,
          HIROTOSHI MORI AND EISAKU MIYOSHI
     PENNSYLVANIA STATE UNIVERSITY:
          TZVETELIN IORDANOV, CHET SWALINA, JONATHAN SKONE,
          SHARON HAMMES-SCHIFFER
     WASEDA UNIVERSITY:
          MASATO KOBAYASHI, TOMOKO AKAMA, TSUGUKI TOUMA,
          TAKESHI YOSHIKAWA, YASUHIRO IKABATA, JUNJI SEINO,
          YUYA NAKAJIMA, HIROMI NAKAI
     NANJING UNIVERSITY: SHUHUA LI
     UNIVERSITY OF NEBRASKA:
          PEIFENG SU, DEJUN SI, NANDUN THELLAMUREGE, YALI WANG, HUI LI
     UNIVERSITY OF ZURICH: ROBERTO PEVERATI, KIM BALDRIDGE
     N. COPERNICUS UNIVERSITY AND JACKSON STATE UNIVERSITY:
          MARIA BARYSZ
     UNIVERSITY OF COPENHAGEN: Jimmy Kromann, CASPER STEINMANN
     TOKYO INSTITUTE OF TECHNOLOGY: HIROYA NAKATA
     NAGOYA UNIVERSITY: YOSHIO NISHIMOTO, STEPHAN IRLE
     MOSCOW STATE UNIVERSITY: VLADIMIR MIRONOV
     A.N.NESMEYANOV INSTITUTE OF ORGANOELEMENT COMPOUNDS OF RUSSIAN ACADEMY OF SCIENCES:
          IGOR S. GERASIMOV
     JOHANNES KEPLER UNIVERSITY LINZ:
          CHRISTIAN FRIEDL


 PARALLEL VERSION RUNNING ON        8 PROCESSORS IN        1 NODES.

 EXECUTION OF GAMESS BEGUN Fri May 22 16:38:15 2020

            ECHO OF THE FIRST FEW INPUT CARDS -
 INPUT CARD> $BASIS GBASIS=N21 NGAUSS=3 $END                                                
 INPUT CARD> $CONTRL SCFTYP=UHF MAXIT=60 MULT=2 ICHARG=-1 $END                              
 INPUT CARD> $SYSTEM MEMDDI=1000 MWORDS=30 $END                                             
 INPUT CARD> $SCF DIRSCF=.TRUE. $END                                                        
 INPUT CARD> $STATPT OPTTOL=0.0001 NSTEP=999 $END                                           
 INPUT CARD> $DATA                                                                          
 INPUT CARD>                                                                                
 INPUT CARD>C1                                                                              
 INPUT CARD>O 8.0000000 -3.2619090791 0.4073462201 -0.6983425722                            
 INPUT CARD>C 6.0000000 -2.4975049918 -0.3687170729 -0.1121930616                           
 INPUT CARD>C 6.0000000 -1.1914535956 0.1426987428 0.4619871894                             
 INPUT CARD>H 1.0000000 -1.1653017061 -0.0316498378 1.5473655414                            
 INPUT CARD>O 8.0000000 -1.0923419593 1.5628692065 0.1695409674                             
 INPUT CARD>C 6.0000000 -0.0226750982 -0.6497363123 -0.1849830220                           
 INPUT CARD>H 1.0000000 -0.1286454357 -0.6262153308 -1.2726042359                           
 INPUT CARD>O 8.0000000 -0.1484188926 -2.0464771531 0.2111749881                            
 INPUT CARD>C 6.0000000 1.3304570036 -0.0345999699 0.1714310354                             
 INPUT CARD>H 1.0000000 1.4381225234 0.0039690201 1.2705053057                              
 INPUT CARD>O 8.0000000 1.4506885329 1.2852261766 -0.4293240310                             
 INPUT CARD>C 6.0000000 2.5127955978 -0.8115468600 -0.4162375238                            
 INPUT CARD>O 8.0000000 3.7131241725 -0.0320254794 -0.1773739192                            
 INPUT CARD>H 1.0000000 -2.6675463923 -1.4458663828 -0.0057003230                           
 INPUT CARD>H 1.0000000 -1.9255117788 1.7690435899 -0.3609894399                            
 INPUT CARD>H 1.0000000 0.1999011879 -2.1260141202 1.1424552720                             
 INPUT CARD>H 1.0000000 0.5730653025 1.7527865652 -0.2546888231                             
 INPUT CARD>H 1.0000000 2.6291137978 -1.7816063488 0.0704702424                             
 INPUT CARD>H 1.0000000 2.3169498826 -0.9696001752 -1.4884327531                            
 INPUT CARD>H 1.0000000 3.4218910285 0.8978153220 -0.4110611370                             
 INPUT CARD> $END                                                                           
   30000000 WORDS OF MEMORY AVAILABLE

     BASIS OPTIONS
     -------------
     GBASIS=N21          IGAUSS=       3      POLAR=NONE    
     NDFUNC=       0     NFFUNC=       0     DIFFSP=       F
     NPFUNC=       0      DIFFS=       F     BASNAM=        


     RUN TITLE
     ---------
                                                                                 

 THE POINT GROUP OF THE MOLECULE IS C1      
 THE ORDER OF THE PRINCIPAL AXIS IS     0

 ATOM      ATOMIC                      COORDINATES (BOHR)
           CHARGE         X                   Y                   Z
 O           8.0    -6.1641143564        0.7697727381       -1.3196761070
 C           6.0    -4.7196000875       -0.6967742348       -0.2120141441
 C           6.0    -2.2515208228        0.2696615227        0.8730291978
 H           1.0    -2.2021009176       -0.0598095210        2.9240968761
 O           8.0    -2.0642269880        2.9533945549        0.3203859721
 C           6.0    -0.0428497223       -1.2278235945       -0.3495672240
 H           1.0    -0.2431046230       -1.1833753845       -2.4048732967
 O           8.0    -0.2804710384       -3.8672810595        0.3990628630
 C           6.0     2.5141991752       -0.0653844623        0.3239576827
 H           1.0     2.7176575060        0.0075003604        2.4009068937
 O           8.0     2.7414038207        2.4287253060       -0.8113047785
 C           6.0     4.7484951430       -1.5336011916       -0.7865748658
 O           8.0     7.0167872444       -0.0605193807       -0.3351881047
 H           1.0    -5.0409317410       -2.7322912784       -0.0107720485
 H           1.0    -3.6386896481        3.3430076452       -0.6821711259
 H           1.0     0.3777584698       -4.0175841332        2.1589274173
 H           1.0     1.0829363948        3.3122863232       -0.4812920878
 H           1.0     4.9683046684       -3.3667478172        0.1331694484
 H           1.0     4.3784004054       -1.8322786488       -2.8127300545
 H           1.0     6.4664364037        1.6966249462       -0.7767929131

          INTERNUCLEAR DISTANCES (ANGS.)
          ------------------------------

                1 O          2 C          3 C          4 H          5 O     

   1 O       0.0000000    1.2369960 *  2.3881351 *  3.1034956    2.6068135 *
   2 C       1.2369960 *  0.0000000    1.5155855 *  2.1546495 *  2.4051783 *
   3 C       2.3881351 *  1.5155855 *  0.0000000    1.0996033 *  1.4533520 *
   4 H       3.1034956    2.1546495 *  1.0996033 *  0.0000000    2.1086049 *
   5 O       2.6068135 *  2.4051783 *  1.4533520 *  2.1086049 *  0.0000000  
   6 C       3.4458088    2.4917972 *  1.5532440 *  2.1653309 *  2.4830420 *
   7 H       3.3489352    2.6503500 *  2.1747638 *  3.0627429    2.7929527 *
   8 O       4.0672217    2.9047636 *  2.4378924 *  2.6227819 *  3.7309657  
   9 C       4.6948534    3.8529690    2.5447772 *  2.8499151 *  2.9020452 *
  10 H       5.1116898    4.1880680    2.7545631 *  2.6183464 *  3.1694704  
  11 O       4.8012103    4.2923574    3.0134232    3.5333934    2.6273045 *
  12 C       5.9086799    5.0390131    3.9247070    4.2417421    4.3563752  
  13 O       7.0082483    6.2200904    4.9491610    5.1743372    5.0750905  
  14 H       2.0657728 *  1.0956758 *  2.2183599 *  2.5823945 *  3.4006570  
  15 H       1.9375202 *  2.2269029 *  1.9649757 *  2.7317092 *  1.0090304 *
  16 H       4.6680383    3.4551752    2.7469916 *  2.5326060 *  4.0279418  
  17 H       4.0882841    3.7349009    2.4938994 *  3.0746598    1.7290520 *
  18 H       6.3314088    5.3208874    4.2956921    4.4318344    5.0044545  
  19 H       5.8003354    5.0432204    4.1653621    4.7140108    4.5591171  
  20 H       6.7079262    6.0607488    4.7555613    5.0736257    4.5997494  

                6 C          7 H          8 O          9 C         10 H     

   1 O       3.4458088    3.3489352    4.0672217    4.6948534    5.1116898  
   2 C       2.4917972 *  2.6503500 *  2.9047636 *  3.8529690    4.1880680  
   3 C       1.5532440 *  2.1747638 *  2.4378924 *  2.5447772 *  2.7545631 *
   4 H       2.1653309 *  3.0627429    2.6227819 *  2.8499151 *  2.6183464 *
   5 O       2.4830420 *  2.7929527 *  3.7309657    2.9020452 *  3.1694704  
   6 C       0.0000000    1.0930246 *  1.4572706 *  1.5285255 *  2.1632630 *
   7 H       1.0930246 *  0.0000000    2.0540534 *  2.1364050 *  3.0527529  
   8 O       1.4572706 *  2.0540534 *  0.0000000    2.4972592 *  2.8006470 *
   9 C       1.5285255 *  2.1364050 *  2.4972592 *  0.0000000    1.1050085 *
  10 H       2.1632630 *  3.0527529    2.8006470 *  1.1050085 *  0.0000000  
  11 O       2.4442960 *  2.6189742 *  3.7506840    1.4550956 *  2.1286610 *
  12 C       2.5511317 *  2.7829701 *  3.0001270    1.5319678 *  2.1598819 *
  13 O       3.7865315    4.0387851    4.3726995    2.4080644 *  2.6969024 *
  14 H       2.7679071 *  2.9534542 *  2.5988019 *  4.2434749    4.5373165  
  15 H       3.0825739    3.1300216    4.2477794    3.7600445    4.1341624  
  16 H       1.9977559 *  2.8617917 *  0.9974648 *  2.5680844 *  2.4670665 *
  17 H       2.4762637 *  2.6810818 *  3.8951217    1.9874534 *  2.4764701 *
  18 H       2.8945415 *  3.2778062    2.7936790 *  2.1791590 *  2.4590290 *
  19 H       2.6972466 *  2.4789981 *  3.1821964    2.1453534 *  3.0548181  
  20 H       3.7829966    3.9586911    4.6693842    2.3627932 *  2.7499026 *

               11 O         12 C         13 O         14 H         15 H     

   1 O       4.8012103    5.9086799    7.0082483    2.0657728 *  1.9375202 *
   2 C       4.2923574    5.0390131    6.2200904    1.0956758 *  2.2269029 *
   3 C       3.0134232    3.9247070    4.9491610    2.2183599 *  1.9649757 *
   4 H       3.5333934    4.2417421    5.1743372    2.5823945 *  2.7317092 *
   5 O       2.6273045 *  4.3563752    5.0750905    3.4006570    1.0090304 *
   6 C       2.4442960 *  2.5511317 *  3.7865315    2.7679071 *  3.0825739  
   7 H       2.6189742 *  2.7829701 *  4.0387851    2.9534542 *  3.1300216  
   8 O       3.7506840    3.0001270    4.3726995    2.5988019 *  4.2477794  
   9 C       1.4550956 *  1.5319678 *  2.4080644 *  4.2434749    3.7600445  
  10 H       2.1286610 *  2.1598819 *  2.6969024 *  4.5373165    4.1341624  
  11 O       0.0000000    2.3504680 *  2.6300657 *  4.9596555    3.4113747  
  12 C       2.3504680 *  0.0000000    1.4510335 *  5.2351547    5.1343034  
  13 O       2.6300657 *  1.4510335 *  0.0000000    6.5376888    5.9221432  
  14 H       4.9596555    5.2351547    6.5376888    0.0000000    3.3185075  
  15 H       3.4113747    5.1343034    5.9221432    3.3185075    0.0000000  
  16 H       3.9587270    3.0833144    4.2976125    3.1627706    4.6849974  
  17 H       1.0096201 *  3.2193878    3.6126862    4.5601469    2.5008902 *
  18 H       3.3232427    1.0915264 *  2.0730505 *  5.3078369    5.7911904  
  19 H       2.6374916 *  1.1013351 *  2.1324221 *  5.2221191    5.1739520  
  20 H       2.0089948 *  1.9360786 *  1.0020132 *  6.5374620    5.4181420  

               16 H         17 H         18 H         19 H         20 H     

   1 O       4.6680383    4.0882841    6.3314088    5.8003354    6.7079262  
   2 C       3.4551752    3.7349009    5.3208874    5.0432204    6.0607488  
   3 C       2.7469916 *  2.4938994 *  4.2956921    4.1653621    4.7555613  
   4 H       2.5326060 *  3.0746598    4.4318344    4.7140108    5.0736257  
   5 O       4.0279418    1.7290520 *  5.0044545    4.5591171    4.5997494  
   6 C       1.9977559 *  2.4762637 *  2.8945415 *  2.6972466 *  3.7829966  
   7 H       2.8617917 *  2.6810818 *  3.2778062    2.4789981 *  3.9586911  
   8 O       0.9974648 *  3.8951217    2.7936790 *  3.1821964    4.6693842  
   9 C       2.5680844 *  1.9874534 *  2.1791590 *  2.1453534 *  2.3627932 *
  10 H       2.4670665 *  2.4764701 *  2.4590290 *  3.0548181    2.7499026 *
  11 O       3.9587270    1.0096201 *  3.3232427    2.6374916 *  2.0089948 *
  12 C       3.0833144    3.2193878    1.0915264 *  1.1013351 *  1.9360786 *
  13 O       4.2976125    3.6126862    2.0730505 *  2.1324221 *  1.0020132 *
  14 H       3.1627706    4.5601469    5.3078369    5.2221191    6.5374620  
  15 H       4.6849974    2.5008902 *  5.7911904    5.1739520    5.4181420  
  16 H       0.0000000    4.1396084    2.6774694 *  3.5694201    4.6838207  
  17 H       4.1396084    0.0000000    4.1018285    3.4604403    2.9784620 *
  18 H       2.6774694 *  4.1018285    0.0000000    1.7852112 *  2.8354310 *
  19 H       3.5694201    3.4604403    1.7852112 *  0.0000000    2.4225741 *
  20 H       4.6838207    2.9784620 *  2.8354310 *  2.4225741 *  0.0000000  

  * ... LESS THAN  3.000


     ATOMIC BASIS SET
     ----------------
 THE CONTRACTED PRIMITIVE FUNCTIONS HAVE BEEN UNNORMALIZED
 THE CONTRACTED BASIS FUNCTIONS ARE NOW NORMALIZED TO UNITY

  SHELL TYPE  PRIMITIVE        EXPONENT          CONTRACTION COEFFICIENT(S)

 O         

      1   S       1           322.0370000    0.059239393389
      1   S       2            48.4308000    0.351499960776
      1   S       3            10.4206000    0.707657921031

      2   L       4             7.4029400   -0.404453583190    0.244586106967
      2   L       5             1.5762000    1.221561761397    0.853955373466

      3   L       6             0.3736840    1.000000000000    1.000000000000

 C         

      4   S       7           172.2560000    0.061766907377
      4   S       8            25.9109000    0.358794042852
      4   S       9             5.5333500    0.700713083689

      5   L      10             3.6649800   -0.395895162119    0.236459946619
      5   L      11             0.7705450    1.215834355681    0.860618805716

      6   L      12             0.1958570    1.000000000000    1.000000000000

 C         

      7   S      13           172.2560000    0.061766907377
      7   S      14            25.9109000    0.358794042852
      7   S      15             5.5333500    0.700713083689

      8   L      16             3.6649800   -0.395895162119    0.236459946619
      8   L      17             0.7705450    1.215834355681    0.860618805716

      9   L      18             0.1958570    1.000000000000    1.000000000000

 H         

     10   S      19             5.4471780    0.156284978695
     10   S      20             0.8245472    0.904690876670

     11   S      21             0.1831916    1.000000000000

 O         

     12   S      22           322.0370000    0.059239393389
     12   S      23            48.4308000    0.351499960776
     12   S      24            10.4206000    0.707657921031

     13   L      25             7.4029400   -0.404453583190    0.244586106967
     13   L      26             1.5762000    1.221561761397    0.853955373466

     14   L      27             0.3736840    1.000000000000    1.000000000000

 C         

     15   S      28           172.2560000    0.061766907377
     15   S      29            25.9109000    0.358794042852
     15   S      30             5.5333500    0.700713083689

     16   L      31             3.6649800   -0.395895162119    0.236459946619
     16   L      32             0.7705450    1.215834355681    0.860618805716

     17   L      33             0.1958570    1.000000000000    1.000000000000

 H         

     18   S      34             5.4471780    0.156284978695
     18   S      35             0.8245472    0.904690876670

     19   S      36             0.1831916    1.000000000000

 O         

     20   S      37           322.0370000    0.059239393389
     20   S      38            48.4308000    0.351499960776
     20   S      39            10.4206000    0.707657921031

     21   L      40             7.4029400   -0.404453583190    0.244586106967
     21   L      41             1.5762000    1.221561761397    0.853955373466

     22   L      42             0.3736840    1.000000000000    1.000000000000

 C         

     23   S      43           172.2560000    0.061766907377
     23   S      44            25.9109000    0.358794042852
     23   S      45             5.5333500    0.700713083689

     24   L      46             3.6649800   -0.395895162119    0.236459946619
     24   L      47             0.7705450    1.215834355681    0.860618805716

     25   L      48             0.1958570    1.000000000000    1.000000000000

 H         

     26   S      49             5.4471780    0.156284978695
     26   S      50             0.8245472    0.904690876670

     27   S      51             0.1831916    1.000000000000

 O         

     28   S      52           322.0370000    0.059239393389
     28   S      53            48.4308000    0.351499960776
     28   S      54            10.4206000    0.707657921031

     29   L      55             7.4029400   -0.404453583190    0.244586106967
     29   L      56             1.5762000    1.221561761397    0.853955373466

     30   L      57             0.3736840    1.000000000000    1.000000000000

 C         

     31   S      58           172.2560000    0.061766907377
     31   S      59            25.9109000    0.358794042852
     31   S      60             5.5333500    0.700713083689

     32   L      61             3.6649800   -0.395895162119    0.236459946619
     32   L      62             0.7705450    1.215834355681    0.860618805716

     33   L      63             0.1958570    1.000000000000    1.000000000000

 O         

     34   S      64           322.0370000    0.059239393389
     34   S      65            48.4308000    0.351499960776
     34   S      66            10.4206000    0.707657921031

     35   L      67             7.4029400   -0.404453583190    0.244586106967
     35   L      68             1.5762000    1.221561761397    0.853955373466

     36   L      69             0.3736840    1.000000000000    1.000000000000

 H         

     37   S      70             5.4471780    0.156284978695
     37   S      71             0.8245472    0.904690876670

     38   S      72             0.1831916    1.000000000000

 H         

     39   S      73             5.4471780    0.156284978695
     39   S      74             0.8245472    0.904690876670

     40   S      75             0.1831916    1.000000000000

 H         

     41   S      76             5.4471780    0.156284978695
     41   S      77             0.8245472    0.904690876670

     42   S      78             0.1831916    1.000000000000

 H         

     43   S      79             5.4471780    0.156284978695
     43   S      80             0.8245472    0.904690876670

     44   S      81             0.1831916    1.000000000000

 H         

     45   S      82             5.4471780    0.156284978695
     45   S      83             0.8245472    0.904690876670

     46   S      84             0.1831916    1.000000000000

 H         

     47   S      85             5.4471780    0.156284978695
     47   S      86             0.8245472    0.904690876670

     48   S      87             0.1831916    1.000000000000

 H         

     49   S      88             5.4471780    0.156284978695
     49   S      89             0.8245472    0.904690876670

     50   S      90             0.1831916    1.000000000000

 TOTAL NUMBER OF BASIS SET SHELLS             =   50
 NUMBER OF CARTESIAN GAUSSIAN BASIS FUNCTIONS =  110
 NUMBER OF ELECTRONS                          =   81
 CHARGE OF MOLECULE                           =   -1
 SPIN MULTIPLICITY                            =    2
 NUMBER OF OCCUPIED ORBITALS (ALPHA)          =   41
 NUMBER OF OCCUPIED ORBITALS (BETA )          =   40
 TOTAL NUMBER OF ATOMS                        =   20
 THE NUCLEAR REPULSION ENERGY IS      582.0031802219

     $CONTRL OPTIONS
     ---------------
 SCFTYP=UHF          RUNTYP=ENERGY       EXETYP=RUN     
 MPLEVL=       0     CITYP =NONE         CCTYP =NONE         VBTYP =NONE    
 DFTTYP=NONE         TDDFT =NONE    
 MULT  =       2     ICHARG=      -1     NZVAR =       0     COORD =UNIQUE  
 PP    =NONE         RELWFN=NONE         LOCAL =NONE         NUMGRD=       F
 ISPHER=      -1     NOSYM =       0     MAXIT =      60     UNITS =ANGS    
 PLTORB=       F     MOLPLT=       F     AIMPAC=       F     FRIEND=        
 NPRINT=       7     IREST =       0     GEOM  =INPUT   
 NORMF =       0     NORMP =       0     ITOL  =      20     ICUT  =       9
 INTTYP=BEST         GRDTYP=BEST         QMTTOL= 1.0E-06

     $SYSTEM OPTIONS
     ---------------
  REPLICATED MEMORY=    30000000 WORDS (ON EVERY NODE).
 DISTRIBUTED MEMDDI=        1000 MILLION WORDS IN AGGREGATE,
 MEMDDI DISTRIBUTED OVER   8 PROCESSORS IS   125000000 WORDS/PROCESSOR.
 TOTAL MEMORY REQUESTED ON EACH PROCESSOR=   155000000 WORDS.
 TIMLIM=      525600.00 MINUTES, OR     365.0 DAYS.
 PARALL= T  BALTYP=  DLB     KDIAG=    0  COREFL= F
 MXSEQ2=     300 MXSEQ3=     150  mem10=         0

          ----------------
          PROPERTIES INPUT
          ----------------

     MOMENTS            FIELD           POTENTIAL          DENSITY
 IEMOM =       1   IEFLD =       0   IEPOT =       0   IEDEN =       0
 WHERE =COMASS     WHERE =NUCLEI     WHERE =NUCLEI     WHERE =NUCLEI  
 OUTPUT=BOTH       OUTPUT=BOTH       OUTPUT=BOTH       OUTPUT=BOTH    
 IEMINT=       0   IEFINT=       0                     IEDINT=       0
                                                       MORB  =       0
          EXTRAPOLATION IN EFFECT
          SOSCF IN EFFECT
          DIIS or SOSCF will be reset if energy rises
 ORBITAL PRINTING OPTION: NPREO=     1   110     2     1

     -------------------------------
     INTEGRAL TRANSFORMATION OPTIONS
     -------------------------------
     NWORD  =            0
     CUTOFF = 1.0E-09     MPTRAN =       0
     DIRTRF =       T     AOINTS =DUP     

          ----------------------
          INTEGRAL INPUT OPTIONS
          ----------------------
 NOPK  =       1 NORDER=       0 SCHWRZ=       T

     ------------------------------------------
     THE POINT GROUP IS C1 , NAXIS= 0, ORDER= 1
     ------------------------------------------

     DIMENSIONS OF THE SYMMETRY SUBSPACES ARE
 A   =  110

 ..... DONE SETTING UP THE RUN .....
 CPU     0: STEP CPU TIME=     0.03 TOTAL CPU TIME=          0.0 (      0.0 MIN)
 TOTAL WALL CLOCK TIME=          0.0 SECONDS, CPU UTILIZATION IS    75.00%

          ********************
          1 ELECTRON INTEGRALS
          ********************
 ...... END OF ONE-ELECTRON INTEGRALS ......
 CPU     0: STEP CPU TIME=     0.01 TOTAL CPU TIME=          0.0 (      0.0 MIN)
 TOTAL WALL CLOCK TIME=          0.1 SECONDS, CPU UTILIZATION IS    66.67%

          -------------
          GUESS OPTIONS
          -------------
          GUESS =HUCKEL            NORB  =       0          NORDER=       0
          MIX   =       F          PRTMO =       F          PUNMO =       F
          TOLZ  = 1.0E-08          TOLE  = 1.0E-05
          SYMDEN=       F          PURIFY=       F

 INITIAL GUESS ORBITALS GENERATED BY HUCKEL   ROUTINE.
 HUCKEL GUESS REQUIRES    117020 WORDS.

 SYMMETRIES FOR INITIAL GUESS ORBITALS FOLLOW.  ALPHA SET(S).
    41 ORBITALS ARE OCCUPIED (   10 CORE ORBITALS).
    11=A       12=A       13=A       14=A       15=A       16=A       17=A   
    18=A       19=A       20=A       21=A       22=A       23=A       24=A   
    25=A       26=A       27=A       28=A       29=A       30=A       31=A   
    32=A       33=A       34=A       35=A       36=A       37=A       38=A   
    39=A       40=A       41=A       42=A       43=A       44=A       45=A   
    46=A       47=A       48=A       49=A       50=A       51=A   

 SYMMETRIES FOR INITIAL GUESS ORBITALS FOLLOW.   BETA SET(S).
    40 ORBITALS ARE OCCUPIED (   10 CORE ORBITALS).
    11=A       12=A       13=A       14=A       15=A       16=A       17=A   
    18=A       19=A       20=A       21=A       22=A       23=A       24=A   
    25=A       26=A       27=A       28=A       29=A       30=A       31=A   
    32=A       33=A       34=A       35=A       36=A       37=A       38=A   
    39=A       40=A       41=A       42=A       43=A       44=A       45=A   
    46=A       47=A       48=A       49=A       50=A   
 ...... END OF INITIAL ORBITAL SELECTION ......
 CPU     0: STEP CPU TIME=     0.03 TOTAL CPU TIME=          0.1 (      0.0 MIN)
 TOTAL WALL CLOCK TIME=          0.1 SECONDS, CPU UTILIZATION IS    58.33%

                    ----------------------
                    AO INTEGRAL TECHNOLOGY
                    ----------------------
     S,P,L SHELL ROTATED AXIS INTEGRALS, REPROGRAMMED BY
        KAZUYA ISHIMURA (IMS) AND JOSE SIERRA (SYNSTAR).
     S,P,D,L SHELL ROTATED AXIS INTEGRALS PROGRAMMED BY
        KAZUYA ISHIMURA (INSTITUTE FOR MOLECULAR SCIENCE).
     S,P,D,F,G SHELL TO TOTAL QUARTET ANGULAR MOMENTUM SUM 5,
        ERIC PROGRAM BY GRAHAM FLETCHER (ELORET AND NASA ADVANCED
        SUPERCOMPUTING DIVISION, AMES RESEARCH CENTER).
     S,P,D,F,G,L SHELL GENERAL RYS QUADRATURE PROGRAMMED BY
        MICHEL DUPUIS (PACIFIC NORTHWEST NATIONAL LABORATORY).

          --------------------
          2 ELECTRON INTEGRALS
          --------------------

 DIRECT SCF METHOD SKIPS INTEGRAL STORAGE ON DISK.
 DIRECT TRANSFORMATION SKIPS AO INTEGRAL STORAGE ON DISK.
  ...... END OF TWO-ELECTRON INTEGRALS .....
 CPU     0: STEP CPU TIME=     0.01 TOTAL CPU TIME=          0.1 (      0.0 MIN)
 TOTAL WALL CLOCK TIME=          0.1 SECONDS, CPU UTILIZATION IS    61.54%

          ---------------------------
                  UHF SCF CALCULATION
          ---------------------------

     NUCLEAR ENERGY =       582.0031802219
     MAXIT = 60     NPUNCH=  2     MULT=  2
     EXTRAP=T  DAMP=F  SHIFT=F  RSTRCT=F  DIIS=F  SOSCF=T
     DENSITY MATRIX CONV=  2.00E-05
     SOSCF WILL OPTIMIZE    2829 ALPHA AND    2800 BETA ROTATION ANGLES.
     SOGTOL= 2.500E-01
     MEMORY REQUIRED FOR UHF/ROHF ITERS=    209069 WORDS.

 DIRECT SCF CALCULATION, SCHWRZ=T   FDIFF=T
 SCHWARZ INEQUALITY OVERHEAD:      5623 INTEGRALS, T=        0.00

                                                                                NONZERO     BLOCKS
 ITER EX      TOTAL ENERGY        E CHANGE  DENSITY CHANGE    ORB. GRAD       INTEGRALS    SKIPPED
   1  0     -564.5996511213  -564.5996511213   0.860620698   0.000000000       10611789     385211
          ---------------START SECOND ORDER SCF---------------
   2  1     -566.0891857361    -1.4895346148   0.141836553   0.078957326       10590770     391471
   3  2     -566.1749058795    -0.0857201434   0.141939008   0.050225489       10479660     409569
   4  3     -566.2084928865    -0.0335870070   0.030148014   0.004192103       10338765     424653
   5  4     -566.2093240421    -0.0008311557   0.006790983   0.001920734       10045676     447478
   6  5     -566.2094443809    -0.0001203387   0.002534724   0.000922512        9705927     466487
   7  6     -566.2094609597    -0.0000165788   0.001629768   0.000258468        9312192     486913
   8  7     -566.2094639466    -0.0000029869   0.000975342   0.000155716        8876641     507248
   9  8     -566.2094648453    -0.0000008987   0.000340044   0.000061828        8570504     521408
  10  9     -566.2094650512    -0.0000002059   0.000105963   0.000022718        8199859     536556
  11 10     -566.2094650874    -0.0000000363   0.000079584   0.000010243        7807101     554420
  12 11     -566.2094650968    -0.0000000094   0.000050805   0.000004736        7484102     567422
  13 12     -566.2094650984    -0.0000000015   0.000025605   0.000001863        7082239     586569
  14 13     -566.2094650990    -0.0000000007   0.000008554   0.000001106        6731742     600690
  15 14     -566.2094651000    -0.0000000009   0.000002385   0.000000654        6295876     618038

          -----------------
          DENSITY CONVERGED
          -----------------
     TIME TO FORM FOCK OPERATORS=       1.5 SECONDS (       0.1 SEC/ITER)
     FOCK TIME ON FIRST ITERATION=       0.1, LAST ITERATION=       0.1
     TIME TO SOLVE SCF EQUATIONS=       0.1 SECONDS (       0.0 SEC/ITER)

 FINAL UHF ENERGY IS     -566.2094651000 AFTER  15 ITERATIONS

          --------------------
          SPIN SZ   =    0.500
          S-SQUARED =    0.761
          --------------------

  ----- ALPHA SET ----- 

          ------------
          EIGENVECTORS
          ------------

                      1          2          3          4          5
                  -20.3269   -20.3157   -20.3068   -20.2959   -20.1556
                     A          A          A          A          A   
    1  O  1  S   -0.000512  -0.000043  -0.000143  -0.000852   0.983467
    2  O  1  S   -0.000428  -0.000039  -0.000122  -0.000703   0.099832
    3  O  1  X   -0.000045   0.000016  -0.000018   0.000063   0.002985
    4  O  1  Y    0.000069  -0.000008  -0.000035   0.000288  -0.002300
    5  O  1  Z    0.000058  -0.000023   0.000025  -0.000025   0.002128
    6  O  1  S    0.001873   0.000234   0.000618   0.004559  -0.052688
    7  O  1  X    0.000573   0.000006   0.000315   0.000987  -0.010048
    8  O  1  Y   -0.000466   0.000019   0.000103  -0.001644   0.007715
    9  O  1  Z    0.000017   0.000126   0.000022   0.000792  -0.007168
   10  C  2  S    0.000096  -0.000010   0.000053   0.000192  -0.000006
   11  C  2  S    0.000587  -0.000143   0.000310   0.000393   0.000269
   12  C  2  X    0.000113  -0.000142   0.000042  -0.000553  -0.001680
   13  C  2  Y    0.000039   0.000026   0.000053  -0.000155   0.000695
   14  C  2  Z   -0.000101   0.000005   0.000027  -0.000246  -0.001112
   15  C  2  S   -0.002899  -0.000479  -0.001961  -0.007596   0.019980
   16  C  2  X   -0.000364  -0.000049  -0.001169  -0.001085  -0.008088
   17  C  2  Y   -0.002043  -0.000568  -0.001385  -0.008412   0.018797
   18  C  2  Z    0.001275  -0.000130   0.000118   0.002210  -0.008588
   19  C  3  S    0.000055  -0.000047   0.000021  -0.000988   0.000224
   20  C  3  S   -0.000287  -0.000292   0.000368  -0.004337   0.000841
   21  C  3  X   -0.000313   0.000169   0.000472   0.000246   0.000312
   22  C  3  Y    0.000374  -0.000001   0.000001   0.001265   0.000701
   23  C  3  Z    0.000611   0.000094   0.000358   0.000436  -0.000260
   24  C  3  S   -0.001955   0.002301   0.000169   0.022640  -0.004346
   25  C  3  X   -0.002625  -0.000145  -0.001894  -0.001566   0.004093
   26  C  3  Y    0.004425  -0.000611   0.000941   0.013170  -0.009197
   27  C  3  Z   -0.003409  -0.001242  -0.003060  -0.009155   0.005762
   28  H  4  S    0.000869   0.000012   0.000468  -0.000612  -0.000600
   29  H  4  S    0.000907   0.000289   0.001356   0.001293  -0.001795
   30  O  5  S    0.001322  -0.000081   0.019063   0.983408   0.000669
   31  O  5  S    0.000405  -0.000003   0.002789   0.098896  -0.000571
   32  O  5  X   -0.000225  -0.000034   0.000528  -0.001656  -0.000268
   33  O  5  Y    0.000097  -0.000028   0.000114  -0.002637   0.000285
   34  O  5  Z    0.000037  -0.000031  -0.000132  -0.000799  -0.000230
   35  O  5  S   -0.001838  -0.000097  -0.003150  -0.048474   0.003877
   36  O  5  X    0.000978   0.000170  -0.002005   0.003655   0.000894
   37  O  5  Y    0.000327   0.000185  -0.000107   0.009444  -0.002838
   38  O  5  Z   -0.000074   0.000150   0.000597   0.001162   0.001144
   39  C  6  S   -0.000918  -0.000137   0.000196   0.000213  -0.000001
   40  C  6  S   -0.003975  -0.000874   0.000582   0.000853  -0.000060
   41  C  6  X   -0.000096  -0.000538  -0.000507   0.000297   0.000167
   42  C  6  Y   -0.001216   0.000263  -0.000294   0.000009   0.000098
   43  C  6  Z   -0.000100   0.000113  -0.000418  -0.000707   0.000480
   44  C  6  S    0.021041   0.002873  -0.005912  -0.005129  -0.001359
   45  C  6  X    0.000094   0.004374  -0.002832   0.001607  -0.000997
   46  C  6  Y   -0.011778  -0.001352  -0.003923  -0.005574   0.000865
   47  C  6  Z    0.008162  -0.000715   0.003772   0.004656  -0.005385
   48  H  7  S   -0.000918  -0.000437   0.000951   0.001256  -0.000291
   49  H  7  S    0.000437  -0.000104   0.001431   0.001890  -0.003037
   50  O  8  S    0.983523  -0.003763  -0.001549  -0.001212   0.000424
   51  O  8  S    0.098055  -0.000142   0.000042   0.000127  -0.000304
   52  O  8  X    0.001282   0.000009  -0.000219   0.000254   0.000058
   53  O  8  Y    0.003187   0.000014  -0.000075  -0.000097  -0.000068
   54  O  8  Z    0.001539  -0.000058   0.000057  -0.000065   0.000017
   55  O  8  S   -0.046139  -0.000934  -0.001375  -0.001837   0.001324
   56  O  8  X   -0.002692  -0.000418   0.000817  -0.001059   0.000080
   57  O  8  Y   -0.010035  -0.000417  -0.000182  -0.000314   0.000666
   58  O  8  Z   -0.001842   0.000360  -0.000240   0.000221   0.000087
   59  C  9  S    0.000170   0.000258  -0.000950   0.000026  -0.000057
   60  C  9  S    0.000546   0.001037  -0.004180   0.000276  -0.000368
   61  C  9  X    0.000425  -0.000727   0.000139  -0.000304   0.000021
   62  C  9  Y   -0.000018   0.000125   0.001517  -0.000112   0.000030
   63  C  9  Z    0.000535  -0.000079   0.000045   0.000513  -0.000084
   64  C  9  S   -0.004456  -0.008448   0.021894   0.000328   0.002078
   65  C  9  X    0.001722  -0.001686  -0.000338   0.000815  -0.001100
   66  C  9  Y    0.005534   0.001841   0.008890   0.000330  -0.001244
   67  C  9  Z   -0.003820   0.002396  -0.009436  -0.003967   0.001382
   68  H 10  S    0.001271   0.000459  -0.000820   0.000713  -0.000264
   69  H 10  S    0.000454  -0.000792   0.000539   0.001213  -0.000712
   70  O 11  S    0.001626   0.009687   0.983313  -0.018858   0.000105
   71  O 11  S    0.000397   0.001241   0.098466  -0.000929  -0.000072
   72  O 11  X    0.000264   0.000511  -0.002327  -0.000084  -0.000035
   73  O 11  Y    0.000066  -0.000161  -0.001779   0.000319   0.000046
   74  O 11  Z    0.000085  -0.000104   0.001865  -0.000049  -0.000002
   75  O 11  S   -0.002070  -0.000323  -0.047027  -0.002800   0.000400
   76  O 11  X   -0.000967  -0.002051   0.005393   0.000859   0.000200
   77  O 11  Y    0.000520   0.000177   0.006706  -0.000767  -0.000306
   78  O 11  Z   -0.000489   0.000401  -0.004889   0.000055   0.000025
   79  C 12  S    0.000000  -0.000830   0.000178   0.000064   0.000014
   80  C 12  S    0.000136  -0.003260   0.000473   0.000416   0.000080
   81  C 12  X   -0.000215   0.001432   0.000597  -0.000088   0.000006
   82  C 12  Y    0.000113   0.000873  -0.000596   0.000056  -0.000011
   83  C 12  Z   -0.000262   0.000156  -0.000378  -0.000155   0.000000
   84  C 12  S    0.000721   0.019577  -0.005859  -0.001901  -0.000288
   85  C 12  X    0.000504   0.005835   0.001359   0.001379   0.000061
   86  C 12  Y   -0.000861   0.007341  -0.003416  -0.001136   0.000384
   87  C 12  Z    0.002635   0.002620   0.001979   0.001181  -0.000310
   88  O 13  S    0.003798   0.983421  -0.009654   0.000260   0.000037
   89  O 13  S    0.000556   0.097771  -0.000667  -0.000005  -0.000019
   90  O 13  X   -0.000080  -0.003600   0.000024   0.000005   0.000025
   91  O 13  Y   -0.000059   0.000547   0.000125  -0.000070   0.000003
   92  O 13  Z    0.000132  -0.001211   0.000204   0.000049  -0.000026
   93  O 13  S   -0.000702  -0.044265  -0.000040   0.000087   0.000007
   94  O 13  X    0.000373   0.009661  -0.000377  -0.000103  -0.000084
   95  O 13  Y    0.000343   0.000323  -0.000701   0.000343  -0.000024
   96  O 13  Z   -0.000567   0.002734  -0.000775  -0.000244   0.000108
   97  H 14  S   -0.000456  -0.000070  -0.000004  -0.000743   0.000641
   98  H 14  S    0.000137  -0.000185  -0.000672  -0.002312   0.004936
   99  H 15  S    0.000213   0.000041   0.000067   0.003021  -0.000735
  100  H 15  S    0.000005   0.000032  -0.000632   0.005656   0.002855
  101  H 16  S    0.002832  -0.000145  -0.000341  -0.000198   0.000002
  102  H 16  S    0.005108   0.000165   0.000758   0.000250   0.000143
  103  H 17  S   -0.000506  -0.000555   0.002601  -0.000435  -0.000014
  104  H 17  S    0.000315  -0.000458   0.007590   0.004177   0.000328
  105  H 18  S   -0.000442  -0.001233  -0.000327  -0.000024   0.000070
  106  H 18  S   -0.000704  -0.000796  -0.000215  -0.000694   0.000263
  107  H 19  S    0.000458  -0.001154   0.000710   0.000324  -0.000049
  108  H 19  S    0.000702  -0.001100   0.000839   0.000629   0.000072
  109  H 20  S   -0.000073   0.002972  -0.000714  -0.000090  -0.000015
  110  H 20  S   -0.000103   0.005810   0.002179  -0.000227   0.000086

                      6          7          8          9         10
                  -11.0992   -11.0974   -11.0823   -11.0519   -10.9502
                     A          A          A          A          A   
    1  O  1  S    0.000006  -0.000020  -0.000012   0.000051   0.000172
    2  O  1  S    0.000053  -0.000198  -0.000096   0.000135   0.001181
    3  O  1  X    0.000014   0.000075   0.000086  -0.000060  -0.000423
    4  O  1  Y    0.000000   0.000027  -0.000015   0.000321   0.000219
    5  O  1  Z    0.000013  -0.000076  -0.000100  -0.000073  -0.000126
    6  O  1  S   -0.000273   0.000909   0.000530  -0.002254  -0.002027
    7  O  1  X   -0.000116  -0.000372  -0.000127  -0.001942  -0.001798
    8  O  1  Y    0.000022  -0.000208   0.000012  -0.001356   0.003121
    9  O  1  Z   -0.000127   0.000367   0.000284  -0.000704  -0.002310
   10  C  2  S   -0.000231  -0.000957  -0.001392  -0.001346   0.986393
   11  C  2  S   -0.000276  -0.001341  -0.001262  -0.002536   0.096989
   12  C  2  X   -0.000093  -0.000323  -0.000922   0.000460   0.000566
   13  C  2  Y   -0.000023   0.000213   0.000077  -0.000247   0.000511
   14  C  2  Z   -0.000012  -0.000022  -0.000173   0.000064  -0.000369
   15  C  2  S    0.001409   0.004281   0.000664   0.025717  -0.052254
   16  C  2  X    0.000358   0.003507   0.000521   0.014252  -0.011543
   17  C  2  Y    0.000577  -0.000848  -0.000192   0.008580   0.004986
   18  C  2  Z    0.000452   0.000580   0.001036   0.004613  -0.005716
   19  C  3  S   -0.002145  -0.002722  -0.005869   0.988297   0.000925
   20  C  3  S   -0.001327  -0.000781  -0.003919   0.105188  -0.000581
   21  C  3  X   -0.000313  -0.000788   0.000627   0.000494   0.000467
   22  C  3  Y   -0.000079  -0.000129  -0.000251  -0.000312   0.000224
   23  C  3  Z    0.000054  -0.000074   0.000004  -0.000548   0.000068
   24  C  3  S    0.004628  -0.001100   0.025368  -0.095926   0.010504
   25  C  3  X    0.004041   0.001883   0.012386   0.001953  -0.010131
   26  C  3  Y   -0.000114   0.000491  -0.006241   0.007926  -0.004190
   27  C  3  Z   -0.000842   0.001564  -0.006221   0.009377  -0.000775
   28  H  4  S   -0.000379   0.000205  -0.001595   0.000773  -0.001330
   29  H  4  S    0.000143  -0.001787   0.000898   0.014171   0.001573
   30  O  5  S    0.000032   0.000030   0.000058  -0.000268  -0.000027
   31  O  5  S    0.000248   0.000274   0.000188  -0.001043  -0.000446
   32  O  5  X    0.000055   0.000084   0.000074  -0.000155   0.000045
   33  O  5  Y    0.000015   0.000095   0.000258  -0.000383   0.000468
   34  O  5  Z   -0.000011  -0.000108   0.000107   0.000184   0.000040
   35  O  5  S   -0.001143  -0.000825  -0.001974   0.010449   0.000753
   36  O  5  X   -0.000440  -0.000702  -0.001034   0.000174   0.000637
   37  O  5  Y    0.000433  -0.000241   0.000806  -0.004934  -0.001560
   38  O  5  Z   -0.000021   0.000278  -0.000137   0.000077   0.000068
   39  C  6  S   -0.009281  -0.012494   0.988075   0.004653   0.001146
   40  C  6  S   -0.001824  -0.004797   0.104965  -0.002752  -0.001388
   41  C  6  X   -0.001153  -0.000069   0.000362  -0.000479   0.001804
   42  C  6  Y    0.000362  -0.000007   0.000350   0.000059   0.000044
   43  C  6  Z    0.000379   0.000087   0.000530   0.000282   0.000351
   44  C  6  S   -0.000788   0.028974  -0.093803   0.025758   0.000702
   45  C  6  X    0.002565   0.017217  -0.001293  -0.012310  -0.010248
   46  C  6  Y   -0.003104   0.006239  -0.009471   0.008292  -0.001525
   47  C  6  Z   -0.002663   0.001478  -0.005238   0.003612  -0.002101
   48  H  7  S   -0.000048  -0.001981   0.001024  -0.001888  -0.001401
   49  H  7  S   -0.002343   0.000030   0.015134  -0.000513   0.000038
   50  O  8  S    0.000030   0.000034  -0.000249  -0.000018   0.000047
   51  O  8  S    0.000241  -0.000005  -0.000915  -0.000532   0.000366
   52  O  8  X    0.000066   0.000009   0.000035   0.000038  -0.000247
   53  O  8  Y    0.000084  -0.000305   0.000451  -0.000390   0.000068
   54  O  8  Z   -0.000091  -0.000086  -0.000106  -0.000234  -0.000149
   55  O  8  S   -0.000895  -0.001075   0.009439   0.000328  -0.001423
   56  O  8  X   -0.000564  -0.001293   0.000398   0.000638   0.001662
   57  O  8  Y   -0.000579  -0.000200   0.004246   0.000065  -0.000850
   58  O  8  Z    0.000705   0.000367  -0.000830   0.000841   0.000902
   59  C  9  S   -0.077356   0.985236   0.010625   0.002659   0.000553
   60  C  9  S   -0.010563   0.105244  -0.002014  -0.000222  -0.001435
   61  C  9  X   -0.000011  -0.000028  -0.000465   0.000998   0.000187
   62  C  9  Y    0.000023  -0.000504   0.000049  -0.000259  -0.000016
   63  C  9  Z    0.000071  -0.000639   0.000094  -0.000303  -0.000131
   64  C  9  S    0.028064  -0.096238   0.025156  -0.002311   0.008200
   65  C  9  X    0.011544   0.003028  -0.013303  -0.002081  -0.004807
   66  C  9  Y   -0.007543   0.008859  -0.006095   0.001579  -0.001517
   67  C  9  Z   -0.005035   0.008450  -0.002915   0.002247  -0.000339
   68  H 10  S   -0.001472   0.000822  -0.001516  -0.000123  -0.000589
   69  H 10  S   -0.000102   0.013400   0.000605  -0.001262  -0.000078
   70  O 11  S    0.000043  -0.000278   0.000021   0.000037   0.000025
   71  O 11  S   -0.000081  -0.001134  -0.000133   0.000401   0.000189
   72  O 11  X   -0.000316  -0.000083   0.000231  -0.000141  -0.000080
   73  O 11  Y    0.000652  -0.000274   0.000398   0.000023  -0.000003
   74  O 11  Z    0.000074   0.000389  -0.000004  -0.000001  -0.000024
   75  O 11  S   -0.001863   0.010895  -0.000953  -0.001121  -0.000757
   76  O 11  X    0.000721  -0.000334   0.000212   0.000844   0.000590
   77  O 11  Y   -0.000766  -0.005268  -0.000217  -0.000222   0.000291
   78  O 11  Z   -0.000498   0.000718  -0.000101  -0.000198  -0.000059
   79  C 12  S    0.984659   0.076254   0.010103   0.002066   0.000263
   80  C 12  S    0.101502   0.004625   0.000113  -0.000996  -0.000241
   81  C 12  X   -0.000581  -0.000759   0.000753   0.000331   0.000195
   82  C 12  Y    0.000095   0.000066   0.000131   0.000142   0.000004
   83  C 12  Z    0.000075   0.000348  -0.000096  -0.000026  -0.000041
   84  C 12  S   -0.081099   0.020914  -0.000372   0.004570   0.000413
   85  C 12  X    0.009725  -0.011467  -0.000315  -0.003506  -0.000446
   86  C 12  Y   -0.002791   0.008485  -0.001301   0.000201   0.000013
   87  C 12  Z   -0.002859   0.003617  -0.000276   0.000556   0.000135
   88  O 13  S   -0.000173   0.000045  -0.000044  -0.000014  -0.000013
   89  O 13  S   -0.000324   0.000175  -0.000444  -0.000153  -0.000140
   90  O 13  X   -0.000609   0.000161   0.000286  -0.000016   0.000077
   91  O 13  Y   -0.000186   0.000094   0.000020   0.000086   0.000005
   92  O 13  Z   -0.000168  -0.000093  -0.000117   0.000013  -0.000033
   93  O 13  S    0.007416  -0.001526   0.001132   0.000658   0.000347
   94  O 13  X   -0.002197   0.000945  -0.001324   0.000046  -0.000331
   95  O 13  Y   -0.001770  -0.000483  -0.000186  -0.000432  -0.000048
   96  O 13  Z    0.000043   0.000194   0.000389  -0.000109   0.000101
   97  H 14  S   -0.000024  -0.000607  -0.000333  -0.000896  -0.001213
   98  H 14  S    0.000123  -0.000115   0.000068   0.002964   0.013690
   99  H 15  S    0.000012   0.000102  -0.000165  -0.000803  -0.000389
  100  H 15  S   -0.000114  -0.000036   0.000060   0.002891   0.002066
  101  H 16  S    0.000244  -0.000437  -0.000702  -0.000644  -0.000051
  102  H 16  S   -0.001069   0.000760   0.003094  -0.000092  -0.000623
  103  H 17  S    0.000526  -0.000645  -0.000484  -0.000153   0.000161
  104  H 17  S    0.001194   0.003221   0.001243   0.001327   0.000202
  105  H 18  S    0.000249  -0.001369  -0.000134  -0.000463  -0.000063
  106  H 18  S    0.014954   0.002674  -0.000746  -0.000104  -0.000007
  107  H 19  S    0.000527  -0.001787  -0.000078  -0.000599  -0.000088
  108  H 19  S    0.014682   0.000905  -0.000758   0.000213   0.000135
  109  H 20  S   -0.000063  -0.000126  -0.000465   0.000089  -0.000099
  110  H 20  S    0.002424   0.001049   0.001439   0.000071   0.000285

                     11         12         13         14         15
                   -1.2320    -1.2135    -1.1957    -1.1788    -1.1142
                     A          A          A          A          A   
    1  O  1  S   -0.009549  -0.009847  -0.034932   0.048335  -0.208835
    2  O  1  S    0.009300   0.009389   0.033040  -0.045417   0.194814
    3  O  1  X    0.004572   0.004495   0.014887  -0.019503   0.064990
    4  O  1  Y   -0.002208  -0.002625  -0.008023   0.011886  -0.061115
    5  O  1  Z    0.002784   0.002702   0.009708  -0.012973   0.048555
    6  O  1  S    0.025463   0.027996   0.101657  -0.144471   0.664606
    7  O  1  X    0.003990   0.003695   0.015658  -0.020590   0.073184
    8  O  1  Y   -0.001265  -0.001814  -0.005008   0.008653  -0.062125
    9  O  1  Z    0.002650   0.003433   0.009160  -0.013211   0.053509
   10  C  2  S   -0.009532  -0.010359  -0.025242   0.033680  -0.106621
   11  C  2  S    0.010357   0.010332   0.026256  -0.034815   0.110541
   12  C  2  X    0.003036   0.002491  -0.002117   0.005604  -0.077426
   13  C  2  Y    0.005664   0.004694   0.021481  -0.026760   0.081898
   14  C  2  Z   -0.000871  -0.000891  -0.006097   0.009213  -0.060073
   15  C  2  S    0.012407   0.011557   0.032873  -0.041453   0.128380
   16  C  2  X    0.002406   0.004159   0.001615  -0.004499   0.025762
   17  C  2  Y    0.005784   0.002921   0.004733  -0.000693  -0.050544
   18  C  2  Z   -0.002502  -0.002951   0.000345  -0.000745   0.023990
   19  C  3  S   -0.025581  -0.023280  -0.045911   0.047579   0.005553
   20  C  3  S    0.028893   0.024767   0.046251  -0.049446  -0.010616
   21  C  3  X    0.007701   0.008334  -0.003982   0.006930  -0.022947
   22  C  3  Y    0.008777  -0.001921   0.048372  -0.043431  -0.031141
   23  C  3  Z   -0.008614  -0.007220  -0.013684   0.013699  -0.003106
   24  C  3  S    0.026930   0.037409   0.084416  -0.084730  -0.006624
   25  C  3  X   -0.001851  -0.000307   0.007904  -0.000898  -0.012881
   26  C  3  Y   -0.009202  -0.015517  -0.007704   0.007828   0.030189
   27  C  3  Z    0.014969   0.008288   0.001769   0.001180  -0.025831
   28  H  4  S    0.007122   0.006882   0.011606  -0.013308   0.000306
   29  H  4  S   -0.006375  -0.003669  -0.007272   0.004937   0.005826
   30  O  5  S   -0.052217  -0.030773  -0.145865   0.139515   0.078526
   31  O  5  S    0.046027   0.027715   0.132929  -0.128842  -0.069140
   32  O  5  X   -0.004579  -0.005829  -0.024090   0.032291   0.008002
   33  O  5  Y   -0.012770  -0.009064  -0.030989   0.030523   0.009521
   34  O  5  Z   -0.004966  -0.002418  -0.013299   0.011548   0.004662
   35  O  5  S    0.169583   0.099979   0.462283  -0.440740  -0.272840
   36  O  5  X   -0.004076  -0.009382  -0.026858   0.040786   0.010911
   37  O  5  Y   -0.018558  -0.011981  -0.043208   0.041982   0.023962
   38  O  5  Z   -0.006411  -0.001915  -0.015665   0.012526   0.005206
   39  C  6  S   -0.047381  -0.059776   0.009647  -0.002328   0.002155
   40  C  6  S    0.050272   0.061722  -0.011409   0.000703   0.000733
   41  C  6  X    0.009361  -0.009579  -0.002102   0.018490  -0.001381
   42  C  6  Y   -0.016638  -0.054251   0.039998   0.000088  -0.002087
   43  C  6  Z    0.013356   0.022700  -0.004902  -0.002098  -0.003580
   44  C  6  S    0.080695   0.107376  -0.019838   0.008191  -0.004821
   45  C  6  X   -0.006844   0.013417   0.010911  -0.008315   0.014434
   46  C  6  Y    0.028583   0.013931   0.009163   0.000160  -0.005759
   47  C  6  Z   -0.007864  -0.008379  -0.012202  -0.001210   0.021685
   48  H  7  S    0.014279   0.016197  -0.003056   0.000431   0.002469
   49  H  7  S   -0.005672  -0.007453  -0.002448  -0.000724   0.012429
   50  O  8  S   -0.093517  -0.182545   0.083635  -0.001837   0.001804
   51  O  8  S    0.085588   0.169412  -0.078113   0.001599  -0.001222
   52  O  8  X    0.012344   0.021726  -0.010910   0.002177  -0.000481
   53  O  8  Y    0.025618   0.044314  -0.016938   0.000080  -0.000139
   54  O  8  Z    0.015175   0.031128  -0.014915   0.000057  -0.000518
   55  O  8  S    0.299166   0.575141  -0.260953   0.005436  -0.008495
   56  O  8  X    0.016639   0.028478  -0.014405  -0.000119  -0.003500
   57  O  8  Y    0.036847   0.064266  -0.026054   0.000338  -0.001691
   58  O  8  Z    0.015171   0.034686  -0.016989   0.001403  -0.001614
   59  C  9  S   -0.065695   0.007955  -0.020032  -0.042914  -0.003514
   60  C  9  S    0.067604  -0.007273   0.023211   0.044514   0.005709
   61  C  9  X    0.005666  -0.025280  -0.008343  -0.004696   0.001612
   62  C  9  Y    0.028761  -0.018265   0.036403   0.046592   0.004728
   63  C  9  Z   -0.024510   0.006235  -0.010949  -0.019475  -0.001853
   64  C  9  S    0.115222  -0.026316   0.026839   0.087015  -0.003482
   65  C  9  X    0.007906   0.000753  -0.006664  -0.002684   0.009335
   66  C  9  Y   -0.016966  -0.013362   0.000449  -0.010133   0.005749
   67  C  9  Z    0.013341   0.015136   0.007899  -0.001078  -0.006198
   68  H 10  S    0.018269  -0.002870   0.005604   0.012211   0.001968
   69  H 10  S   -0.009131  -0.003196  -0.005115  -0.004515   0.002657
   70  O 11  S   -0.132683   0.038914  -0.094705  -0.143517  -0.013977
   71  O 11  S    0.120758  -0.036448   0.086879   0.131151   0.012627
   72  O 11  X   -0.026522   0.002603  -0.028101  -0.031102  -0.000399
   73  O 11  Y   -0.024490   0.006965  -0.008039  -0.019265  -0.002945
   74  O 11  Z    0.020727  -0.005848   0.014344   0.020705   0.001695
   75  O 11  S    0.418382  -0.116027   0.300412   0.461447   0.046481
   76  O 11  X   -0.029796   0.003948  -0.034957  -0.042087  -0.003576
   77  O 11  Y   -0.033020   0.006562  -0.018712  -0.026137  -0.000938
   78  O 11  Z    0.028655  -0.006060   0.020092   0.029988   0.002295
   79  C 12  S   -0.054640   0.038230   0.032626   0.020623   0.000008
   80  C 12  S    0.058488  -0.040817  -0.035277  -0.021801   0.000307
   81  C 12  X    0.018125  -0.030041  -0.033657  -0.035374  -0.002329
   82  C 12  Y    0.034542  -0.026855  -0.017016  -0.009804   0.000408
   83  C 12  Z    0.011422  -0.005803  -0.005363  -0.002554   0.000055
   84  C 12  S    0.086354  -0.067774  -0.053393  -0.043609  -0.001697
   85  C 12  X   -0.004523  -0.002451   0.002152   0.001307   0.000941
   86  C 12  Y    0.004643   0.002358   0.010998   0.009071  -0.001024
   87  C 12  Z   -0.012858  -0.004682  -0.002435  -0.006792   0.000104
   88  O 13  S   -0.122142   0.115099   0.110018   0.094376   0.003730
   89  O 13  S    0.112856  -0.106403  -0.100525  -0.086393  -0.003293
   90  O 13  X   -0.041548   0.035743   0.031013   0.024041   0.000433
   91  O 13  Y    0.010873  -0.010128  -0.008444  -0.006933  -0.000192
   92  O 13  Z   -0.012434   0.011508   0.010679   0.009042   0.000402
   93  O 13  S    0.379089  -0.359931  -0.352809  -0.304537  -0.012593
   94  O 13  X   -0.053518   0.047229   0.043418   0.033802   0.001261
   95  O 13  Y    0.009225  -0.010990  -0.008779  -0.008290  -0.000136
   96  O 13  Z   -0.014218   0.015583   0.015822   0.014161   0.000266
   97  H 14  S    0.002895   0.003135   0.005161  -0.007031   0.019676
   98  H 14  S    0.003302   0.004746  -0.004228   0.004492  -0.026716
   99  H 15  S    0.019374   0.012352   0.060180  -0.061276  -0.022133
  100  H 15  S    0.002948   0.001114   0.008095  -0.007190   0.002689
  101  H 16  S    0.043089   0.083482  -0.038571   0.001237  -0.000939
  102  H 16  S    0.005994   0.017349  -0.009958  -0.000977  -0.000580
  103  H 17  S    0.055876  -0.011719   0.049627   0.051196  -0.000025
  104  H 17  S    0.004904  -0.000800   0.014275  -0.003341  -0.008398
  105  H 18  S    0.017325  -0.010228  -0.009947  -0.005800  -0.000079
  106  H 18  S    0.001201   0.008728   0.002296   0.003556  -0.000775
  107  H 19  S    0.015784  -0.011526  -0.009588  -0.005790   0.000376
  108  H 19  S   -0.007630   0.001240   0.001272   0.000743  -0.000377
  109  H 20  S    0.057047  -0.051362  -0.045557  -0.037394  -0.001046
  110  H 20  S    0.011440  -0.008541  -0.002820   0.000496  -0.000179

                     16         17         18         19         20
                   -0.9026    -0.8307    -0.7294    -0.6727    -0.6098
                     A          A          A          A          A   
    1  O  1  S    0.011731   0.032355   0.045539   0.019808   0.048253
    2  O  1  S   -0.010349  -0.029393  -0.041453  -0.017859  -0.044176
    3  O  1  X    0.000864   0.007057   0.019636   0.010039   0.039572
    4  O  1  Y    0.000059  -0.002397  -0.008920  -0.005135  -0.018878
    5  O  1  Z   -0.000232   0.002747   0.014414   0.013338   0.020154
    6  O  1  S   -0.042392  -0.117077  -0.172609  -0.077743  -0.190991
    7  O  1  X    0.000565   0.002356   0.011703   0.007245   0.030955
    8  O  1  Y    0.002409   0.001520  -0.004458  -0.003206  -0.014425
    9  O  1  Z   -0.001533  -0.000158   0.008589   0.008966   0.016752
   10  C  2  S   -0.012678  -0.045593  -0.074457  -0.033790  -0.079219
   11  C  2  S    0.019073   0.052941   0.080550   0.036328   0.079746
   12  C  2  X    0.025513   0.065474   0.073930   0.021325   0.046947
   13  C  2  Y   -0.003911  -0.010593  -0.013363  -0.000373  -0.036204
   14  C  2  Z    0.008918   0.029166   0.049452   0.033415   0.019620
   15  C  2  S    0.007190   0.083561   0.177165   0.084980   0.247085
   16  C  2  X   -0.011278   0.005850   0.028814   0.008531   0.056881
   17  C  2  Y   -0.009117  -0.017609  -0.014887  -0.000712  -0.025312
   18  C  2  Z   -0.004471   0.004064   0.024206   0.021988   0.023528
   19  C  3  S   -0.055555  -0.121474  -0.099740  -0.044685   0.033775
   20  C  3  S    0.058696   0.114776   0.089451   0.039141  -0.029206
   21  C  3  X    0.033203   0.019014  -0.080588  -0.053017  -0.124953
   22  C  3  Y   -0.031021  -0.062715  -0.028634   0.013460  -0.039669
   23  C  3  Z   -0.010466  -0.013006   0.017381   0.052448  -0.074199
   24  C  3  S    0.122447   0.340153   0.328529   0.163964  -0.135836
   25  C  3  X   -0.017631   0.001586  -0.016687  -0.005058  -0.068947
   26  C  3  Y   -0.005998  -0.036868  -0.038140  -0.004060  -0.008335
   27  C  3  Z   -0.006935  -0.017053  -0.003828   0.017987  -0.043123
   28  H  4  S    0.030564   0.069800   0.072247   0.056290  -0.064345
   29  H  4  S    0.003293   0.008499   0.021624   0.034857  -0.042731
   30  O  5  S    0.028052   0.051753   0.030922   0.010532  -0.003634
   31  O  5  S   -0.024854  -0.045333  -0.027479  -0.009250   0.002906
   32  O  5  X    0.010335   0.029680  -0.003064  -0.022154  -0.121061
   33  O  5  Y   -0.026454  -0.059508  -0.057393  -0.035991   0.058624
   34  O  5  Z    0.009708   0.021384   0.028969   0.036241  -0.063348
   35  O  5  S   -0.104351  -0.202383  -0.126755  -0.046359   0.020681
   36  O  5  X    0.013260   0.028099  -0.006879  -0.023620  -0.127194
   37  O  5  Y   -0.013349  -0.034785  -0.042407  -0.029557   0.057981
   38  O  5  Z    0.008642   0.019555   0.025913   0.033600  -0.062291
   39  C  6  S   -0.110315  -0.089769   0.075893   0.091943  -0.006234
   40  C  6  S    0.112044   0.083346  -0.064399  -0.078716   0.007673
   41  C  6  X    0.042031  -0.082418  -0.097567   0.029954  -0.006309
   42  C  6  Y    0.056542   0.045911  -0.011664   0.039848  -0.076204
   43  C  6  Z    0.005057   0.011147   0.019628   0.097830  -0.110418
   44  C  6  S    0.271080   0.274972  -0.268402  -0.373001   0.038386
   45  C  6  X   -0.001125   0.019962  -0.024308  -0.006769  -0.005194
   46  C  6  Y    0.026077   0.029640  -0.022015  -0.016917  -0.051365
   47  C  6  Z    0.020397   0.017422   0.002970   0.055794  -0.074816
   48  H  7  S    0.060672   0.051298  -0.049526  -0.109958   0.065587
   49  H  7  S    0.002656   0.004997  -0.005262  -0.043763   0.038227
   50  O  8  S    0.061090   0.032562  -0.016855  -0.011499  -0.011606
   51  O  8  S   -0.054475  -0.027643   0.014762   0.010420   0.011301
   52  O  8  X    0.000705  -0.029956  -0.025136   0.014228  -0.028457
   53  O  8  Y    0.044162   0.048178  -0.040447  -0.075296   0.021105
   54  O  8  Z   -0.034882  -0.027986   0.035216   0.108943  -0.100197
   55  O  8  S   -0.230109  -0.132525   0.074905   0.052221   0.045246
   56  O  8  X   -0.001677  -0.032207  -0.021674   0.013624  -0.029156
   57  O  8  Y    0.019131   0.028658  -0.029501  -0.065495   0.018421
   58  O  8  Z   -0.031751  -0.024845   0.028764   0.098219  -0.091910
   59  C  9  S   -0.129948   0.050657   0.068583  -0.099789  -0.012279
   60  C  9  S    0.127117  -0.043374  -0.059550   0.083509   0.010141
   61  C  9  X   -0.017424  -0.091819   0.102962   0.058925   0.083087
   62  C  9  Y   -0.077442   0.035369   0.008251   0.041990   0.020744
   63  C  9  Z   -0.007571   0.012236  -0.026023   0.095767  -0.093860
   64  C  9  S    0.337978  -0.173136  -0.245700   0.412147   0.049418
   65  C  9  X   -0.003993   0.009544   0.027879   0.023932   0.077223
   66  C  9  Y   -0.037537   0.031531   0.024258  -0.009406   0.008099
   67  C  9  Z   -0.011719  -0.001799  -0.006248   0.053430  -0.073674
   68  H 10  S    0.068473  -0.026010  -0.050252   0.120674  -0.041869
   69  H 10  S    0.003452   0.003196  -0.015314   0.058497  -0.033670
   70  O 11  S    0.067980  -0.014160  -0.030356   0.022228  -0.010040
   71  O 11  S   -0.059718   0.010482   0.026342  -0.019836   0.010911
   72  O 11  X    0.019091  -0.024864   0.012802   0.069940   0.120612
   73  O 11  Y   -0.061521   0.027573   0.038781  -0.088299  -0.099354
   74  O 11  Z    0.005314  -0.002645  -0.018052   0.058657  -0.028586
   75  O 11  S   -0.257154   0.063530   0.128310  -0.100938   0.031452
   76  O 11  X    0.018447  -0.026537   0.006865   0.068704   0.124346
   77  O 11  Y   -0.029485   0.020134   0.031203  -0.077088  -0.094099
   78  O 11  Z   -0.000791  -0.001014  -0.014783   0.052127  -0.029922
   79  C 12  S   -0.091491   0.111702  -0.108976   0.055703   0.014689
   80  C 12  S    0.097306  -0.108405   0.100810  -0.048428  -0.011046
   81  C 12  X   -0.070812   0.048319   0.022559  -0.052133  -0.080443
   82  C 12  Y    0.000636   0.011603  -0.052293   0.080722   0.085593
   83  C 12  Z    0.016294  -0.009975  -0.023439   0.069128  -0.031580
   84  C 12  S    0.219960  -0.327955   0.378453  -0.227118  -0.075939
   85  C 12  X   -0.014405   0.039605  -0.024514   0.001801  -0.045685
   86  C 12  Y   -0.013615   0.005736  -0.016618   0.039478   0.057235
   87  C 12  Z    0.005207  -0.002818  -0.011408   0.033715  -0.035545
   88  O 13  S    0.043614  -0.047646   0.035774  -0.001911   0.015621
   89  O 13  S   -0.039325   0.043232  -0.031102   0.000370  -0.015612
   90  O 13  X   -0.023193   0.037778  -0.046113  -0.000741  -0.021796
   91  O 13  Y   -0.033811   0.051860  -0.086487   0.074060   0.101573
   92  O 13  Z    0.005263  -0.002565  -0.009191   0.025907  -0.018154
   93  O 13  S   -0.162044   0.184538  -0.152829   0.017289  -0.058146
   94  O 13  X   -0.007461   0.023609  -0.034555  -0.005615  -0.025454
   95  O 13  Y   -0.020507   0.039897  -0.076252   0.071100   0.096412
   96  O 13  Z    0.004629  -0.004023  -0.006839   0.024581  -0.016778
   97  H 14  S    0.008634   0.027710   0.048610   0.021833   0.069504
   98  H 14  S   -0.007278  -0.003954   0.012368   0.007630   0.035827
   99  H 15  S   -0.020637  -0.046707  -0.029714  -0.011063   0.081568
  100  H 15  S   -0.013947  -0.035231  -0.034939  -0.016990   0.036804
  101  H 16  S   -0.044917  -0.037924   0.025113   0.080838  -0.065159
  102  H 16  S   -0.031046  -0.028907   0.026369   0.060404  -0.049136
  103  H 17  S   -0.049281   0.021041   0.011849  -0.066964  -0.092840
  104  H 17  S   -0.039833  -0.003027   0.005891  -0.051151  -0.056491
  105  H 18  S    0.054223  -0.073177   0.091433  -0.061202  -0.066621
  106  H 18  S   -0.003823  -0.014213   0.035618  -0.030162  -0.041713
  107  H 19  S    0.052414  -0.065559   0.081839  -0.075134   0.010132
  108  H 19  S    0.003022  -0.005138   0.020942  -0.041539   0.006940
  109  H 20  S   -0.032924   0.042104  -0.054750   0.042583   0.065036
  110  H 20  S   -0.033848   0.030891  -0.032817   0.022121   0.043608

                     21         22         23         24         25
                   -0.5672    -0.5323    -0.5072    -0.4964    -0.4823
                     A          A          A          A          A   
    1  O  1  S    0.046770   0.036618   0.001795   0.011647  -0.007056
    2  O  1  S   -0.042818  -0.033004  -0.001770  -0.010528   0.005564
    3  O  1  X    0.035410   0.027982  -0.029079  -0.016251  -0.046846
    4  O  1  Y   -0.048142  -0.059748  -0.033079  -0.100491  -0.048156
    5  O  1  Z    0.023408   0.028460   0.019953   0.005378  -0.030689
    6  O  1  S   -0.184932  -0.147346  -0.003581  -0.041375   0.035838
    7  O  1  X    0.029507   0.025834  -0.027721  -0.015850  -0.044017
    8  O  1  Y   -0.044001  -0.056216  -0.033242  -0.100962  -0.049426
    9  O  1  Z    0.020994   0.025067   0.019552   0.006604  -0.027018
   10  C  2  S   -0.088955  -0.069083  -0.016785  -0.034650  -0.009533
   11  C  2  S    0.089452   0.071921   0.015331   0.037289   0.008051
   12  C  2  X    0.013513  -0.015703  -0.049635  -0.065579  -0.047025
   13  C  2  Y   -0.067365  -0.044608  -0.039690  -0.063912  -0.113712
   14  C  2  Z    0.009118   0.004464   0.030658  -0.038616  -0.027078
   15  C  2  S    0.288236   0.218989   0.068907   0.122588   0.051796
   16  C  2  X    0.048021   0.016890  -0.019991  -0.009293  -0.019680
   17  C  2  Y   -0.063010  -0.055699  -0.046316  -0.082359  -0.089384
   18  C  2  Z    0.028677   0.027198   0.030619   0.000207  -0.011621
   19  C  3  S    0.049334   0.022529   0.006300   0.013622   0.029177
   20  C  3  S   -0.043005  -0.019759  -0.005910  -0.019240  -0.026540
   21  C  3  X   -0.075391  -0.036694  -0.014412   0.034637   0.113909
   22  C  3  Y   -0.068031   0.010154  -0.007593   0.112192  -0.117010
   23  C  3  Z   -0.062144  -0.039220   0.123216  -0.031773   0.010726
   24  C  3  S   -0.195132  -0.093646  -0.013179  -0.022232  -0.123092
   25  C  3  X   -0.039079  -0.017649   0.001039   0.068007   0.082703
   26  C  3  Y   -0.011280   0.025126   0.013584   0.092690  -0.063900
   27  C  3  Z   -0.044128  -0.035564   0.094867  -0.013118   0.023208
   28  H  4  S   -0.065452  -0.040971   0.071896  -0.048299  -0.002185
   29  H  4  S   -0.038261  -0.024647   0.060152  -0.041769   0.007393
   30  O  5  S   -0.008423  -0.003311  -0.019428  -0.032311  -0.029567
   31  O  5  S    0.007204   0.001983   0.019682   0.027447   0.028246
   32  O  5  X   -0.026283   0.044963   0.054892   0.240641   0.069463
   33  O  5  Y    0.101920   0.004683   0.062835  -0.106361   0.155093
   34  O  5  Z   -0.079325  -0.024405   0.084033   0.121747  -0.046851
   35  O  5  S    0.041635   0.019388   0.075459   0.138647   0.128471
   36  O  5  X   -0.022622   0.052034   0.055931   0.259096   0.078022
   37  O  5  Y    0.107444   0.009180   0.070946  -0.107240   0.169217
   38  O  5  Z   -0.080723  -0.029063   0.086875   0.124153  -0.048160
   39  C  6  S   -0.003338   0.007081   0.007596   0.025387  -0.011309
   40  C  6  S    0.002668  -0.004371  -0.007315  -0.021402   0.009400
   41  C  6  X    0.022657   0.132897   0.054160  -0.018194  -0.101951
   42  C  6  Y   -0.040088   0.123834  -0.123616  -0.004701   0.015049
   43  C  6  Z    0.007379  -0.019444   0.075735  -0.107759   0.117865
   44  C  6  S    0.015466  -0.049056  -0.030633  -0.090594   0.045670
   45  C  6  X    0.008840   0.080393   0.041791  -0.023550  -0.098218
   46  C  6  Y   -0.021746   0.084204  -0.085132  -0.027953   0.031836
   47  C  6  Z    0.004393  -0.017156   0.067584  -0.137142   0.112850
   48  H  7  S   -0.004559   0.005208  -0.058322   0.045936  -0.056913
   49  H  7  S   -0.003496   0.005406  -0.033065   0.019173  -0.036410
   50  O  8  S    0.005421   0.016461   0.006586  -0.039124   0.008762
   51  O  8  S   -0.005822  -0.014951  -0.008576   0.036475  -0.009255
   52  O  8  X   -0.001596   0.100753   0.023102  -0.041388  -0.135750
   53  O  8  Y    0.035293  -0.121369   0.121048  -0.098944   0.085365
   54  O  8  Z   -0.034595   0.171538  -0.100910  -0.127053   0.070702
   55  O  8  S   -0.019935  -0.067900  -0.022520   0.172460  -0.035871
   56  O  8  X   -0.003021   0.097994   0.026279  -0.043353  -0.146180
   57  O  8  Y    0.037028  -0.121671   0.129419  -0.106276   0.093926
   58  O  8  Z   -0.032952   0.168407  -0.102122  -0.127605   0.074013
   59  C  9  S   -0.020244  -0.013285   0.009093  -0.012701  -0.000347
   60  C  9  S    0.017987   0.011009  -0.008650   0.009359   0.005184
   61  C  9  X   -0.031923  -0.136626   0.018233   0.072789  -0.001840
   62  C  9  Y   -0.030527  -0.049659  -0.128383   0.035571   0.092247
   63  C  9  Z    0.140544  -0.092578   0.055308  -0.011751   0.037870
   64  C  9  S    0.085989   0.048871  -0.035448   0.056512  -0.010608
   65  C  9  X   -0.022895  -0.122607   0.020534   0.013108  -0.004425
   66  C  9  Y   -0.025888  -0.059725  -0.083249   0.044625   0.064383
   67  C  9  Z    0.104620  -0.072530   0.051137   0.013771   0.038431
   68  H 10  S    0.095800  -0.054754   0.026602   0.006876   0.029011
   69  H 10  S    0.064063  -0.045370   0.022364  -0.008128   0.019626
   70  O 11  S    0.008770   0.022155  -0.005819   0.026781   0.016418
   71  O 11  S   -0.007633  -0.020613   0.008162  -0.022782  -0.014257
   72  O 11  X   -0.105527  -0.125534  -0.015710  -0.034333   0.011097
   73  O 11  Y    0.104343  -0.008868   0.167199  -0.044386  -0.057003
   74  O 11  Z    0.057927  -0.052073  -0.017199   0.045039   0.058868
   75  O 11  S   -0.038186  -0.088684   0.020880  -0.127526  -0.077544
   76  O 11  X   -0.109573  -0.131163  -0.008382  -0.038282   0.016624
   77  O 11  Y    0.103491  -0.010607   0.174361  -0.050320  -0.069150
   78  O 11  Z    0.057488  -0.049468  -0.017765   0.047186   0.062860
   79  C 12  S    0.011565   0.005788  -0.010244  -0.001988  -0.013744
   80  C 12  S   -0.010598  -0.005347   0.008755   0.000014   0.012156
   81  C 12  X    0.066885  -0.053996  -0.125767  -0.006242   0.072446
   82  C 12  Y   -0.066947  -0.031891  -0.049053   0.066860   0.095322
   83  C 12  Z    0.129299  -0.124988  -0.041614   0.037987  -0.143298
   84  C 12  S   -0.041738  -0.012965   0.039211   0.023363   0.060729
   85  C 12  X    0.056636  -0.020512  -0.104156  -0.019397   0.043598
   86  C 12  Y   -0.064987  -0.014244  -0.030424   0.048524   0.082598
   87  C 12  Z    0.108654  -0.092906  -0.045129   0.041551  -0.133817
   88  O 13  S   -0.024819  -0.012068   0.017234   0.005203   0.018630
   89  O 13  S    0.023675   0.011750  -0.014143  -0.006646  -0.019903
   90  O 13  X    0.032775   0.076198   0.022889  -0.050906  -0.082714
   91  O 13  Y   -0.108898   0.069442   0.218619  -0.009596  -0.060548
   92  O 13  Z    0.077067  -0.074886  -0.042315   0.031647  -0.121724
   93  O 13  S    0.102626   0.049669  -0.075813  -0.015637  -0.076095
   94  O 13  X    0.036041   0.084143   0.026104  -0.054627  -0.092906
   95  O 13  Y   -0.106217   0.072321   0.220237  -0.006759  -0.060884
   96  O 13  Z    0.075375  -0.076144  -0.042942   0.031673  -0.128179
   97  H 14  S    0.096025   0.074145   0.037956   0.062387   0.070641
   98  H 14  S    0.046086   0.029725   0.014093   0.041073   0.053846
   99  H 15  S    0.053630  -0.015213  -0.035752  -0.165849   0.017097
  100  H 15  S    0.027421  -0.023282  -0.023224  -0.134358   0.032889
  101  H 16  S   -0.027009   0.136149  -0.076056  -0.064037   0.000007
  102  H 16  S   -0.021143   0.118415  -0.072025  -0.043389  -0.007888
  103  H 17  S    0.083376   0.050639   0.068767   0.020642  -0.010519
  104  H 17  S    0.064264   0.032710   0.084496   0.030593   0.015724
  105  H 18  S    0.065076  -0.024676   0.018922  -0.029061  -0.085121
  106  H 18  S    0.042127  -0.012890   0.013835  -0.027363  -0.083533
  107  H 19  S   -0.085698   0.080773   0.052831  -0.027093   0.083494
  108  H 19  S   -0.054560   0.063226   0.031362  -0.020948   0.059041
  109  H 20  S   -0.075432   0.039864   0.130040  -0.009359  -0.018443
  110  H 20  S   -0.052763   0.025956   0.117892  -0.027668  -0.040527

                     26         27         28         29         30
                   -0.4749    -0.4541    -0.4322    -0.4194    -0.3964
                     A          A          A          A          A   
    1  O  1  S   -0.007123  -0.004864   0.008258   0.030092   0.005748
    2  O  1  S    0.006402   0.004201  -0.006925  -0.026505  -0.006182
    3  O  1  X    0.030003  -0.053849   0.046112   0.065661   0.060186
    4  O  1  Y    0.016387  -0.051267   0.036310  -0.097663   0.006263
    5  O  1  Z   -0.055834  -0.007944   0.033323   0.022474  -0.020239
    6  O  1  S    0.028770   0.024479  -0.038224  -0.126899  -0.019149
    7  O  1  X    0.028547  -0.051301   0.044686   0.069853   0.062254
    8  O  1  Y    0.016120  -0.051014   0.036058  -0.094223   0.003377
    9  O  1  Z   -0.053267  -0.006606   0.031339   0.025742  -0.019417
   10  C  2  S    0.015772  -0.007432  -0.003365  -0.031334  -0.003566
   11  C  2  S   -0.014247   0.006781   0.004040   0.036295   0.004331
   12  C  2  X    0.064207  -0.059527   0.035634  -0.046119   0.038562
   13  C  2  Y    0.013544  -0.084641   0.081508   0.017838   0.043597
   14  C  2  Z   -0.071154  -0.001118   0.023843  -0.069746  -0.035210
   15  C  2  S   -0.065158   0.042118  -0.001588   0.084723  -0.009514
   16  C  2  X    0.031744  -0.041117   0.025315  -0.009673   0.044102
   17  C  2  Y    0.015923  -0.081797   0.061083  -0.038916   0.026947
   18  C  2  Z   -0.062143   0.004354   0.018819  -0.030891  -0.020558
   19  C  3  S   -0.007059   0.012460  -0.008784   0.017121  -0.006955
   20  C  3  S    0.006217  -0.009714   0.009640  -0.013122   0.004002
   21  C  3  X    0.071415   0.066713  -0.075767   0.022811  -0.003011
   22  C  3  Y   -0.032953  -0.046366   0.021363   0.115413   0.017294
   23  C  3  Z   -0.182430   0.059625  -0.007620  -0.109501  -0.082398
   24  C  3  S    0.010628  -0.064989   0.027974  -0.083167   0.013053
   25  C  3  X    0.042065   0.034032  -0.059487  -0.016285   0.001603
   26  C  3  Y   -0.038012  -0.013116   0.010436   0.108895  -0.001365
   27  C  3  Z   -0.155996   0.057225  -0.020186  -0.118404  -0.093595
   28  H  4  S   -0.105653   0.035213  -0.000009  -0.105806  -0.058494
   29  H  4  S   -0.085118   0.036305   0.001477  -0.085062  -0.056391
   30  O  5  S    0.008736  -0.025229   0.016256  -0.007653   0.005643
   31  O  5  S   -0.008738   0.025387  -0.015613   0.005303  -0.009387
   32  O  5  X    0.072863   0.051311  -0.006252   0.021006   0.064208
   33  O  5  Y   -0.054085   0.091252  -0.038954  -0.157863  -0.091407
   34  O  5  Z   -0.138950   0.038060  -0.025635   0.048991  -0.101166
   35  O  5  S   -0.034921   0.104587  -0.070046   0.034079  -0.015604
   36  O  5  X    0.077780   0.050738  -0.004575   0.008829   0.080046
   37  O  5  Y   -0.060315   0.103641  -0.044922  -0.173304  -0.110094
   38  O  5  Z   -0.144591   0.040262  -0.029555   0.057108  -0.116515
   39  C  6  S   -0.008034  -0.029287   0.001753  -0.023118   0.032329
   40  C  6  S    0.007408   0.022950  -0.002849   0.018239  -0.025781
   41  C  6  X   -0.148524   0.002779   0.060266   0.033475   0.003770
   42  C  6  Y    0.075019   0.014753  -0.044094  -0.077686  -0.064887
   43  C  6  Z   -0.010135   0.011974  -0.002489   0.088672   0.200952
   44  C  6  S    0.051379   0.137632  -0.009086   0.108403  -0.193813
   45  C  6  X   -0.095159   0.003882   0.065286   0.068684  -0.032493
   46  C  6  Y    0.080024   0.054145  -0.013049  -0.036314  -0.030308
   47  C  6  Z    0.005097   0.062819   0.001180   0.132523   0.186687
   48  H  7  S    0.026377   0.016541  -0.005346  -0.045858  -0.175168
   49  H  7  S    0.022138   0.021776  -0.000929  -0.023660  -0.128305
   50  O  8  S    0.010146   0.036007   0.006058   0.032574  -0.017321
   51  O  8  S   -0.008130  -0.033733  -0.007544  -0.033980   0.008655
   52  O  8  X   -0.051512   0.034000   0.080369   0.149908  -0.127856
   53  O  8  Y   -0.036309   0.066471   0.033134   0.184249   0.132178
   54  O  8  Z    0.110863   0.145884  -0.004966   0.046173  -0.049575
   55  O  8  S   -0.045300  -0.160677  -0.020698  -0.145487   0.105012
   56  O  8  X   -0.052255   0.034776   0.087051   0.168614  -0.139992
   57  O  8  Y   -0.038318   0.076743   0.042984   0.211918   0.161146
   58  O  8  Z    0.111421   0.151445  -0.005795   0.048039  -0.058027
   59  C  9  S    0.020171   0.023041  -0.005136   0.018885  -0.026119
   60  C  9  S   -0.016710  -0.019716   0.006802  -0.018530   0.020883
   61  C  9  X    0.099087   0.045927   0.033708  -0.040993   0.018418
   62  C  9  Y   -0.047774  -0.090860  -0.119292   0.005472  -0.023258
   63  C  9  Z    0.081352  -0.140014   0.002822   0.056532  -0.122680
   64  C  9  S   -0.103375  -0.121523  -0.008033  -0.081338   0.124389
   65  C  9  X    0.100383   0.087407   0.024435   0.016930  -0.031539
   66  C  9  Y   -0.008135  -0.071297  -0.094817  -0.002933  -0.043869
   67  C  9  Z    0.084427  -0.156075   0.024550   0.056971  -0.153344
   68  H 10  S    0.042727  -0.112347   0.006104   0.016319  -0.068386
   69  H 10  S    0.032716  -0.076190  -0.005905   0.018646  -0.071573
   70  O 11  S    0.001544  -0.022499   0.014592  -0.038104   0.016268
   71  O 11  S    0.000103   0.023949  -0.012069   0.032102  -0.014897
   72  O 11  X    0.027117   0.076835  -0.131956   0.205009  -0.148017
   73  O 11  Y    0.124009  -0.012087   0.136508   0.029415  -0.125814
   74  O 11  Z    0.021914  -0.156118  -0.051344  -0.011440  -0.106393
   75  O 11  S   -0.006594   0.087313  -0.058720   0.183140  -0.079749
   76  O 11  X    0.030886   0.090676  -0.142815   0.233270  -0.180607
   77  O 11  Y    0.132014  -0.011826   0.151579   0.029727  -0.139624
   78  O 11  Z    0.017875  -0.167956  -0.058793  -0.013508  -0.114813
   79  C 12  S   -0.023595  -0.002738  -0.010767   0.010704  -0.004054
   80  C 12  S    0.022370   0.005617   0.011335  -0.010227   0.000686
   81  C 12  X   -0.070266  -0.023016   0.034211   0.078780  -0.104983
   82  C 12  Y   -0.022376   0.055698   0.270379  -0.025768   0.014305
   83  C 12  Z    0.050897   0.185432  -0.010898  -0.041050   0.019994
   84  C 12  S    0.084881  -0.027121   0.024600  -0.055757   0.030218
   85  C 12  X   -0.085670  -0.016037  -0.005626   0.056623  -0.041237
   86  C 12  Y   -0.007877   0.041998   0.227832  -0.010654  -0.001289
   87  C 12  Z    0.035873   0.164555  -0.029428  -0.070127   0.050518
   88  O 13  S    0.034147   0.004115   0.020845   0.001105  -0.021588
   89  O 13  S   -0.030607  -0.003669  -0.025304  -0.000293   0.021866
   90  O 13  X   -0.082190  -0.089558  -0.228006   0.014912   0.098528
   91  O 13  Y    0.185505  -0.013715  -0.080031  -0.075695   0.009821
   92  O 13  Z    0.019563   0.161190  -0.045598  -0.077920   0.082563
   93  O 13  S   -0.148886  -0.021063  -0.078606  -0.011319   0.093427
   94  O 13  X   -0.090051  -0.100809  -0.258829   0.009230   0.125765
   95  O 13  Y    0.192688  -0.016953  -0.091026  -0.092874   0.021515
   96  O 13  Z    0.020536   0.171925  -0.053931  -0.084261   0.092114
   97  H 14  S   -0.028214   0.056012  -0.044825   0.017457  -0.026139
   98  H 14  S   -0.016719   0.024795  -0.044250  -0.026331  -0.012162
   99  H 15  S   -0.002546  -0.016009   0.001311  -0.055467  -0.015956
  100  H 15  S   -0.000275  -0.004732  -0.003658  -0.088868  -0.016958
  101  H 16  S    0.062116   0.081026   0.008639   0.030398  -0.079844
  102  H 16  S    0.060918   0.069040  -0.000213   0.005119  -0.095943
  103  H 17  S    0.040861  -0.035306   0.102207  -0.085441   0.027915
[...]
    7             0.001240   0.035110   0.004528   0.000106   0.005080
    8             0.156162   0.214425   0.398085   0.005433   0.049944
    9             0.106723   0.063799   0.017592   0.003393   0.017769
   10             0.034993   0.000605   0.001576   0.004564   0.001377
   11             0.359399   0.089160   0.044882   0.102979   0.064982
   12             0.034989   0.059476   0.019364   0.015779   0.026675
   13             0.196029   0.200818   0.062856   0.129238   0.299187
   14             0.006160   0.018235   0.000632   0.082611   0.015167
   15            -0.000021   0.007245   0.000693   0.007339   0.001934
   16             0.001183   0.018603   0.000116   0.000090   0.003317
   17             0.001570   0.005277   0.002786   0.003809   0.000639
   18             0.031782   0.031845   0.007898   0.012041   0.013122
   19             0.004919   0.022210   0.003449   0.017888   0.042957
   20             0.014489   0.013727   0.005126   0.001173   0.000845

                     36         37         38         39         40

                  1.000000   1.000000   1.000000   1.000000   1.000000

    1             0.046017   0.135413   0.053299   0.593795   0.641352
    2             0.021686   0.081082   0.043311   0.343874   0.014676
    3             0.021915   0.079465   0.106935   0.009110   0.141039
    4             0.013420   0.069710   0.026207   0.018374   0.003331
    5             0.062772   0.193654   0.283013   0.001921   0.013687
    6             0.008603   0.077565   0.133833   0.019737   0.007473
    7             0.001584   0.047829   0.008430   0.001996   0.001436
    8             0.036369   0.045886   0.141152   0.003851   0.004525
    9             0.084283   0.068091   0.050341   0.003678   0.007017
   10             0.079924   0.040067   0.001410   0.000028   0.000142
   11             0.296631   0.138730   0.059227   0.000540   0.000371
   12             0.059191   0.000060   0.037998   0.001230   0.002397
   13             0.203565   0.008593   0.041228   0.001202   0.001764
   14             0.000114   0.000270   0.001644   0.000231   0.132919
   15             0.002220   0.005872   0.002663   0.000305   0.027662
   16             0.000353   0.005243   0.000042   0.000055   0.000245
   17             0.001213   0.000480   0.003260   0.000026  -0.000115
   18             0.000414   0.000524   0.001431   0.000037   0.000012
   19             0.059338   0.001270   0.002724  -0.000006   0.000049
   20             0.000389   0.000195   0.001854   0.000015   0.000019

     ATOMIC SPIN POPULATION (ALPHA MINUS BETA)
       ATOM         MULL.POP.                    LOW.POP.
    1 O             0.387584                     0.399225
    2 C             0.739356                     0.634741
    3 C            -0.129424                    -0.063912
    4 H             0.041252                     0.032643
    5 O             0.001576                    -0.000123
    6 C             0.050135                     0.043344
    7 H            -0.002814                    -0.001464
    8 O            -0.003927                    -0.001980
    9 C             0.009210                     0.007268
   10 H            -0.000885                    -0.000469
   11 O            -0.000268                     0.000118
   12 C            -0.001053                    -0.000023
   13 O             0.001496                     0.001456
   14 H            -0.086672                    -0.047228
   15 H            -0.006802                    -0.004658
   16 H             0.001217                     0.000963
   17 H             0.000203                     0.000108
   18 H            -0.000015                    -0.000010
   19 H             0.000011                     0.000084
   20 H            -0.000180                    -0.000082


          ********* ALL ELECTRONS ********

               ----- POPULATIONS IN EACH AO -----
                             MULLIKEN      LOWDIN
              1  O  1  S      1.98644     1.98093
              2  O  1  S      0.41164     0.56875
              3  O  1  X      0.70595     0.70993
              4  O  1  Y      0.70796     0.70715
              5  O  1  Z      0.68671     0.69413
              6  O  1  S      1.54079     1.05825
              7  O  1  X      0.90949     0.93134
              8  O  1  Y      0.91213     0.94818
              9  O  1  Z      0.88914     0.89661
             10  C  2  S      1.98636     1.97544
             11  C  2  S      0.37910     0.40897
             12  C  2  X      0.52521     0.52078
             13  C  2  Y      0.53214     0.50151
             14  C  2  Z      0.55699     0.56461
             15  C  2  S      0.70276     0.55071
             16  C  2  X      0.30769     0.50852
             17  C  2  Y      0.34631     0.51624
             18  C  2  Z      0.60089     0.67048
             19  C  3  S      1.98993     1.97571
             20  C  3  S      0.35270     0.42732
             21  C  3  X      0.58727     0.57984
             22  C  3  Y      0.40913     0.40125
             23  C  3  Z      0.53850     0.50606
             24  C  3  S      1.02152     0.56322
             25  C  3  X      0.40682     0.54666
             26  C  3  Y      0.19124     0.40368
             27  C  3  Z      0.48795     0.56083
             28  H  4  S      0.48330     0.50108
             29  H  4  S      0.37934     0.47136
             30  O  5  S      1.98592     1.97981
             31  O  5  S      0.40546     0.56274
             32  O  5  X      0.69954     0.69659
             33  O  5  Y      0.60808     0.60411
             34  O  5  Z      0.78758     0.79338
             35  O  5  S      1.51083     1.03134
             36  O  5  X      0.92645     0.90908
             37  O  5  Y      0.83886     0.86158
             38  O  5  Z      1.00108     0.99996
             39  C  6  S      1.98993     1.97582
             40  C  6  S      0.35349     0.43195
             41  C  6  X      0.56032     0.55274
             42  C  6  Y      0.42685     0.41648
             43  C  6  Z      0.55598     0.53334
             44  C  6  S      1.01188     0.56114
             45  C  6  X      0.30250     0.50533
             46  C  6  Y      0.21581     0.41828
             47  C  6  Z      0.54535     0.56548
             48  H  7  S      0.47451     0.48844
             49  H  7  S      0.28896     0.42494
             50  O  8  S      1.98612     1.98051
             51  O  8  S      0.41546     0.57489
             52  O  8  X      0.82657     0.83569
             53  O  8  Y      0.62675     0.62432
             54  O  8  Z      0.61867     0.60187
             55  O  8  S      1.51631     1.04861
             56  O  8  X      1.03769     1.03334
             57  O  8  Y      0.85411     0.87926
             58  O  8  Z      0.78612     0.81257
             59  C  9  S      1.99005     1.97571
             60  C  9  S      0.35154     0.42606
             61  C  9  X      0.57543     0.56511
             62  C  9  Y      0.44440     0.43823
             63  C  9  Z      0.53169     0.50154
             64  C  9  S      1.01577     0.55728
             65  C  9  X      0.33417     0.50942
             66  C  9  Y      0.27649     0.43915
             67  C  9  Z      0.47008     0.55005
             68  H 10  S      0.47790     0.49364
             69  H 10  S      0.35395     0.45875
             70  O 11  S      1.98594     1.98005
             71  O 11  S      0.40692     0.56683
             72  O 11  X      0.70564     0.70467
             73  O 11  Y      0.58827     0.58047
             74  O 11  Z      0.79724     0.80656
             75  O 11  S      1.51701     1.04273
             76  O 11  X      0.93962     0.91887
             77  O 11  Y      0.78839     0.82335
             78  O 11  Z      1.02704     1.03713
             79  C 12  S      1.98845     1.97583
             80  C 12  S      0.36333     0.42389
             81  C 12  X      0.46877     0.45850
             82  C 12  Y      0.52712     0.50300
             83  C 12  Z      0.55603     0.51948
             84  C 12  S      0.99576     0.57020
             85  C 12  X      0.23101     0.43273
             86  C 12  Y      0.40401     0.51752
             87  C 12  Z      0.50879     0.57927
             88  O 13  S      1.98591     1.98036
             89  O 13  S      0.41262     0.57046
             90  O 13  X      0.66836     0.66989
             91  O 13  Y      0.57221     0.55272
             92  O 13  Z      0.84015     0.85223
             93  O 13  S      1.51214     1.05144
             94  O 13  X      0.91590     0.92854
             95  O 13  Y      0.74135     0.76812
             96  O 13  Z      1.05900     1.05774
             97  H 14  S      0.47571     0.48375
             98  H 14  S      0.44599     0.51670
             99  H 15  S      0.36878     0.39138
            100  H 15  S      0.22671     0.34574
            101  H 16  S      0.41885     0.43445
            102  H 16  S      0.23679     0.33962
            103  H 17  S      0.36307     0.38289
            104  H 17  S      0.19892     0.34546
            105  H 18  S      0.48400     0.48831
            106  H 18  S      0.33248     0.44473
            107  H 19  S      0.47938     0.48669
            108  H 19  S      0.34248     0.45301
            109  H 20  S      0.39644     0.41507
            110  H 20  S      0.20936     0.33157

          ----- MULLIKEN ATOMIC OVERLAP POPULATIONS -----
          (OFF-DIAGONAL ELEMENTS NEED TO BE MULTIPLIED BY 2)

             1           2           3           4           5

    1    8.4745420
    2    0.3636824   5.2252740
    3   -0.0886753   0.1561018   5.6248379
    4    0.0017307  -0.0521436   0.3452147   0.6723363
    5   -0.0114657  -0.0315096   0.2053687  -0.0318467   8.3834352
    6    0.0008177  -0.0949848   0.1406464  -0.0957104  -0.0395896
    7    0.0003519   0.0063169  -0.0483016   0.0043779   0.0023855
    8    0.0000060  -0.0020063  -0.0392478   0.0021030   0.0001990
    9   -0.0000390   0.0057168  -0.0780835   0.0006144   0.0036423
   10    0.0000001  -0.0000110  -0.0037452   0.0034584   0.0000721
   11   -0.0000000  -0.0000499   0.0013762  -0.0000599  -0.0136639
   12    0.0000000  -0.0000783   0.0037956  -0.0001904  -0.0000271
   13   -0.0000000   0.0000000  -0.0000139   0.0000003  -0.0000000
   14   -0.0528818   0.3568863  -0.1343053   0.0043456   0.0013250
   15    0.0621886   0.0037649  -0.0922763   0.0041026   0.2321297
   16   -0.0000012  -0.0000352   0.0000802   0.0038473  -0.0000019
   17    0.0000025   0.0005146  -0.0075562   0.0004531   0.0633497
   18   -0.0000000   0.0000004  -0.0000176   0.0000026   0.0000002
   19   -0.0000000  -0.0000010  -0.0001238   0.0000003  -0.0000007
   20   -0.0000000   0.0000001  -0.0000161   0.0000005   0.0000037

             6           7           8           9          10

    6    5.6319529
    7    0.3647415   0.4982265
    8    0.2014467  -0.0243974   8.2968103
    9    0.0632865  -0.0540529  -0.0390928   5.5237510
   10   -0.0585168   0.0042936   0.0009206   0.3559156   0.6105607
   11   -0.0320266   0.0030878   0.0002013   0.2130137  -0.0321980
   12   -0.0645179  -0.0048666   0.0029101   0.2106484  -0.0596280
   13    0.0018002  -0.0000082   0.0000005  -0.0401749   0.0017553
   14    0.0033914   0.0013495   0.0060337  -0.0000435   0.0000029
   15    0.0053677   0.0005199  -0.0000195  -0.0005226   0.0000038
   16   -0.0631040   0.0050828   0.2583085  -0.0037728   0.0040222
   17   -0.0054093   0.0002758   0.0000326  -0.0498563  -0.0000270
   18    0.0002669   0.0001757   0.0037783  -0.0471308   0.0001611
   19    0.0015160   0.0039135  -0.0001670  -0.0612896   0.0045818
   20    0.0007235   0.0000032  -0.0000034  -0.0129142   0.0002269

            11          12          13          14          15

   11    8.4011101
   12   -0.0502150   5.1140249
   13   -0.0054203   0.2389027   8.3105883
   14   -0.0000001   0.0000035  -0.0000000   0.7325380
   15    0.0003811   0.0000051  -0.0000000   0.0029705   0.3783689
   16    0.0000219  -0.0007655  -0.0000075   0.0001068   0.0000032
   17    0.2388837   0.0044479   0.0000642  -0.0000211  -0.0015042
   18    0.0017259   0.3603158  -0.0283889  -0.0000005  -0.0000000
   19    0.0016274   0.3524502  -0.0323089  -0.0000003  -0.0000002
   20    0.0282843  -0.0639476   0.2608537   0.0000000  -0.0000002

            16          17          18          19          20

   16    0.4507899
   17    0.0000141   0.3188599
   18    0.0010152  -0.0000803   0.5557700
   19    0.0000362  -0.0001732  -0.0361639   0.5886583
   20    0.0000001  -0.0002789   0.0050558  -0.0006999   0.3885080

          TOTAL MULLIKEN AND LOWDIN ATOMIC POPULATIONS
       ATOM         MULL.POP.    CHARGE          LOW.POP.     CHARGE
    1 O             8.750259   -0.750259         8.495254   -0.495254
    2 C             5.937438    0.062562         6.217269   -0.217269
    3 C             5.985059    0.014941         5.964582    0.035418
    4 H             0.862637    0.137363         0.972447    0.027553
    5 O             8.763806   -0.763806         8.438575   -0.438575
    6 C             5.962098    0.037902         5.960565    0.039435
    7 H             0.763475    0.236525         0.913381    0.086619
    8 O             8.667816   -0.667816         8.391055   -0.391055
    9 C             5.989616    0.010384         5.962532    0.037468
   10 H             0.831849    0.168151         0.952391    0.047609
   11 O             8.756080   -0.756080         8.460661   -0.460661
   12 C             6.043268   -0.043268         5.980412    0.019588
   13 O             8.707643   -0.707643         8.431497   -0.431497
   14 H             0.921701    0.078299         1.000448   -0.000448
   15 H             0.595483    0.404517         0.737119    0.262881
   16 H             0.655640    0.344360         0.774066    0.225934
   17 H             0.561992    0.438008         0.728355    0.271645
   18 H             0.816486    0.183514         0.933046    0.066954
   19 H             0.821855    0.178145         0.939705    0.060295
   20 H             0.605800    0.394200         0.746639    0.253361

          -------------------------------
          BOND ORDER AND VALENCE ANALYSIS     BOND ORDER THRESHOLD=0.050
          -------------------------------

                   BOND                       BOND                       BOND
  ATOM PAIR DIST  ORDER      ATOM PAIR DIST  ORDER      ATOM PAIR DIST  ORDER
    1   2  1.237  1.437        1  15  1.938  0.137        2   3  1.516  0.840
    2  14  1.096  0.880        3   4  1.100  0.899        3   5  1.453  0.803
    3   6  1.553  0.825        5  15  1.009  0.696        5  17  1.729  0.134
    6   7  1.093  0.895        6   8  1.457  0.816        6   9  1.529  0.829
    8  16  0.997  0.830        9  10  1.105  0.897        9  11  1.455  0.871
    9  12  1.532  0.889       11  17  1.010  0.671       11  20  2.009  0.053
   12  13  1.451  0.877       12  18  1.092  0.913       12  19  1.101  0.900
   13  20  1.002  0.773

                       TOTAL       BONDED        FREE
      ATOM            VALENCE     VALENCE     VALENCE
    1 O                 1.811       1.653       0.158
    2 C                 3.526       3.166       0.360
    3 C                 3.375       3.367       0.008
    4 H                 0.919       0.918       0.002
    5 O                 1.730       1.730       0.000
    6 C                 3.386       3.384       0.002
    7 H                 0.908       0.908       0.000
    8 O                 1.738       1.738       0.000
    9 C                 3.489       3.489       0.000
   10 H                 0.919       0.919       0.000
   11 O                 1.689       1.689       0.000
   12 C                 3.559       3.559       0.000
   13 O                 1.717       1.717       0.000
   14 H                 0.941       0.934       0.008
   15 H                 0.849       0.848       0.000
   16 H                 0.853       0.853       0.000
   17 H                 0.817       0.817       0.000
   18 H                 0.923       0.923      -0.000
   19 H                 0.917       0.917       0.000
   20 H                 0.834       0.834       0.000

          -----------------------------------------
          ATOMIC SPIN DENSITY AT THE NUCLEUS (A.U.)
          -----------------------------------------
                            SPIN DENS    ALPHA DENS     BETA DENS
    1  O            8.0     0.1656283     116.87209     116.70646
    2  C            6.0     0.1364922      46.98200      46.84551
    3  C            6.0    -0.0491572      47.04492      47.09408
    4  H            1.0     0.0127437       0.19665       0.18391
    5  O            8.0    -0.0051033     116.67308     116.67819
    6  C            6.0     0.0488229      47.10400      47.05517
    7  H            1.0    -0.0010067       0.18600       0.18700
    8  O            8.0     0.0021897     116.76403     116.76184
    9  C            6.0     0.0033806      47.07384      47.07046
   10  H            1.0    -0.0002526       0.18747       0.18772
   11  O            8.0     0.0007481     116.70366     116.70291
   12  C            6.0     0.0011219      46.99992      46.99879
   13  O            8.0     0.0007273     116.72623     116.72550
   14  H            1.0    -0.0203832       0.17592       0.19631
   15  H            1.0    -0.0002639       0.14887       0.14914
   16  H            1.0     0.0001461       0.16941       0.16927
   17  H            1.0     0.0000385       0.14619       0.14615
   18  H            1.0    -0.0000102       0.18947       0.18948
   19  H            1.0     0.0000326       0.18751       0.18748
   20  H            1.0    -0.0000471       0.16061       0.16065

          ---------------------
          ELECTROSTATIC MOMENTS
          ---------------------

 POINT   1           X           Y           Z (BOHR)    CHARGE
                 0.212621   -0.055603   -0.195269       -1.00 (A.U.)
         DX          DY          DZ         /D/  (DEBYE)
     6.386407   -0.585235    1.994903    6.716274
 ...... END OF PROPERTY EVALUATION ......
 CPU     0: STEP CPU TIME=     0.05 TOTAL CPU TIME=          1.9 (      0.0 MIN)
 TOTAL WALL CLOCK TIME=          5.7 SECONDS, CPU UTILIZATION IS    32.64%
               580000  WORDS OF DYNAMIC MEMORY USED
 EXECUTION OF GAMESS TERMINATED NORMALLY Fri May 22 16:38:21 2020
 DDI: 263640 bytes (0.3 MB / 0 MWords) used by master data server.
Note: The following floating-point exceptions are signalling: IEEE_DENORMALNote: The following floating-point exceptions are signalling: IEEE_DENORMALNote: The following floating-point exceptions are signalling: IEEE_DENORMALNote: The following floating-point exceptions are signalling: IEEE_DENORMAL
Note: The following floating-point exceptions are signalling: IEEE_DENORMALNote: The following floating-point exceptions are signalling: IEEE_DENORMALNote: The following floating-point exceptions are signalling: IEEE_DENORMAL

 ----------------------------------------
 CPU timing information for all processes
 ========================================
 0: 1.699 + 0.181 = 1.881
 1: 1.643 + 0.19 = 1.663
 2: 1.849 + 0.27 = 1.877
 3: 1.713 + 0.27 = 1.740
 4: 1.719 + 0.12 = 1.731
 5: 1.716 + 0.32 = 1.749
 6: 1.785 + 0.27 = 1.813
 7: 1.612 + 0.24 = 1.637
 ----------------------------------------
Note: The following floating-point exceptions are signalling:




 IEEE_DENORMAL
 ddikick.x: exited gracefully.
unset echo
----- accounting info -----
Files used on the master node pietdev were:
-rwxr-xr-x 1 piet piet     1254 mei 22 16:38 /home/piet/scr/d-ribose_fukui_acid.F05*
-rw-r--r-- 1 piet piet 68812800 mei 22 16:38 /home/piet/scr/d-ribose_fukui_acid.F10
ls: No match.
ls: No match.
ls: No match.
vr 22 mei 2020 16:38:24 CEST
0.108u 0.044s 0:09.00 1.5%	0+0k 0+8io 0pf+0w
