----- GAMESS execution script 'rungms' -----
This job is running on host pietdev
under operating system Linux at vr 22 mei 2020 16:38:15 CEST
Available scratch disk space (Kbyte units) at beginning of the job is
Filesystem     1K-blocks     Used Available Use% Mounted on
/dev/sda2      244568380 31372908 200702416  14% /
GAMESS temporary binary files will be written to /home/piet/scr
GAMESS supplementary output files will be written to /home/piet/gamess/scr
Copying input file d-ribose_fukui_neu.inp to your run's scratch directory...
cp d-ribose_fukui_neu.inp /home/piet/scr/d-ribose_fukui_neu.F05
unset echo
 
Assuming a single but multicore node.
 
/home/piet/gamess/ddikick.x /home/piet/gamess/gamess.03.x d-ribose_fukui_neu -ddi 1 8 pietdev:cpus=8 -scr /home/piet/scr

 Distributed Data Interface kickoff program.
 Initiating 8 compute processes on 1 nodes to run the following command:
 /home/piet/gamess/gamess.03.x d-ribose_fukui_neu 

          ******************************************************
          *         GAMESS VERSION = 30 SEP 2019 (R2)          *
          *             FROM IOWA STATE UNIVERSITY             *
          * M.W.SCHMIDT, K.K.BALDRIDGE, J.A.BOATZ, S.T.ELBERT, *
          *   M.S.GORDON, J.H.JENSEN, S.KOSEKI, N.MATSUNAGA,   *
          *          K.A.NGUYEN, S.J.SU, T.L.WINDUS,           *
          *       TOGETHER WITH M.DUPUIS, J.A.MONTGOMERY       *
          *         J.COMPUT.CHEM.  14, 1347-1363(1993)        *
          **************** 64 BIT LINUX VERSION ****************

  SINCE 1993, STUDENTS AND POSTDOCS WORKING AT IOWA STATE UNIVERSITY
  AND ALSO IN THEIR VARIOUS JOBS AFTER LEAVING ISU HAVE MADE IMPORTANT
  CONTRIBUTIONS TO THE CODE:
     IVANA ADAMOVIC, CHRISTINE AIKENS, YURI ALEXEEV, POOJA ARORA,
     ANDREY ASADCHEV, ROB BELL, PRADIPTA BANDYOPADHYAY, JONATHAN BENTZ,
     COLLEEN BERTONI, BRETT BODE, KURT BRORSEN, CALEB CARLIN, GALINA CHABAN,
     WEI CHEN, CHEOL HO CHOI, PAUL DAY, ALBERT DEFUSCO, NUWAN DESILVA,
     TIM DUDLEY, DMITRI FEDOROV, ALEX FINDLATER, GRAHAM FLETCHER, 
     MARK FREITAG, KURT GLAESEMANN, EMILIE B GUIDEZ, ANASTASIA GUNINA, 
     DAN KEMP, SAROM SOK LEANG, GRANT MERRILL,
     NORIYUKI MINEZAWA, JONATHAN MULLIN,
     TAKESHI NAGATA, SEAN NEDD, HEATHER NETZLOFF, BOSILJKA NJEGIC, RYAN OLSON,
     MIKE PAK, BUU PHAM, DAVID POOLE,
     SPENCER PRUITT, LUKE ROSKOP, TOSAPORN SATTASATHUCHANA,
     JIM SHOEMAKER, LYUDMILA SLIPCHENKO,
     TONY SMITH, JIE SONG, TETSUYA TAKETSUGU, SIMON WEBB,
     JORGE LUIS GALVEZ VALLEJO, PENG XU, SOOHAENG YOO,
     FEDERICO ZAHARIEV

  ADDITIONAL CODE HAS BEEN PROVIDED BY COLLABORATORS IN OTHER GROUPS:
     IOWA STATE UNIVERSITY:
          JOE IVANIC, AARON WEST, LAIMUTIS BYTAUTAS, KLAUS RUEDENBERG
     UNIVERSITY OF TOKYO: KIMIHIKO HIRAO, TAKAHITO NAKAJIMA,
          TAKAO TSUNEDA, MUNEAKI KAMIYA, SUSUMU YANAGISAWA,
          KIYOSHI YAGI, MAHITO CHIBA, SEIKEN TOKURA, NAOAKI KAWAKAMI
     UNIVERSITY OF AARHUS: FRANK JENSEN
     UNIVERSITY OF IOWA: VISVALDAS KAIRYS, HUI LI
     NATIONAL INST. OF STANDARDS AND TECHNOLOGY: WALT STEVENS, DAVID GARMER
     UNIVERSITY OF PISA: BENEDETTA MENNUCCI, JACOPO TOMASI
     UNIVERSITY OF MEMPHIS: HENRY KURTZ, PRAKASHAN KORAMBATH
     UNIVERSITY OF ALBERTA: TOBY ZENG, MARIUSZ KLOBUKOWSKI
     UNIVERSITY OF NEW ENGLAND: MARK SPACKMAN
     MIE UNIVERSITY: HIROAKI UMEDA
     NAT. INST. OF ADVANCED INDUSTRIAL SCIENCE AND TECHNOLOGY: KAZUO KITAURA
     MICHIGAN STATE UNIVERSITY:
          KAROL KOWALSKI, MARTA WLOCH, JEFFREY GOUR, JESSE LUTZ,
          WEI LI, JUN SHEN, J. EMILIANO DEUSTUA, PIOTR PIECUCH
     UNIVERSITY OF MINNESOTA:
          ANDREW SAND, PRACHI SHARMA, YINAN SHU
     UNIVERSITY OF SILESIA: MONIKA MUSIAL, STANISLAW KUCHARSKI
     FACULTES UNIVERSITAIRES NOTRE-DAME DE LA PAIX:
          OLIVIER QUINET, BENOIT CHAMPAGNE
     UNIVERSITY OF CALIFORNIA - SANTA BARBARA: BERNARD KIRTMAN
     INSTITUTE FOR MOLECULAR SCIENCE:
          KAZUYA ISHIMURA, MICHIO KATOUDA, AND SHIGERU NAGASE
     UNIVERSITY OF NOTRE DAME: ANNA POMOGAEVA, DAN CHIPMAN
     KYUSHU UNIVERSITY:
          HARUYUKI NAKANO,
          FENG LONG GU, JACEK KORCHOWIEC, MARCIN MAKOWSKI, AND YURIKO AOKI,
          HIROTOSHI MORI AND EISAKU MIYOSHI
     PENNSYLVANIA STATE UNIVERSITY:
          TZVETELIN IORDANOV, CHET SWALINA, JONATHAN SKONE,
          SHARON HAMMES-SCHIFFER
     WASEDA UNIVERSITY:
          MASATO KOBAYASHI, TOMOKO AKAMA, TSUGUKI TOUMA,
          TAKESHI YOSHIKAWA, YASUHIRO IKABATA, JUNJI SEINO,
          YUYA NAKAJIMA, HIROMI NAKAI
     NANJING UNIVERSITY: SHUHUA LI
     UNIVERSITY OF NEBRASKA:
          PEIFENG SU, DEJUN SI, NANDUN THELLAMUREGE, YALI WANG, HUI LI
     UNIVERSITY OF ZURICH: ROBERTO PEVERATI, KIM BALDRIDGE
     N. COPERNICUS UNIVERSITY AND JACKSON STATE UNIVERSITY:
          MARIA BARYSZ
     UNIVERSITY OF COPENHAGEN: Jimmy Kromann, CASPER STEINMANN
     TOKYO INSTITUTE OF TECHNOLOGY: HIROYA NAKATA
     NAGOYA UNIVERSITY: YOSHIO NISHIMOTO, STEPHAN IRLE
     MOSCOW STATE UNIVERSITY: VLADIMIR MIRONOV
     A.N.NESMEYANOV INSTITUTE OF ORGANOELEMENT COMPOUNDS OF RUSSIAN ACADEMY OF SCIENCES:
          IGOR S. GERASIMOV
     JOHANNES KEPLER UNIVERSITY LINZ:
          CHRISTIAN FRIEDL


 PARALLEL VERSION RUNNING ON        8 PROCESSORS IN        1 NODES.

 EXECUTION OF GAMESS BEGUN Fri May 22 16:38:15 2020

            ECHO OF THE FIRST FEW INPUT CARDS -
 INPUT CARD> $BASIS GBASIS=N21 NGAUSS=3 $END                                                
 INPUT CARD> $CONTRL SCFTYP=RHF MAXIT=60 MULT=1 ICHARG=0 $END                               
 INPUT CARD> $SYSTEM MEMDDI=1000 MWORDS=30 $END                                             
 INPUT CARD> $SCF DIRSCF=.TRUE. $END                                                        
 INPUT CARD> $DATA                                                                          
 INPUT CARD>                                                                                
 INPUT CARD>C1                                                                              
 INPUT CARD>O 8.0000000 -3.2619090791 0.4073462201 -0.6983425722                            
 INPUT CARD>C 6.0000000 -2.4975049918 -0.3687170729 -0.1121930616                           
 INPUT CARD>C 6.0000000 -1.1914535956 0.1426987428 0.4619871894                             
 INPUT CARD>H 1.0000000 -1.1653017061 -0.0316498378 1.5473655414                            
 INPUT CARD>O 8.0000000 -1.0923419593 1.5628692065 0.1695409674                             
 INPUT CARD>C 6.0000000 -0.0226750982 -0.6497363123 -0.1849830220                           
 INPUT CARD>H 1.0000000 -0.1286454357 -0.6262153308 -1.2726042359                           
 INPUT CARD>O 8.0000000 -0.1484188926 -2.0464771531 0.2111749881                            
 INPUT CARD>C 6.0000000 1.3304570036 -0.0345999699 0.1714310354                             
 INPUT CARD>H 1.0000000 1.4381225234 0.0039690201 1.2705053057                              
 INPUT CARD>O 8.0000000 1.4506885329 1.2852261766 -0.4293240310                             
 INPUT CARD>C 6.0000000 2.5127955978 -0.8115468600 -0.4162375238                            
 INPUT CARD>O 8.0000000 3.7131241725 -0.0320254794 -0.1773739192                            
 INPUT CARD>H 1.0000000 -2.6675463923 -1.4458663828 -0.0057003230                           
 INPUT CARD>H 1.0000000 -1.9255117788 1.7690435899 -0.3609894399                            
 INPUT CARD>H 1.0000000 0.1999011879 -2.1260141202 1.1424552720                             
 INPUT CARD>H 1.0000000 0.5730653025 1.7527865652 -0.2546888231                             
 INPUT CARD>H 1.0000000 2.6291137978 -1.7816063488 0.0704702424                             
 INPUT CARD>H 1.0000000 2.3169498826 -0.9696001752 -1.4884327531                            
 INPUT CARD>H 1.0000000 3.4218910285 0.8978153220 -0.4110611370                             
 INPUT CARD> $END                                                                           
   30000000 WORDS OF MEMORY AVAILABLE

     BASIS OPTIONS
     -------------
     GBASIS=N21          IGAUSS=       3      POLAR=NONE    
     NDFUNC=       0     NFFUNC=       0     DIFFSP=       F
     NPFUNC=       0      DIFFS=       F     BASNAM=        


     RUN TITLE
     ---------
                                                                                 

 THE POINT GROUP OF THE MOLECULE IS C1      
 THE ORDER OF THE PRINCIPAL AXIS IS     0

 ATOM      ATOMIC                      COORDINATES (BOHR)
           CHARGE         X                   Y                   Z
 O           8.0    -6.1641143564        0.7697727381       -1.3196761070
 C           6.0    -4.7196000875       -0.6967742348       -0.2120141441
 C           6.0    -2.2515208228        0.2696615227        0.8730291978
 H           1.0    -2.2021009176       -0.0598095210        2.9240968761
 O           8.0    -2.0642269880        2.9533945549        0.3203859721
 C           6.0    -0.0428497223       -1.2278235945       -0.3495672240
 H           1.0    -0.2431046230       -1.1833753845       -2.4048732967
 O           8.0    -0.2804710384       -3.8672810595        0.3990628630
 C           6.0     2.5141991752       -0.0653844623        0.3239576827
 H           1.0     2.7176575060        0.0075003604        2.4009068937
 O           8.0     2.7414038207        2.4287253060       -0.8113047785
 C           6.0     4.7484951430       -1.5336011916       -0.7865748658
 O           8.0     7.0167872444       -0.0605193807       -0.3351881047
 H           1.0    -5.0409317410       -2.7322912784       -0.0107720485
 H           1.0    -3.6386896481        3.3430076452       -0.6821711259
 H           1.0     0.3777584698       -4.0175841332        2.1589274173
 H           1.0     1.0829363948        3.3122863232       -0.4812920878
 H           1.0     4.9683046684       -3.3667478172        0.1331694484
 H           1.0     4.3784004054       -1.8322786488       -2.8127300545
 H           1.0     6.4664364037        1.6966249462       -0.7767929131

          INTERNUCLEAR DISTANCES (ANGS.)
          ------------------------------

                1 O          2 C          3 C          4 H          5 O     

   1 O       0.0000000    1.2369960 *  2.3881351 *  3.1034956    2.6068135 *
   2 C       1.2369960 *  0.0000000    1.5155855 *  2.1546495 *  2.4051783 *
   3 C       2.3881351 *  1.5155855 *  0.0000000    1.0996033 *  1.4533520 *
   4 H       3.1034956    2.1546495 *  1.0996033 *  0.0000000    2.1086049 *
   5 O       2.6068135 *  2.4051783 *  1.4533520 *  2.1086049 *  0.0000000  
   6 C       3.4458088    2.4917972 *  1.5532440 *  2.1653309 *  2.4830420 *
   7 H       3.3489352    2.6503500 *  2.1747638 *  3.0627429    2.7929527 *
   8 O       4.0672217    2.9047636 *  2.4378924 *  2.6227819 *  3.7309657  
   9 C       4.6948534    3.8529690    2.5447772 *  2.8499151 *  2.9020452 *
  10 H       5.1116898    4.1880680    2.7545631 *  2.6183464 *  3.1694704  
  11 O       4.8012103    4.2923574    3.0134232    3.5333934    2.6273045 *
  12 C       5.9086799    5.0390131    3.9247070    4.2417421    4.3563752  
  13 O       7.0082483    6.2200904    4.9491610    5.1743372    5.0750905  
  14 H       2.0657728 *  1.0956758 *  2.2183599 *  2.5823945 *  3.4006570  
  15 H       1.9375202 *  2.2269029 *  1.9649757 *  2.7317092 *  1.0090304 *
  16 H       4.6680383    3.4551752    2.7469916 *  2.5326060 *  4.0279418  
  17 H       4.0882841    3.7349009    2.4938994 *  3.0746598    1.7290520 *
  18 H       6.3314088    5.3208874    4.2956921    4.4318344    5.0044545  
  19 H       5.8003354    5.0432204    4.1653621    4.7140108    4.5591171  
  20 H       6.7079262    6.0607488    4.7555613    5.0736257    4.5997494  

                6 C          7 H          8 O          9 C         10 H     

   1 O       3.4458088    3.3489352    4.0672217    4.6948534    5.1116898  
   2 C       2.4917972 *  2.6503500 *  2.9047636 *  3.8529690    4.1880680  
   3 C       1.5532440 *  2.1747638 *  2.4378924 *  2.5447772 *  2.7545631 *
   4 H       2.1653309 *  3.0627429    2.6227819 *  2.8499151 *  2.6183464 *
   5 O       2.4830420 *  2.7929527 *  3.7309657    2.9020452 *  3.1694704  
   6 C       0.0000000    1.0930246 *  1.4572706 *  1.5285255 *  2.1632630 *
   7 H       1.0930246 *  0.0000000    2.0540534 *  2.1364050 *  3.0527529  
   8 O       1.4572706 *  2.0540534 *  0.0000000    2.4972592 *  2.8006470 *
   9 C       1.5285255 *  2.1364050 *  2.4972592 *  0.0000000    1.1050085 *
  10 H       2.1632630 *  3.0527529    2.8006470 *  1.1050085 *  0.0000000  
  11 O       2.4442960 *  2.6189742 *  3.7506840    1.4550956 *  2.1286610 *
  12 C       2.5511317 *  2.7829701 *  3.0001270    1.5319678 *  2.1598819 *
  13 O       3.7865315    4.0387851    4.3726995    2.4080644 *  2.6969024 *
  14 H       2.7679071 *  2.9534542 *  2.5988019 *  4.2434749    4.5373165  
  15 H       3.0825739    3.1300216    4.2477794    3.7600445    4.1341624  
  16 H       1.9977559 *  2.8617917 *  0.9974648 *  2.5680844 *  2.4670665 *
  17 H       2.4762637 *  2.6810818 *  3.8951217    1.9874534 *  2.4764701 *
  18 H       2.8945415 *  3.2778062    2.7936790 *  2.1791590 *  2.4590290 *
  19 H       2.6972466 *  2.4789981 *  3.1821964    2.1453534 *  3.0548181  
  20 H       3.7829966    3.9586911    4.6693842    2.3627932 *  2.7499026 *

               11 O         12 C         13 O         14 H         15 H     

   1 O       4.8012103    5.9086799    7.0082483    2.0657728 *  1.9375202 *
   2 C       4.2923574    5.0390131    6.2200904    1.0956758 *  2.2269029 *
   3 C       3.0134232    3.9247070    4.9491610    2.2183599 *  1.9649757 *
   4 H       3.5333934    4.2417421    5.1743372    2.5823945 *  2.7317092 *
   5 O       2.6273045 *  4.3563752    5.0750905    3.4006570    1.0090304 *
   6 C       2.4442960 *  2.5511317 *  3.7865315    2.7679071 *  3.0825739  
   7 H       2.6189742 *  2.7829701 *  4.0387851    2.9534542 *  3.1300216  
   8 O       3.7506840    3.0001270    4.3726995    2.5988019 *  4.2477794  
   9 C       1.4550956 *  1.5319678 *  2.4080644 *  4.2434749    3.7600445  
  10 H       2.1286610 *  2.1598819 *  2.6969024 *  4.5373165    4.1341624  
  11 O       0.0000000    2.3504680 *  2.6300657 *  4.9596555    3.4113747  
  12 C       2.3504680 *  0.0000000    1.4510335 *  5.2351547    5.1343034  
  13 O       2.6300657 *  1.4510335 *  0.0000000    6.5376888    5.9221432  
  14 H       4.9596555    5.2351547    6.5376888    0.0000000    3.3185075  
  15 H       3.4113747    5.1343034    5.9221432    3.3185075    0.0000000  
  16 H       3.9587270    3.0833144    4.2976125    3.1627706    4.6849974  
  17 H       1.0096201 *  3.2193878    3.6126862    4.5601469    2.5008902 *
  18 H       3.3232427    1.0915264 *  2.0730505 *  5.3078369    5.7911904  
  19 H       2.6374916 *  1.1013351 *  2.1324221 *  5.2221191    5.1739520  
  20 H       2.0089948 *  1.9360786 *  1.0020132 *  6.5374620    5.4181420  

               16 H         17 H         18 H         19 H         20 H     

   1 O       4.6680383    4.0882841    6.3314088    5.8003354    6.7079262  
   2 C       3.4551752    3.7349009    5.3208874    5.0432204    6.0607488  
   3 C       2.7469916 *  2.4938994 *  4.2956921    4.1653621    4.7555613  
   4 H       2.5326060 *  3.0746598    4.4318344    4.7140108    5.0736257  
   5 O       4.0279418    1.7290520 *  5.0044545    4.5591171    4.5997494  
   6 C       1.9977559 *  2.4762637 *  2.8945415 *  2.6972466 *  3.7829966  
   7 H       2.8617917 *  2.6810818 *  3.2778062    2.4789981 *  3.9586911  
   8 O       0.9974648 *  3.8951217    2.7936790 *  3.1821964    4.6693842  
   9 C       2.5680844 *  1.9874534 *  2.1791590 *  2.1453534 *  2.3627932 *
  10 H       2.4670665 *  2.4764701 *  2.4590290 *  3.0548181    2.7499026 *
  11 O       3.9587270    1.0096201 *  3.3232427    2.6374916 *  2.0089948 *
  12 C       3.0833144    3.2193878    1.0915264 *  1.1013351 *  1.9360786 *
  13 O       4.2976125    3.6126862    2.0730505 *  2.1324221 *  1.0020132 *
  14 H       3.1627706    4.5601469    5.3078369    5.2221191    6.5374620  
  15 H       4.6849974    2.5008902 *  5.7911904    5.1739520    5.4181420  
  16 H       0.0000000    4.1396084    2.6774694 *  3.5694201    4.6838207  
  17 H       4.1396084    0.0000000    4.1018285    3.4604403    2.9784620 *
  18 H       2.6774694 *  4.1018285    0.0000000    1.7852112 *  2.8354310 *
  19 H       3.5694201    3.4604403    1.7852112 *  0.0000000    2.4225741 *
  20 H       4.6838207    2.9784620 *  2.8354310 *  2.4225741 *  0.0000000  

  * ... LESS THAN  3.000


     ATOMIC BASIS SET
     ----------------
 THE CONTRACTED PRIMITIVE FUNCTIONS HAVE BEEN UNNORMALIZED
 THE CONTRACTED BASIS FUNCTIONS ARE NOW NORMALIZED TO UNITY

  SHELL TYPE  PRIMITIVE        EXPONENT          CONTRACTION COEFFICIENT(S)

 O         

      1   S       1           322.0370000    0.059239393389
      1   S       2            48.4308000    0.351499960776
      1   S       3            10.4206000    0.707657921031

      2   L       4             7.4029400   -0.404453583190    0.244586106967
      2   L       5             1.5762000    1.221561761397    0.853955373466

      3   L       6             0.3736840    1.000000000000    1.000000000000

 C         

      4   S       7           172.2560000    0.061766907377
      4   S       8            25.9109000    0.358794042852
      4   S       9             5.5333500    0.700713083689

      5   L      10             3.6649800   -0.395895162119    0.236459946619
      5   L      11             0.7705450    1.215834355681    0.860618805716

      6   L      12             0.1958570    1.000000000000    1.000000000000

 C         

      7   S      13           172.2560000    0.061766907377
      7   S      14            25.9109000    0.358794042852
      7   S      15             5.5333500    0.700713083689

      8   L      16             3.6649800   -0.395895162119    0.236459946619
      8   L      17             0.7705450    1.215834355681    0.860618805716

      9   L      18             0.1958570    1.000000000000    1.000000000000

 H         

     10   S      19             5.4471780    0.156284978695
     10   S      20             0.8245472    0.904690876670

     11   S      21             0.1831916    1.000000000000

 O         

     12   S      22           322.0370000    0.059239393389
     12   S      23            48.4308000    0.351499960776
     12   S      24            10.4206000    0.707657921031

     13   L      25             7.4029400   -0.404453583190    0.244586106967
     13   L      26             1.5762000    1.221561761397    0.853955373466

     14   L      27             0.3736840    1.000000000000    1.000000000000

 C         

     15   S      28           172.2560000    0.061766907377
     15   S      29            25.9109000    0.358794042852
     15   S      30             5.5333500    0.700713083689

     16   L      31             3.6649800   -0.395895162119    0.236459946619
     16   L      32             0.7705450    1.215834355681    0.860618805716

     17   L      33             0.1958570    1.000000000000    1.000000000000

 H         

     18   S      34             5.4471780    0.156284978695
     18   S      35             0.8245472    0.904690876670

     19   S      36             0.1831916    1.000000000000

 O         

     20   S      37           322.0370000    0.059239393389
     20   S      38            48.4308000    0.351499960776
     20   S      39            10.4206000    0.707657921031

     21   L      40             7.4029400   -0.404453583190    0.244586106967
     21   L      41             1.5762000    1.221561761397    0.853955373466

     22   L      42             0.3736840    1.000000000000    1.000000000000

 C         

     23   S      43           172.2560000    0.061766907377
     23   S      44            25.9109000    0.358794042852
     23   S      45             5.5333500    0.700713083689

     24   L      46             3.6649800   -0.395895162119    0.236459946619
     24   L      47             0.7705450    1.215834355681    0.860618805716

     25   L      48             0.1958570    1.000000000000    1.000000000000

 H         

     26   S      49             5.4471780    0.156284978695
     26   S      50             0.8245472    0.904690876670

     27   S      51             0.1831916    1.000000000000

 O         

     28   S      52           322.0370000    0.059239393389
     28   S      53            48.4308000    0.351499960776
     28   S      54            10.4206000    0.707657921031

     29   L      55             7.4029400   -0.404453583190    0.244586106967
     29   L      56             1.5762000    1.221561761397    0.853955373466

     30   L      57             0.3736840    1.000000000000    1.000000000000

 C         

     31   S      58           172.2560000    0.061766907377
     31   S      59            25.9109000    0.358794042852
     31   S      60             5.5333500    0.700713083689

     32   L      61             3.6649800   -0.395895162119    0.236459946619
     32   L      62             0.7705450    1.215834355681    0.860618805716

     33   L      63             0.1958570    1.000000000000    1.000000000000

 O         

     34   S      64           322.0370000    0.059239393389
     34   S      65            48.4308000    0.351499960776
     34   S      66            10.4206000    0.707657921031

     35   L      67             7.4029400   -0.404453583190    0.244586106967
     35   L      68             1.5762000    1.221561761397    0.853955373466

     36   L      69             0.3736840    1.000000000000    1.000000000000

 H         

     37   S      70             5.4471780    0.156284978695
     37   S      71             0.8245472    0.904690876670

     38   S      72             0.1831916    1.000000000000

 H         

     39   S      73             5.4471780    0.156284978695
     39   S      74             0.8245472    0.904690876670

     40   S      75             0.1831916    1.000000000000

 H         

     41   S      76             5.4471780    0.156284978695
     41   S      77             0.8245472    0.904690876670

     42   S      78             0.1831916    1.000000000000

 H         

     43   S      79             5.4471780    0.156284978695
     43   S      80             0.8245472    0.904690876670

     44   S      81             0.1831916    1.000000000000

 H         

     45   S      82             5.4471780    0.156284978695
     45   S      83             0.8245472    0.904690876670

     46   S      84             0.1831916    1.000000000000

 H         

     47   S      85             5.4471780    0.156284978695
     47   S      86             0.8245472    0.904690876670

     48   S      87             0.1831916    1.000000000000

 H         

     49   S      88             5.4471780    0.156284978695
     49   S      89             0.8245472    0.904690876670

     50   S      90             0.1831916    1.000000000000

 TOTAL NUMBER OF BASIS SET SHELLS             =   50
 NUMBER OF CARTESIAN GAUSSIAN BASIS FUNCTIONS =  110
 NUMBER OF ELECTRONS                          =   80
 CHARGE OF MOLECULE                           =    0
 SPIN MULTIPLICITY                            =    1
 NUMBER OF OCCUPIED ORBITALS (ALPHA)          =   40
 NUMBER OF OCCUPIED ORBITALS (BETA )          =   40
 TOTAL NUMBER OF ATOMS                        =   20
 THE NUCLEAR REPULSION ENERGY IS      582.0031802219

     $CONTRL OPTIONS
     ---------------
 SCFTYP=RHF          RUNTYP=ENERGY       EXETYP=RUN     
 MPLEVL=       0     CITYP =NONE         CCTYP =NONE         VBTYP =NONE    
 DFTTYP=NONE         TDDFT =NONE    
 MULT  =       1     ICHARG=       0     NZVAR =       0     COORD =UNIQUE  
 PP    =NONE         RELWFN=NONE         LOCAL =NONE         NUMGRD=       F
 ISPHER=      -1     NOSYM =       0     MAXIT =      60     UNITS =ANGS    
 PLTORB=       F     MOLPLT=       F     AIMPAC=       F     FRIEND=        
 NPRINT=       7     IREST =       0     GEOM  =INPUT   
 NORMF =       0     NORMP =       0     ITOL  =      20     ICUT  =       9
 INTTYP=BEST         GRDTYP=BEST         QMTTOL= 1.0E-06

     $SYSTEM OPTIONS
     ---------------
  REPLICATED MEMORY=    30000000 WORDS (ON EVERY NODE).
 DISTRIBUTED MEMDDI=        1000 MILLION WORDS IN AGGREGATE,
 MEMDDI DISTRIBUTED OVER   8 PROCESSORS IS   125000000 WORDS/PROCESSOR.
 TOTAL MEMORY REQUESTED ON EACH PROCESSOR=   155000000 WORDS.
 TIMLIM=      525600.00 MINUTES, OR     365.0 DAYS.
 PARALL= T  BALTYP=  DLB     KDIAG=    0  COREFL= F
 MXSEQ2=     300 MXSEQ3=     150  mem10=         0

          ----------------
          PROPERTIES INPUT
          ----------------

     MOMENTS            FIELD           POTENTIAL          DENSITY
 IEMOM =       1   IEFLD =       0   IEPOT =       0   IEDEN =       0
 WHERE =COMASS     WHERE =NUCLEI     WHERE =NUCLEI     WHERE =NUCLEI  
 OUTPUT=BOTH       OUTPUT=BOTH       OUTPUT=BOTH       OUTPUT=BOTH    
 IEMINT=       0   IEFINT=       0                     IEDINT=       0
                                                       MORB  =       0
          EXTRAPOLATION IN EFFECT
          SOSCF IN EFFECT
 ORBITAL PRINTING OPTION: NPREO=     1   110     2     1

     -------------------------------
     INTEGRAL TRANSFORMATION OPTIONS
     -------------------------------
     NWORD  =            0
     CUTOFF = 1.0E-09     MPTRAN =       0
     DIRTRF =       T     AOINTS =DUP     

          ----------------------
          INTEGRAL INPUT OPTIONS
          ----------------------
 NOPK  =       1 NORDER=       0 SCHWRZ=       T

     ------------------------------------------
     THE POINT GROUP IS C1 , NAXIS= 0, ORDER= 1
     ------------------------------------------

     DIMENSIONS OF THE SYMMETRY SUBSPACES ARE
 A   =  110

 ..... DONE SETTING UP THE RUN .....
 CPU     0: STEP CPU TIME=     0.02 TOTAL CPU TIME=          0.0 (      0.0 MIN)
 TOTAL WALL CLOCK TIME=          0.1 SECONDS, CPU UTILIZATION IS    28.57%

          ********************
          1 ELECTRON INTEGRALS
          ********************
 ...... END OF ONE-ELECTRON INTEGRALS ......
 CPU     0: STEP CPU TIME=     0.02 TOTAL CPU TIME=          0.0 (      0.0 MIN)
 TOTAL WALL CLOCK TIME=          0.1 SECONDS, CPU UTILIZATION IS    50.00%

          -------------
          GUESS OPTIONS
          -------------
          GUESS =HUCKEL            NORB  =       0          NORDER=       0
          MIX   =       F          PRTMO =       F          PUNMO =       F
          TOLZ  = 1.0E-08          TOLE  = 1.0E-05
          SYMDEN=       F          PURIFY=       F

 INITIAL GUESS ORBITALS GENERATED BY HUCKEL   ROUTINE.
 HUCKEL GUESS REQUIRES    117020 WORDS.

 SYMMETRIES FOR INITIAL GUESS ORBITALS FOLLOW.   BOTH SET(S).
    40 ORBITALS ARE OCCUPIED (   10 CORE ORBITALS).
    11=A       12=A       13=A       14=A       15=A       16=A       17=A   
    18=A       19=A       20=A       21=A       22=A       23=A       24=A   
    25=A       26=A       27=A       28=A       29=A       30=A       31=A   
    32=A       33=A       34=A       35=A       36=A       37=A       38=A   
    39=A       40=A       41=A       42=A       43=A       44=A       45=A   
    46=A       47=A       48=A       49=A       50=A   
 ...... END OF INITIAL ORBITAL SELECTION ......
 CPU     0: STEP CPU TIME=     0.02 TOTAL CPU TIME=          0.1 (      0.0 MIN)
 TOTAL WALL CLOCK TIME=          0.1 SECONDS, CPU UTILIZATION IS    50.00%

                    ----------------------
                    AO INTEGRAL TECHNOLOGY
                    ----------------------
     S,P,L SHELL ROTATED AXIS INTEGRALS, REPROGRAMMED BY
        KAZUYA ISHIMURA (IMS) AND JOSE SIERRA (SYNSTAR).
     S,P,D,L SHELL ROTATED AXIS INTEGRALS PROGRAMMED BY
        KAZUYA ISHIMURA (INSTITUTE FOR MOLECULAR SCIENCE).
     S,P,D,F,G SHELL TO TOTAL QUARTET ANGULAR MOMENTUM SUM 5,
        ERIC PROGRAM BY GRAHAM FLETCHER (ELORET AND NASA ADVANCED
        SUPERCOMPUTING DIVISION, AMES RESEARCH CENTER).
     S,P,D,F,G,L SHELL GENERAL RYS QUADRATURE PROGRAMMED BY
        MICHEL DUPUIS (PACIFIC NORTHWEST NATIONAL LABORATORY).

          --------------------
          2 ELECTRON INTEGRALS
          --------------------

 DIRECT SCF METHOD SKIPS INTEGRAL STORAGE ON DISK.
 DIRECT TRANSFORMATION SKIPS AO INTEGRAL STORAGE ON DISK.
  ...... END OF TWO-ELECTRON INTEGRALS .....
 CPU     0: STEP CPU TIME=     0.01 TOTAL CPU TIME=          0.1 (      0.0 MIN)
 TOTAL WALL CLOCK TIME=          0.1 SECONDS, CPU UTILIZATION IS    50.00%

          --------------------------
                 RHF SCF CALCULATION
          --------------------------

     NUCLEAR ENERGY =       582.0031802219
     MAXIT =   60     NPUNCH=    2
     EXTRAP=T  DAMP=F  SHIFT=F  RSTRCT=F  DIIS=F  DEM=F  SOSCF=T
     DENSITY MATRIX CONV=  2.00E-05
     SOSCF WILL OPTIMIZE    2800 ORBITAL ROTATIONS, SOGTOL=   0.250
     MEMORY REQUIRED FOR RHF ITERS=    144346 WORDS.

 DIRECT SCF CALCULATION, SCHWRZ=T   FDIFF=T,  DIRTHR=  0.00E+00 NITDIR=10
 SCHWARZ INEQUALITY OVERHEAD:      5623 INTEGRALS, T=        0.00

                                                                                   NONZERO     BLOCKS
 ITER EX DEM     TOTAL ENERGY        E CHANGE  DENSITY CHANGE     ORB. GRAD      INTEGRALS    SKIPPED
   1  0  0     -564.6618543360  -564.6618543360   0.848792690   0.000000000       10636893     375559
          ---------------START SECOND ORDER SCF---------------
   2  1  0     -566.1272880553    -1.4654337193   0.130389745   0.069300395       10620972     383099
   3  2  0     -566.2023421675    -0.0750541122   0.137256989   0.054652770       10530164     402683
   4  3  0     -566.2585200335    -0.0561778660   0.025933741   0.003542842       10409949     418217
   5  4  0     -566.2596570967    -0.0011370632   0.005892760   0.001597458       10180589     438500
   6  5  0     -566.2598361267    -0.0001790300   0.001322698   0.000815295        9872738     455629
   7  6  0     -566.2598558562    -0.0000197295   0.000385839   0.000253449        9444573     479783
   8  7  0     -566.2598581501    -0.0000022939   0.000222603   0.000141205        8994710     501753
   9  8  0     -566.2598585313    -0.0000003813   0.000149104   0.000065826        8508252     525290
  10  9  0     -566.2598586294    -0.0000000980   0.000048883   0.000018747        8223841     539034
  11 10  0     -566.2598586440    -0.0000000147   0.000022600   0.000005040        7786150     557504
  12 11  0     -566.2598586459    -0.0000000019   0.000005153   0.000001964        7311910     575037
  13 12  0     -566.2598586453     0.0000000006   0.000001597   0.000000600        6692125     603102

          -----------------
          DENSITY CONVERGED
          -----------------
     TIME TO FORM FOCK OPERATORS=       1.2 SECONDS (       0.1 SEC/ITER)
     FOCK TIME ON FIRST ITERATION=       0.1, LAST ITERATION=       0.1
     TIME TO SOLVE SCF EQUATIONS=       0.1 SECONDS (       0.0 SEC/ITER)

 FINAL RHF ENERGY IS     -566.2598586453 AFTER  13 ITERATIONS

          ------------
          EIGENVECTORS
          ------------

                      1          2          3          4          5
                  -20.5185   -20.5031   -20.4964   -20.4494   -20.4298
                     A          A          A          A          A   
    1  O  1  S    0.983656   0.006824   0.003532   0.000234   0.000064
    2  O  1  S    0.099120   0.000066  -0.000017  -0.000070  -0.000028
    3  O  1  X    0.003065   0.000085  -0.000034  -0.000018   0.000016
    4  O  1  Y   -0.002454   0.000269   0.000057  -0.000043  -0.000008
    5  O  1  Z    0.002211  -0.000007   0.000068   0.000026  -0.000023
    6  O  1  S   -0.052848   0.004174   0.001628   0.000499   0.000229
    7  O  1  X   -0.010105   0.000921   0.000526   0.000290   0.000003
    8  O  1  Y    0.007807  -0.001584  -0.000425   0.000144   0.000016
    9  O  1  Z   -0.007219   0.000737  -0.000019   0.000003   0.000125
   10  C  2  S   -0.000006   0.000195   0.000096   0.000049  -0.000010
   11  C  2  S    0.000305   0.000406   0.000590   0.000301  -0.000146
   12  C  2  X   -0.001734  -0.000571   0.000111   0.000053  -0.000144
   13  C  2  Y    0.000754  -0.000155   0.000043   0.000057   0.000026
   14  C  2  Z   -0.001153  -0.000257  -0.000105   0.000032   0.000004
   15  C  2  S    0.020207  -0.007546  -0.002773  -0.001793  -0.000461
   16  C  2  X   -0.008066  -0.001189  -0.000386  -0.001151  -0.000034
   17  C  2  Y    0.018839  -0.008308  -0.001899  -0.001195  -0.000559
   18  C  2  Z   -0.008598   0.002147   0.001229   0.000062  -0.000127
   19  C  3  S    0.000232  -0.000987   0.000064   0.000043  -0.000048
   20  C  3  S    0.000879  -0.004326  -0.000253   0.000464  -0.000301
   21  C  3  X    0.000318   0.000258  -0.000317   0.000470   0.000162
   22  C  3  Y    0.000684   0.001282   0.000372  -0.000028   0.000001
   23  C  3  Z   -0.000260   0.000447   0.000607   0.000350   0.000091
   24  C  3  S   -0.004560   0.022639  -0.002162  -0.000325   0.002304
   25  C  3  X    0.004121  -0.001643  -0.002598  -0.001867  -0.000129
   26  C  3  Y   -0.009273   0.013174   0.004294   0.000624  -0.000606
   27  C  3  Z    0.005835  -0.009235  -0.003306  -0.002869  -0.001216
   28  H  4  S   -0.000594  -0.000598   0.000870   0.000484   0.000008
   29  H  4  S   -0.001801   0.001325   0.000888   0.001330   0.000274
   30  O  5  S   -0.006988   0.983556  -0.005774  -0.003737   0.000061
   31  O  5  S   -0.001341   0.098909  -0.000314   0.000496  -0.000000
   32  O  5  X   -0.000253  -0.001807  -0.000214   0.000567  -0.000043
   33  O  5  Y    0.000305  -0.002779   0.000119   0.000176  -0.000030
   34  O  5  Z   -0.000223  -0.000827   0.000042  -0.000114  -0.000030
   35  O  5  S    0.004256  -0.048561  -0.001465  -0.002026  -0.000078
   36  O  5  X    0.000858   0.003709   0.000957  -0.002088   0.000204
   37  O  5  Y   -0.002903   0.009494   0.000242  -0.000327   0.000191
   38  O  5  Z    0.001130   0.001195  -0.000079   0.000573   0.000142
   39  C  6  S    0.000001   0.000210  -0.000920   0.000189  -0.000143
   40  C  6  S   -0.000051   0.000832  -0.003981   0.000545  -0.000897
   41  C  6  X    0.000163   0.000286  -0.000094  -0.000523  -0.000532
   42  C  6  Y    0.000103  -0.000006  -0.001220  -0.000294   0.000264
   43  C  6  Z    0.000483  -0.000716  -0.000093  -0.000399   0.000118
   44  C  6  S   -0.001387  -0.005105   0.021089  -0.005743   0.003037
   45  C  6  X   -0.001001   0.001537   0.000029  -0.002811   0.004430
   46  C  6  Y    0.000958  -0.005740  -0.011743  -0.003822  -0.001334
   47  C  6  Z   -0.005423   0.004783   0.008115   0.003652  -0.000738
   48  H  7  S   -0.000297   0.001270  -0.000930   0.000914  -0.000454
   49  H  7  S   -0.003037   0.001911   0.000410   0.001382  -0.000122
   50  O  8  S   -0.003658   0.005826   0.983508  -0.000638  -0.000601
   51  O  8  S   -0.000712   0.000832   0.098056   0.000129   0.000171
   52  O  8  X    0.000051   0.000259   0.001171  -0.000224   0.000017
   53  O  8  Y   -0.000081  -0.000076   0.003276  -0.000071   0.000025
   54  O  8  Z    0.000011  -0.000052   0.001534   0.000060  -0.000053
   55  O  8  S    0.001525  -0.002194  -0.046128  -0.001386  -0.001064
   56  O  8  X    0.000096  -0.001060  -0.002637   0.000833  -0.000440
   57  O  8  Y    0.000707  -0.000387  -0.010072  -0.000187  -0.000447
   58  O  8  Z    0.000092   0.000201  -0.001834  -0.000242   0.000357
   59  C  9  S   -0.000057   0.000004   0.000169  -0.000947   0.000273
   60  C  9  S   -0.000367   0.000179   0.000539  -0.004171   0.001099
   61  C  9  X    0.000020  -0.000296   0.000429   0.000138  -0.000730
   62  C  9  Y    0.000030  -0.000077  -0.000019   0.001523   0.000103
   63  C  9  Z   -0.000089   0.000517   0.000532   0.000031  -0.000078
   64  C  9  S    0.002066   0.000816  -0.004419   0.021770  -0.008793
   65  C  9  X   -0.001100   0.000812   0.001709  -0.000403  -0.001665
   66  C  9  Y   -0.001267   0.000581   0.005507   0.008918   0.001742
   67  C  9  Z    0.001423  -0.004206  -0.003800  -0.009312   0.002525
   68  H 10  S   -0.000271   0.000700   0.001263  -0.000830   0.000475
   69  H 10  S   -0.000719   0.001227   0.000452   0.000500  -0.000802
   70  O 11  S   -0.000287   0.003943   0.000675   0.983532  -0.004351
   71  O 11  S   -0.000120   0.001349   0.000294   0.098457  -0.000164
   72  O 11  X   -0.000034  -0.000135   0.000266  -0.002410   0.000545
   73  O 11  Y    0.000044   0.000275   0.000067  -0.001822  -0.000135
   74  O 11  Z   -0.000003  -0.000005   0.000083   0.001886  -0.000131
   75  O 11  S    0.000454  -0.003877  -0.002001  -0.046975   0.000340
   76  O 11  X    0.000192   0.000964  -0.000971   0.005389  -0.002131
   77  O 11  Y   -0.000304  -0.000593   0.000520   0.006736   0.000083
   78  O 11  Z    0.000030  -0.000063  -0.000485  -0.004895   0.000468
   79  C 12  S    0.000013   0.000068   0.000003   0.000164  -0.000833
   80  C 12  S    0.000076   0.000427   0.000144   0.000416  -0.003265
   81  C 12  X    0.000008  -0.000075  -0.000219   0.000618   0.001424
   82  C 12  Y   -0.000012   0.000042   0.000110  -0.000583   0.000884
   83  C 12  Z    0.000002  -0.000165  -0.000262  -0.000373   0.000162
   84  C 12  S   -0.000277  -0.002029   0.000670  -0.005521   0.019681
   85  C 12  X    0.000047   0.001410   0.000479   0.001411   0.005819
   86  C 12  Y    0.000392  -0.001218  -0.000874  -0.003287   0.007398
   87  C 12  Z   -0.000329   0.001243   0.002617   0.002001   0.002602
   88  O 13  S   -0.000074  -0.000043   0.000654   0.004385   0.983473
   89  O 13  S   -0.000030  -0.000027   0.000243   0.000727   0.097755
   90  O 13  X    0.000026   0.000006  -0.000069  -0.000028  -0.003672
   91  O 13  Y    0.000004  -0.000068  -0.000060   0.000133   0.000540
   92  O 13  Z   -0.000027   0.000054   0.000135   0.000186  -0.001210
   93  O 13  S    0.000014   0.000085  -0.000561  -0.000666  -0.044279
   94  O 13  X   -0.000085  -0.000110   0.000342  -0.000236   0.009700
   95  O 13  Y   -0.000028   0.000328   0.000341  -0.000697   0.000337
   96  O 13  Z    0.000112  -0.000266  -0.000572  -0.000733   0.002742
   97  H 14  S    0.000631  -0.000741  -0.000450   0.000012  -0.000072
   98  H 14  S    0.004916  -0.002278   0.000186  -0.000620  -0.000176
   99  H 15  S   -0.000760   0.003037   0.000187  -0.000003   0.000042
  100  H 15  S    0.002794   0.005667  -0.000021  -0.000761   0.000044
  101  H 16  S   -0.000009  -0.000185   0.002839  -0.000337  -0.000131
  102  H 16  S    0.000120   0.000305   0.005084   0.000760   0.000171
  103  H 17  S   -0.000011  -0.000379  -0.000504   0.002612  -0.000594
  104  H 17  S    0.000288   0.004304   0.000280   0.007494  -0.000564
  105  H 18  S    0.000072  -0.000034  -0.000435  -0.000345  -0.001230
  106  H 18  S    0.000269  -0.000701  -0.000700  -0.000217  -0.000793
  107  H 19  S   -0.000053   0.000343   0.000459   0.000686  -0.001163
  108  H 19  S    0.000063   0.000654   0.000704   0.000813  -0.001110
  109  H 20  S   -0.000014  -0.000107  -0.000081  -0.000668   0.002988
  110  H 20  S    0.000086  -0.000175  -0.000121   0.002250   0.005771

                      6          7          8          9         10
                  -11.3246   -11.2816   -11.2701   -11.2459   -11.2219
                     A          A          A          A          A   
    1  O  1  S    0.000092   0.000051  -0.000010  -0.000020   0.000005
    2  O  1  S    0.000993   0.000129  -0.000085  -0.000201   0.000037
    3  O  1  X   -0.000408  -0.000076   0.000085   0.000075   0.000021
    4  O  1  Y    0.000196   0.000318  -0.000006   0.000029   0.000004
    5  O  1  Z   -0.000118  -0.000074  -0.000099  -0.000082   0.000005
    6  O  1  S   -0.001067  -0.002274   0.000473   0.000919  -0.000198
    7  O  1  X   -0.001496  -0.001912  -0.000197  -0.000381  -0.000158
    8  O  1  Y    0.002916  -0.001339   0.000001  -0.000213   0.000002
    9  O  1  Z   -0.002083  -0.000722   0.000279   0.000365  -0.000095
   10  C  2  S    0.986781   0.001590   0.002982   0.001321   0.000366
   11  C  2  S    0.095828  -0.002214  -0.000906  -0.001137  -0.000350
   12  C  2  X    0.000305   0.000484  -0.000916  -0.000328  -0.000133
   13  C  2  Y    0.000660  -0.000252   0.000074   0.000217  -0.000004
   14  C  2  Z   -0.000496   0.000059  -0.000189  -0.000023  -0.000017
   15  C  2  S   -0.053674   0.025789   0.000963   0.004263   0.001838
   16  C  2  X   -0.011667   0.014259   0.000793   0.003566   0.000708
   17  C  2  Y    0.004363   0.008677  -0.000032  -0.000810   0.000537
   18  C  2  Z   -0.005675   0.004634   0.001062   0.000599   0.000526
   19  C  3  S   -0.002096   0.988167   0.013263   0.003321   0.001595
   20  C  3  S   -0.001105   0.105523  -0.001809  -0.000121  -0.001018
   21  C  3  X    0.000387  -0.000274   0.000648  -0.000762  -0.000367
   22  C  3  Y    0.000195  -0.000551  -0.000262  -0.000131  -0.000094
   23  C  3  Z    0.000048  -0.000801   0.000003  -0.000087   0.000046
   24  C  3  S    0.011904  -0.096565   0.023466  -0.001559   0.004534
   25  C  3  X   -0.010548   0.002172   0.012311   0.001858   0.004369
   26  C  3  Y   -0.004218   0.008192  -0.006123   0.000443  -0.000147
   27  C  3  Z   -0.001195   0.009791  -0.006117   0.001605  -0.000775
   28  H  4  S   -0.001339   0.000827  -0.001565   0.000197  -0.000381
   29  H  4  S    0.001509   0.014018   0.001275  -0.001701   0.000064
   30  O  5  S   -0.000019  -0.000271   0.000050   0.000028   0.000034
   31  O  5  S   -0.000388  -0.001067   0.000143   0.000252   0.000268
   32  O  5  X    0.000041  -0.000149   0.000064   0.000081   0.000063
   33  O  5  Y    0.000462  -0.000384   0.000257   0.000097   0.000025
   34  O  5  Z    0.000032   0.000190   0.000114  -0.000102  -0.000018
   35  O  5  S    0.000479   0.010501  -0.001703  -0.000716  -0.001194
   36  O  5  X    0.000691   0.000134  -0.000990  -0.000693  -0.000513
   37  O  5  Y   -0.001416  -0.004991   0.000670  -0.000288   0.000402
   38  O  5  Z    0.000095   0.000036  -0.000137   0.000267   0.000005
   39  C  6  S   -0.003211  -0.014452   0.988083   0.006522   0.003409
   40  C  6  S   -0.001743  -0.004817   0.104934  -0.002677  -0.000787
   41  C  6  X    0.001765  -0.000457  -0.000156   0.000018  -0.001161
   42  C  6  Y    0.000050   0.000042   0.000566  -0.000022   0.000367
   43  C  6  Z    0.000318   0.000281   0.000596   0.000064   0.000397
   44  C  6  S    0.000618   0.027557  -0.093836   0.027333   0.000462
   45  C  6  X   -0.009873  -0.012553  -0.001568   0.016834   0.003988
   46  C  6  Y   -0.001630   0.008471  -0.009539   0.006387  -0.002690
   47  C  6  Z   -0.001963   0.003645  -0.005225   0.001616  -0.002618
   48  H  7  S   -0.001328  -0.001929   0.001038  -0.001959  -0.000215
   49  H  7  S    0.000059  -0.000838   0.015121   0.000528  -0.002133
   50  O  8  S    0.000047  -0.000012  -0.000251   0.000025   0.000030
   51  O  8  S    0.000375  -0.000511  -0.000940  -0.000056   0.000227
   52  O  8  X   -0.000239   0.000035   0.000045   0.000001   0.000067
   53  O  8  Y    0.000069  -0.000396   0.000441  -0.000309   0.000063
   54  O  8  Z   -0.000140  -0.000233  -0.000113  -0.000082  -0.000101
   55  O  8  S   -0.001460   0.000133   0.009471  -0.000785  -0.000861
   56  O  8  X    0.001609   0.000662   0.000401  -0.001215  -0.000669
   57  O  8  Y   -0.000854  -0.000034   0.004288  -0.000046  -0.000538
   58  O  8  Z    0.000865   0.000867  -0.000811   0.000292   0.000733
   59  C  9  S   -0.001700  -0.003179  -0.007688   0.988280   0.005366
   60  C  9  S   -0.001652  -0.000750  -0.003989   0.105687  -0.001736
   61  C  9  X    0.000206   0.000966  -0.000437  -0.000360  -0.000024
   62  C  9  Y   -0.000023  -0.000243   0.000054  -0.000559  -0.000020
   63  C  9  Z   -0.000131  -0.000289   0.000092  -0.000670   0.000019
   64  C  9  S    0.008162  -0.002262   0.026680  -0.097748   0.020205
   65  C  9  X   -0.004811  -0.001666  -0.013585   0.002011   0.011560
   66  C  9  Y   -0.001373   0.001519  -0.006081   0.009356  -0.006857
   67  C  9  Z   -0.000342   0.002195  -0.002948   0.008840  -0.004324
   68  H 10  S   -0.000586  -0.000071  -0.001525   0.000925  -0.001417
   69  H 10  S   -0.000085  -0.001353   0.000288   0.013312   0.001036
   70  O 11  S    0.000026   0.000036   0.000028  -0.000281   0.000019
   71  O 11  S    0.000198   0.000395  -0.000091  -0.001131  -0.000185
   72  O 11  X   -0.000079  -0.000141   0.000231  -0.000048  -0.000323
   73  O 11  Y   -0.000005   0.000013   0.000394  -0.000317   0.000638
   74  O 11  Z   -0.000021  -0.000008  -0.000011   0.000382   0.000107
   75  O 11  S   -0.000807  -0.001099  -0.001205   0.010996  -0.000933
   76  O 11  X    0.000590   0.000808   0.000243  -0.000411   0.000710
   77  O 11  Y    0.000318  -0.000191  -0.000087  -0.005207  -0.001236
   78  O 11  Z   -0.000080  -0.000169  -0.000128   0.000757  -0.000440
   79  C 12  S   -0.000406  -0.001865  -0.003492  -0.006332   0.987631
   80  C 12  S   -0.000298  -0.001341  -0.001215  -0.003916   0.101533
   81  C 12  X    0.000180   0.000333   0.000756  -0.000688  -0.000831
   82  C 12  Y    0.000002   0.000137   0.000127   0.000064   0.000196
   83  C 12  Z   -0.000042  -0.000026  -0.000105   0.000344   0.000164
   84  C 12  S    0.000490   0.004518   0.000279   0.027626  -0.079029
   85  C 12  X   -0.000400  -0.003422  -0.000168  -0.012280   0.008794
   86  C 12  Y    0.000038   0.000119  -0.001378   0.008632  -0.002145
   87  C 12  Z    0.000177   0.000483  -0.000273   0.003790  -0.002574
   88  O 13  S   -0.000012  -0.000014  -0.000041   0.000059  -0.000170
   89  O 13  S   -0.000130  -0.000151  -0.000435   0.000198  -0.000328
   90  O 13  X    0.000075  -0.000020   0.000290   0.000207  -0.000583
   91  O 13  Y    0.000002   0.000087   0.000017   0.000112  -0.000177
   92  O 13  Z   -0.000031   0.000016  -0.000113  -0.000078  -0.000177
   93  O 13  S    0.000304   0.000653   0.001029  -0.002112   0.007292
   94  O 13  X   -0.000309   0.000057  -0.001299   0.001122  -0.002158
   95  O 13  Y   -0.000027  -0.000433  -0.000132  -0.000353  -0.001807
   96  O 13  Z    0.000095  -0.000116   0.000385   0.000192   0.000065
   97  H 14  S   -0.000962  -0.000896  -0.000361  -0.000620  -0.000084
   98  H 14  S    0.013501   0.003039   0.000168  -0.000065   0.000134
   99  H 15  S   -0.000355  -0.000822  -0.000188   0.000090   0.000015
  100  H 15  S    0.002070   0.002907   0.000141  -0.000006  -0.000103
  101  H 16  S   -0.000033  -0.000631  -0.000713  -0.000481   0.000192
  102  H 16  S   -0.000632  -0.000155   0.003073   0.000918  -0.000957
  103  H 17  S    0.000170  -0.000146  -0.000473  -0.000705   0.000466
  104  H 17  S    0.000163   0.001266   0.001180   0.003153   0.001489
  105  H 18  S   -0.000061  -0.000444  -0.000109  -0.001390   0.000146
  106  H 18  S   -0.000024  -0.000149  -0.000973   0.001389   0.015073
  107  H 19  S   -0.000075  -0.000586  -0.000035  -0.001839   0.000383
  108  H 19  S    0.000130   0.000166  -0.000954  -0.000369   0.014675
  109  H 20  S   -0.000096   0.000099  -0.000462  -0.000115  -0.000086
  110  H 20  S    0.000264   0.000036   0.001373   0.000849   0.002524

                     11         12         13         14         15
                   -1.4505    -1.3960    -1.3799    -1.3531    -1.3115
                     A          A          A          A          A   
    1  O  1  S   -0.192588   0.078975  -0.048870  -0.019282   0.005032
    2  O  1  S    0.181772  -0.074137   0.045777   0.018268  -0.004790
    3  O  1  X    0.073841  -0.023616   0.013346   0.004382  -0.000766
    4  O  1  Y   -0.062523   0.028514  -0.019402  -0.007657   0.002290
    5  O  1  Z    0.053239  -0.019457   0.011198   0.004235  -0.000913
    6  O  1  S    0.604815  -0.260967   0.164346   0.064784  -0.017346
    7  O  1  X    0.084541  -0.029977   0.016486   0.006025  -0.001151
    8  O  1  Y   -0.064405   0.032839  -0.023701  -0.009591   0.003007
    9  O  1  Z    0.060138  -0.023166   0.014978   0.004964  -0.001232
   10  C  2  S   -0.111090   0.029880  -0.020728  -0.004858   0.000948
   11  C  2  S    0.122541  -0.032598   0.022757   0.005923  -0.000940
   12  C  2  X   -0.067393   0.049794  -0.029774  -0.014845   0.004607
   13  C  2  Y    0.093148  -0.029091   0.012499   0.005007  -0.000652
   14  C  2  Z   -0.057466   0.031889  -0.019629  -0.009368   0.002841
   15  C  2  S    0.123809  -0.034370   0.022204   0.006685  -0.001550
   16  C  2  X    0.026143  -0.009414   0.011656   0.002225  -0.000785
   17  C  2  Y   -0.035711   0.034825  -0.025241  -0.009417   0.003049
   18  C  2  Z    0.019349  -0.016346   0.008382   0.004626  -0.001415
   19  C  3  S   -0.044834  -0.053814   0.033296   0.020343  -0.005555
   20  C  3  S    0.043063   0.059122  -0.034590  -0.020439   0.007335
   21  C  3  X   -0.018976   0.016691   0.004928   0.001326  -0.003053
   22  C  3  Y    0.018638   0.033690  -0.060669  -0.018240   0.008349
   23  C  3  Z   -0.017288  -0.014758   0.008033   0.004409  -0.000945
   24  C  3  S    0.080718   0.088146  -0.070106  -0.049678   0.006124
   25  C  3  X   -0.006155   0.000371  -0.006709  -0.001399  -0.004618
   26  C  3  Y    0.012008  -0.035280   0.009024   0.013393  -0.000536
   27  C  3  Z   -0.015837   0.023428  -0.000438   0.002553   0.000252
   28  H  4  S    0.013299   0.014536  -0.007392  -0.005656   0.001998
   29  H  4  S   -0.003762  -0.011867   0.005741   0.001385   0.000147
   30  O  5  S   -0.078900  -0.133293   0.146031   0.058489  -0.021753
   31  O  5  S    0.074239   0.120024  -0.133979  -0.054797   0.020760
   32  O  5  X   -0.019690  -0.020938   0.028198   0.017881  -0.009971
   33  O  5  Y   -0.023464  -0.031438   0.029912   0.013148  -0.004491
   34  O  5  Z   -0.008354  -0.011340   0.012897   0.004181  -0.001130
   35  O  5  S    0.233911   0.434821  -0.466832  -0.186792   0.069708
   36  O  5  X   -0.024972  -0.026717   0.033832   0.025673  -0.013967
   37  O  5  Y   -0.024874  -0.049759   0.047225   0.019778  -0.007504
   38  O  5  Z   -0.010416  -0.012845   0.015426   0.003424  -0.000939
   39  C  6  S   -0.013001  -0.063233  -0.046929   0.001046   0.006399
   40  C  6  S    0.016572   0.064351   0.049904  -0.000536  -0.004391
   41  C  6  X   -0.009112  -0.002874   0.001544   0.021728  -0.006942
   42  C  6  Y    0.001517  -0.029505  -0.060059   0.021425  -0.009831
   43  C  6  Z    0.002741   0.021745   0.016001  -0.005736  -0.000129
   44  C  6  S    0.017029   0.110411   0.089457  -0.001603  -0.014257
   45  C  6  X    0.022255  -0.005648  -0.003677  -0.013220  -0.007284
   46  C  6  Y    0.007338   0.029236   0.003899   0.012796  -0.005005
   47  C  6  Z    0.009198  -0.020888   0.010505   0.002092   0.008375
   48  H  7  S    0.006166   0.017190   0.014474   0.001321  -0.001420
   49  H  7  S    0.005718  -0.014182   0.000499   0.002063   0.002652
   50  O  8  S   -0.014845  -0.136984  -0.166328   0.042846  -0.007512
   51  O  8  S    0.013692   0.126218   0.154586  -0.040680   0.007152
   52  O  8  X    0.000721   0.014056   0.018152  -0.002460   0.000250
   53  O  8  Y    0.005689   0.038312   0.041078  -0.008819   0.000636
   54  O  8  Z    0.002294   0.022687   0.028510  -0.008135   0.001771
   55  O  8  S    0.047190   0.435324   0.521944  -0.132247   0.023269
   56  O  8  X   -0.000465   0.019757   0.020777  -0.004394   0.002705
   57  O  8  Y    0.006858   0.055145   0.060649  -0.013194   0.001585
   58  O  8  Z    0.000442   0.024957   0.032514  -0.010042   0.000980
   59  C  9  S   -0.005123  -0.036238  -0.005733  -0.069482   0.025492
   60  C  9  S    0.008137   0.036889   0.005396   0.071561  -0.028537
   61  C  9  X   -0.002801  -0.010765  -0.008294   0.015549   0.019665
   62  C  9  Y    0.001610   0.009059  -0.013786   0.050294  -0.044069
   63  C  9  Z   -0.001735  -0.011942   0.000786  -0.029216   0.013039
   64  C  9  S   -0.010016   0.060556   0.009979   0.132997  -0.042951
   65  C  9  X    0.007611  -0.001337   0.008601   0.002659   0.009297
   66  C  9  Y    0.003549  -0.018259  -0.011088  -0.007335   0.007477
   67  C  9  Z    0.004416   0.019456   0.000983  -0.000504  -0.005803
   68  H 10  S    0.002016   0.009024   0.001621   0.020206  -0.006982
   69  H 10  S   -0.000553  -0.008976   0.000299  -0.006760   0.005244
   70  O 11  S   -0.009647  -0.061039   0.016133  -0.174171   0.118096
   71  O 11  S    0.008618   0.055303  -0.015432   0.159816  -0.108200
   72  O 11  X   -0.003646  -0.017248   0.006197  -0.034368   0.034144
   73  O 11  Y   -0.001357  -0.010976  -0.000861  -0.030484   0.011259
   74  O 11  Z    0.001743   0.009987  -0.002751   0.026638  -0.017080
   75  O 11  S    0.030220   0.193758  -0.045858   0.548173  -0.381931
   76  O 11  X   -0.004692  -0.017844   0.007040  -0.044063   0.046358
   77  O 11  Y   -0.003244  -0.018483   0.003454  -0.039776   0.021875
   78  O 11  Z    0.002189   0.014743  -0.002482   0.036463  -0.025766
   79  C 12  S   -0.001303  -0.013370  -0.002823  -0.050018  -0.059425
   80  C 12  S    0.001414   0.014203   0.003622   0.053600   0.063686
   81  C 12  X   -0.001111  -0.003227  -0.001670   0.013731   0.058187
   82  C 12  Y    0.000773   0.007538  -0.000544   0.034629   0.034051
   83  C 12  Z    0.000514   0.003835   0.001286   0.010077   0.009866
   84  C 12  S    0.003826   0.019165  -0.003245   0.079677   0.106760
   85  C 12  X   -0.000269  -0.003871  -0.002018  -0.001832  -0.004261
   86  C 12  Y    0.001304   0.005550  -0.003405   0.005740  -0.011374
   87  C 12  Z   -0.001366  -0.009748  -0.004649  -0.008120   0.004796
   88  O 13  S   -0.001109  -0.017073  -0.001136  -0.105601  -0.193045
   89  O 13  S    0.001279   0.015832   0.000547   0.098197   0.177682
   90  O 13  X   -0.000695  -0.007217  -0.000428  -0.038027  -0.057047
   91  O 13  Y    0.000130   0.001635  -0.000143   0.009873   0.015378
   92  O 13  Z   -0.000095  -0.001866  -0.000047  -0.010763  -0.018795
   93  O 13  S    0.002534   0.051501   0.006023   0.324249   0.613963
   94  O 13  X    0.000097  -0.008956  -0.001321  -0.049192  -0.079289
   95  O 13  Y    0.000183   0.000357  -0.001024   0.008967   0.016461
   96  O 13  Z   -0.000074  -0.000702  -0.000114  -0.012129  -0.026927
   97  H 14  S    0.022025  -0.003017   0.004395   0.000237   0.000014
   98  H 14  S   -0.024736   0.019194  -0.005154  -0.004811   0.001103
   99  H 15  S    0.040696   0.050375  -0.059967  -0.026172   0.011088
  100  H 15  S    0.004126   0.003624  -0.005034  -0.001051   0.000347
  101  H 16  S    0.006609   0.061268   0.074564  -0.018924   0.003445
  102  H 16  S    0.000240   0.008408   0.013493  -0.005799   0.001977
  103  H 17  S    0.008267   0.033433  -0.014880   0.067166  -0.051510
  104  H 17  S    0.001807   0.007621  -0.011285   0.001153  -0.004446
  105  H 18  S    0.000512   0.005028   0.001683   0.015062   0.017653
  106  H 18  S    0.000472   0.004828   0.003494  -0.003132  -0.006296
  107  H 19  S    0.000457   0.003362   0.000755   0.014832   0.017486
  108  H 19  S   -0.001507  -0.003829  -0.001028  -0.005795  -0.003803
  109  H 20  S    0.000920   0.009009   0.000178   0.050553   0.081310
  110  H 20  S   -0.000472   0.002623  -0.000748   0.011165   0.005259

                     16         17         18         19         20
                   -1.0806    -1.0160    -0.9162    -0.8311    -0.8203
                     A          A          A          A          A   
    1  O  1  S    0.034473  -0.039073  -0.049862  -0.037442   0.051001
    2  O  1  S   -0.033185   0.038385   0.048874   0.037386  -0.050383
    3  O  1  X    0.010589  -0.017452  -0.033233  -0.025881   0.029505
    4  O  1  Y   -0.002371   0.006752   0.022434   0.057577  -0.082593
    5  O  1  Z    0.004341  -0.010697  -0.029348  -0.009909   0.035138
    6  O  1  S   -0.121826   0.139526   0.187559   0.141256  -0.195273
    7  O  1  X    0.006483  -0.010554  -0.024916  -0.023263   0.026631
    8  O  1  Y    0.001414   0.004174   0.017786   0.051340  -0.073546
    9  O  1  Z    0.000880  -0.007024  -0.023572  -0.008974   0.032550
   10  C  2  S   -0.055466   0.068021   0.088086   0.066830  -0.089850
   11  C  2  S    0.072118  -0.079969  -0.101812  -0.073255   0.100971
   12  C  2  X    0.082880  -0.078736  -0.058561   0.008012  -0.031172
   13  C  2  Y   -0.012768   0.016791   0.029009   0.086661  -0.098386
   14  C  2  Z    0.039997  -0.046236  -0.052872   0.015702   0.005584
   15  C  2  S    0.090137  -0.152572  -0.237439  -0.233065   0.297576
   16  C  2  X    0.002390  -0.030030  -0.043068  -0.036346   0.025449
   17  C  2  Y   -0.027442   0.023537   0.026668   0.073807  -0.088016
   18  C  2  Z    0.006387  -0.021429  -0.038947  -0.009851   0.032301
   19  C  3  S   -0.127152   0.092948   0.032107  -0.075059   0.059477
   20  C  3  S    0.123041  -0.080663  -0.024857   0.066578  -0.053564
   21  C  3  X    0.013260   0.055277   0.135472   0.036396  -0.066348
   22  C  3  Y   -0.072838   0.047074   0.003039   0.050140  -0.016173
   23  C  3  Z   -0.018790   0.002085  -0.023829   0.115123  -0.025956
   24  C  3  S    0.354800  -0.313228  -0.136752   0.304977  -0.227607
   25  C  3  X   -0.025864   0.006827   0.042642   0.019065  -0.021245
   26  C  3  Y   -0.036242   0.042958   0.014751  -0.010590   0.026364
   27  C  3  Z   -0.026258   0.018196  -0.003944   0.068269  -0.016467
   28  H  4  S    0.069365  -0.054510  -0.029529   0.108340  -0.052984
   29  H  4  S    0.001638  -0.002237  -0.007652   0.051686  -0.016440
   30  O  5  S    0.060047  -0.037034  -0.009364   0.019319  -0.018215
   31  O  5  S   -0.052705   0.032382   0.008597  -0.017326   0.016492
   32  O  5  X    0.022192  -0.011404   0.038196   0.032651  -0.051568
   33  O  5  Y   -0.054054   0.039377   0.010569  -0.085064   0.069320
   34  O  5  Z    0.020986  -0.016810  -0.013928   0.083228  -0.035538
   35  O  5  S   -0.230844   0.148525   0.038801  -0.085408   0.078626
   36  O  5  X    0.025621  -0.010363   0.038713   0.033580  -0.052906
   37  O  5  Y   -0.021676   0.018586   0.004008  -0.079538   0.067792
   38  O  5  Z    0.019719  -0.015489  -0.011044   0.078725  -0.035822
   39  C  6  S   -0.119802  -0.032210  -0.120557   0.064567   0.013910
   40  C  6  S    0.120962   0.032283   0.101945  -0.056610  -0.009638
   41  C  6  X   -0.016186   0.111497   0.009081   0.027763   0.090949
   42  C  6  Y    0.068558   0.006778   0.028970   0.067256   0.006474
   43  C  6  Z    0.010441  -0.009878  -0.022654   0.130836   0.015705
   44  C  6  S    0.298518   0.085587   0.436132  -0.280006  -0.064681
   45  C  6  X    0.007576  -0.017954  -0.005326   0.016915   0.036104
   46  C  6  Y    0.026845   0.009731   0.043697   0.012412  -0.008172
   47  C  6  Z    0.022012   0.002760  -0.001322   0.082243   0.019498
   48  H  7  S    0.066989   0.018331   0.081697  -0.112819  -0.020559
   49  H  7  S    0.000757   0.001833   0.012439  -0.045308  -0.011002
   50  O  8  S    0.068928   0.014205   0.028920  -0.005172   0.000612
   51  O  8  S   -0.060703  -0.013341  -0.024566   0.004258  -0.000655
   52  O  8  X   -0.014087   0.028565  -0.003223   0.025792   0.019998
   53  O  8  Y    0.047652   0.008917   0.067827  -0.059472  -0.015611
   54  O  8  Z   -0.037178  -0.011953  -0.055114   0.120075   0.022363
   55  O  8  S   -0.261109  -0.054333  -0.128463   0.027538  -0.001372
   56  O  8  X   -0.014922   0.028722  -0.003129   0.024848   0.014743
   57  O  8  Y    0.016462   0.003912   0.046060  -0.051459  -0.014053
   58  O  8  Z   -0.034238  -0.009872  -0.046129   0.107540   0.021019
   59  C  9  S   -0.073309  -0.123585   0.012451  -0.061430  -0.097503
   60  C  9  S    0.074999   0.115067  -0.012093   0.051618   0.083672
   61  C  9  X   -0.040985   0.017983  -0.131873   0.002208  -0.024796
   62  C  9  Y   -0.044393  -0.074556   0.011044   0.027022   0.019926
   63  C  9  Z   -0.001626  -0.009606   0.009862   0.083043   0.062827
   64  C  9  S    0.170356   0.362409  -0.041879   0.252338   0.382258
   65  C  9  X    0.004712  -0.021763  -0.020929  -0.014128  -0.001817
   66  C  9  Y   -0.012886  -0.051059   0.007944  -0.002989  -0.017941
   67  C  9  Z   -0.010460  -0.006505  -0.002084   0.050750   0.030616
   68  H 10  S    0.038509   0.064707  -0.009215   0.084524   0.095132
   69  H 10  S    0.002916  -0.000782  -0.000110   0.039216   0.036514
   70  O 11  S    0.046774   0.056836   0.008459   0.016720   0.027462
   71  O 11  S   -0.042194  -0.048722  -0.008394  -0.016076  -0.023518
   72  O 11  X    0.008574   0.022097  -0.036930   0.022019   0.034770
   73  O 11  Y   -0.032865  -0.058405   0.014848  -0.039041  -0.077380
   74  O 11  Z    0.001520   0.006297  -0.000388   0.041174   0.041789
   75  O 11  S   -0.169787  -0.223371  -0.029624  -0.069626  -0.124914
   76  O 11  X    0.007446   0.025940  -0.031885   0.021109   0.039077
   77  O 11  Y   -0.010146  -0.031680   0.012234  -0.032035  -0.066266
   78  O 11  Z   -0.002848   0.000961  -0.000313   0.036232   0.035131
   79  C 12  S   -0.031566  -0.099741   0.117313   0.040405   0.095799
   80  C 12  S    0.037210   0.102336  -0.112499  -0.036766  -0.086453
   81  C 12  X   -0.033582  -0.074708   0.034879  -0.012179  -0.043893
   82  C 12  Y    0.001595  -0.000048   0.019448   0.034113   0.077421
   83  C 12  Z    0.007202   0.017732  -0.004530   0.038989   0.049201
   84  C 12  S    0.059298   0.253623  -0.365740  -0.150282  -0.357001
   85  C 12  X    0.004078  -0.028873   0.042855   0.015082   0.022496
   86  C 12  Y   -0.008526  -0.011449   0.004690   0.015923   0.032240
   87  C 12  Z    0.002434   0.004941  -0.001036   0.018761   0.021116
   88  O 13  S    0.017587   0.049450  -0.049715  -0.007044  -0.022000
   89  O 13  S   -0.015644  -0.045440   0.044843   0.005957   0.018783
   90  O 13  X   -0.005525  -0.024366   0.043421   0.006632   0.028195
   91  O 13  Y   -0.010251  -0.036298   0.060527   0.032527   0.090499
   92  O 13  Z    0.002623   0.005657  -0.000993   0.013044   0.017604
   93  O 13  S   -0.063634  -0.181623   0.196789   0.032208   0.098590
   94  O 13  X    0.002094  -0.008238   0.027027   0.003012   0.018889
   95  O 13  Y   -0.004085  -0.023891   0.048206   0.030837   0.082985
   96  O 13  Z    0.001709   0.005732  -0.002715   0.011929   0.015513
   97  H 14  S    0.037959  -0.048601  -0.075530  -0.095670   0.123412
   98  H 14  S   -0.010985  -0.004127  -0.022250  -0.035113   0.044877
   99  H 15  S   -0.045745   0.030893  -0.005053  -0.058886   0.049503
  100  H 15  S   -0.032532   0.027150   0.012627  -0.030762   0.018935
  101  H 16  S   -0.051384  -0.006816  -0.048757   0.083866   0.019137
  102  H 16  S   -0.032442  -0.006635  -0.040272   0.055553   0.010156
  103  H 17  S   -0.031643  -0.043438   0.021930  -0.027491  -0.049150
  104  H 17  S   -0.033552  -0.021008   0.008361  -0.029373  -0.030044
  105  H 18  S    0.017857   0.058680  -0.081024  -0.032855  -0.089692
  106  H 18  S   -0.006137  -0.001233  -0.018269  -0.011530  -0.036729
  107  H 19  S    0.018798   0.055409  -0.072037  -0.048039  -0.088346
  108  H 19  S    0.001089   0.000927  -0.006054  -0.022116  -0.032735
  109  H 20  S   -0.011844  -0.036321   0.045905   0.019171   0.055363
  110  H 20  S   -0.014993  -0.031227   0.030560   0.009093   0.029128

                     21         22         23         24         25
                   -0.7676    -0.7129    -0.7086    -0.6823    -0.6769
                     A          A          A          A          A   
    1  O  1  S    0.002202   0.037037  -0.037268  -0.041134   0.007394
    2  O  1  S   -0.003344  -0.034660   0.034180   0.038236  -0.006934
    3  O  1  X   -0.097579   0.157243  -0.086885  -0.116878  -0.004915
    4  O  1  Y   -0.159558   0.012020   0.117996   0.081840   0.022430
    5  O  1  Z   -0.015242   0.058908  -0.064831  -0.135861   0.064419
    6  O  1  S    0.005651  -0.156491   0.154185   0.170662  -0.033456
    7  O  1  X   -0.085242   0.150540  -0.083878  -0.110610  -0.007258
    8  O  1  Y   -0.151857   0.009501   0.117722   0.085106   0.025870
    9  O  1  Z   -0.009418   0.052622  -0.061833  -0.139235   0.068768
   10  C  2  S   -0.025658  -0.028451   0.021663   0.019650  -0.010716
   11  C  2  S    0.031241   0.037809  -0.035681  -0.030885   0.010142
   12  C  2  X   -0.151428   0.052543   0.065998   0.080549  -0.030372
   13  C  2  Y   -0.181473   0.138574  -0.087499  -0.151883   0.008983
   14  C  2  Z   -0.039542  -0.033496   0.065681   0.011636   0.066103
   15  C  2  S    0.094739   0.062494  -0.027683  -0.028072   0.041925
   16  C  2  X   -0.090215   0.072316   0.010458  -0.002773  -0.020607
   17  C  2  Y   -0.186129   0.095336  -0.017891  -0.071721   0.011259
   18  C  2  Z   -0.005920  -0.001247   0.015790  -0.030836   0.051885
   19  C  3  S    0.013553   0.013196   0.007083  -0.006959   0.007689
   20  C  3  S   -0.015345  -0.009412  -0.005102   0.003985  -0.002142
   21  C  3  X    0.133801  -0.036569  -0.003052   0.083270  -0.064941
   22  C  3  Y    0.022167  -0.010073  -0.159485  -0.090968  -0.037529
   23  C  3  Z    0.070107  -0.141729   0.070280  -0.110130   0.164902
   24  C  3  S   -0.023035  -0.083071  -0.029353   0.030429  -0.043106
   25  C  3  X    0.090520  -0.013190  -0.013480   0.052786  -0.075152
   26  C  3  Y    0.027511   0.008688  -0.119019  -0.094174  -0.016252
   27  C  3  Z    0.053517  -0.137584   0.067867  -0.107212   0.148637
   28  H  4  S    0.029205  -0.090863   0.054271  -0.051002   0.103002
   29  H  4  S    0.020852  -0.048179   0.035157  -0.026674   0.069402
   30  O  5  S   -0.037128   0.021593  -0.000509   0.004986   0.005641
   31  O  5  S    0.034779  -0.021233   0.002815  -0.003866  -0.003668
   32  O  5  X    0.181019   0.011529  -0.109383  -0.013283  -0.116411
   33  O  5  Y    0.005965  -0.024439   0.179206   0.029915   0.110139
   34  O  5  Z    0.070458  -0.109683  -0.081636  -0.138780   0.029248
   35  O  5  S    0.150493  -0.086253   0.002282  -0.020929  -0.023175
   36  O  5  X    0.187308   0.016197  -0.108447  -0.009272  -0.121726
   37  O  5  Y    0.009883  -0.020192   0.177732   0.026284   0.113965
   38  O  5  Z    0.066362  -0.112677  -0.078576  -0.137517   0.026388
   39  C  6  S    0.000084  -0.004312  -0.009893  -0.001383  -0.023942
   40  C  6  S   -0.002514   0.004785   0.006838   0.002025   0.019326
   41  C  6  X    0.012880   0.044546  -0.056174  -0.075788   0.178149
   42  C  6  Y    0.038943   0.087572  -0.077235   0.159668   0.015599
   43  C  6  Z    0.064901   0.028086   0.113375   0.015190   0.027996
   44  C  6  S    0.003356   0.002343   0.032554  -0.017137   0.108905
   45  C  6  X    0.010113   0.052937  -0.046786  -0.054508   0.142290
   46  C  6  Y    0.037395   0.066250  -0.041077   0.116631   0.040301
   47  C  6  Z    0.043088   0.031869   0.099974   0.020531   0.053403
   48  H  7  S   -0.037405  -0.012729  -0.059712   0.003531  -0.006977
   49  H  7  S   -0.020000  -0.005666  -0.033885   0.006891   0.001737
   50  O  8  S    0.007919   0.013772   0.016957   0.015312   0.030003
   51  O  8  S   -0.008705  -0.012886  -0.016947  -0.012601  -0.028656
   52  O  8  X    0.006336   0.070922  -0.058713  -0.029459   0.129294
   53  O  8  Y   -0.005445  -0.052498   0.127355  -0.097002   0.022847
   54  O  8  Z    0.048059   0.121372  -0.037175   0.219412   0.091098
   55  O  8  S   -0.026712  -0.056098  -0.070404  -0.065365  -0.126900
   56  O  8  X    0.005001   0.070616  -0.057903  -0.032169   0.130581
   57  O  8  Y   -0.002489  -0.050703   0.129282  -0.100551   0.026017
   58  O  8  Z    0.043586   0.117527  -0.036918   0.220420   0.090162
   59  C  9  S    0.017200  -0.002388   0.001535   0.003774   0.014264
   60  C  9  S   -0.013385   0.003489   0.000322  -0.002124  -0.010224
   61  C  9  X   -0.055337  -0.102771   0.010304  -0.008078  -0.147739
   62  C  9  Y   -0.029289  -0.039628  -0.014335   0.048867  -0.082389
   63  C  9  Z    0.042781   0.087892   0.133979  -0.072505  -0.117507
   64  C  9  S   -0.081262  -0.009400  -0.000728  -0.023177  -0.090868
   65  C  9  X   -0.051254  -0.081630   0.014786  -0.000924  -0.080973
   66  C  9  Y   -0.008148  -0.025836  -0.009021   0.023149  -0.068984
   67  C  9  Z    0.041090   0.076384   0.095557  -0.065082  -0.103321
   68  H 10  S    0.010391   0.047150   0.078963  -0.044843  -0.091072
   69  H 10  S    0.007692   0.029232   0.057026  -0.029138  -0.055187
   70  O 11  S    0.013086   0.013980  -0.009596   0.005602  -0.007175
   71  O 11  S   -0.012243  -0.014873   0.009374  -0.005683   0.006472
   72  O 11  X   -0.093811  -0.148092  -0.023885   0.028772  -0.066178
   73  O 11  Y    0.076757   0.103981   0.093960  -0.087230   0.024943
   74  O 11  Z    0.009300   0.024558   0.043592  -0.025083  -0.092175
   75  O 11  S   -0.049770  -0.046419   0.038774  -0.022162   0.036805
   76  O 11  X   -0.093040  -0.154579  -0.022332   0.028244  -0.064582
   77  O 11  Y    0.068014   0.100884   0.091418  -0.088398   0.025825
   78  O 11  Z    0.010811   0.024098   0.042076  -0.025457  -0.089207
   79  C 12  S   -0.021444  -0.001741  -0.006717  -0.009554   0.007208
   80  C 12  S    0.017551   0.000522   0.006072   0.010135  -0.006301
   81  C 12  X    0.041161   0.065767   0.053100  -0.003762  -0.038960
   82  C 12  Y   -0.054722  -0.085485  -0.046022   0.028669  -0.037908
   83  C 12  Z    0.002389   0.046289   0.073866  -0.064964  -0.110134
   84  C 12  S    0.098074   0.025316   0.024635   0.028666  -0.025782
   85  C 12  X    0.011630   0.044106   0.032352   0.000638  -0.014753
   86  C 12  Y   -0.032217  -0.060847  -0.039497   0.027961  -0.019433
   87  C 12  Z    0.011539   0.048270   0.055036  -0.050957  -0.084048
   88  O 13  S   -0.006024  -0.022329  -0.004952   0.009639  -0.012743
   89  O 13  S    0.006413   0.022135   0.005387  -0.009373   0.012727
   90  O 13  X    0.007232   0.037487  -0.001665  -0.018201   0.062991
   91  O 13  Y   -0.053500  -0.087053  -0.066761   0.011346   0.053531
   92  O 13  Z    0.001980   0.025937   0.035983  -0.035721  -0.059473
   93  O 13  S    0.019684   0.086271   0.017512  -0.040412   0.050099
   94  O 13  X    0.010275   0.041219  -0.000859  -0.018556   0.065465
   95  O 13  Y   -0.049203  -0.082296  -0.064601   0.013070   0.050058
   96  O 13  Z    0.001066   0.023511   0.034366  -0.034490  -0.058307
   97  H 14  S    0.123535  -0.055147   0.026413   0.059747   0.010481
   98  H 14  S    0.037952  -0.038166   0.028216   0.047490  -0.005960
   99  H 15  S   -0.101510   0.022031   0.117518   0.055649   0.068070
  100  H 15  S   -0.063729   0.000969   0.117310   0.067207   0.055217
  101  H 16  S    0.026626   0.090127  -0.056005   0.133175   0.068828
  102  H 16  S    0.021028   0.068728  -0.049299   0.110027   0.047378
  103  H 17  S    0.081412   0.101568   0.042296  -0.042977   0.024687
  104  H 17  S    0.066964   0.057884   0.039401  -0.035175   0.016491
  105  H 18  S    0.043724   0.060696   0.051161  -0.024358  -0.016662
  106  H 18  S    0.020973   0.039701   0.025585  -0.018821  -0.003739
  107  H 19  S    0.012571  -0.024995  -0.040133   0.042937   0.067277
  108  H 19  S    0.005052  -0.013131  -0.027185   0.027064   0.049363
  109  H 20  S   -0.034478  -0.058251  -0.042741   0.011362   0.034252
  110  H 20  S   -0.022532  -0.037858  -0.024052   0.000340   0.031977

                     26         27         28         29         30
                   -0.6421    -0.6238    -0.6013    -0.5871    -0.5715
                     A          A          A          A          A   
    1  O  1  S   -0.049133  -0.013897  -0.000022   0.005504  -0.010012
    2  O  1  S    0.046113   0.012652   0.001421  -0.005037   0.008096
    3  O  1  X   -0.168876  -0.004304  -0.060586   0.053899   0.015635
    4  O  1  Y    0.189943   0.068268  -0.078387  -0.004912   0.118805
    5  O  1  Z   -0.101274  -0.059773  -0.044688   0.070457   0.007107
    6  O  1  S    0.203798   0.061919  -0.008343  -0.019118   0.052365
    7  O  1  X   -0.176667  -0.004909  -0.058866   0.051040   0.012785
    8  O  1  Y    0.198143   0.067906  -0.071503  -0.016814   0.121012
    9  O  1  Z   -0.104865  -0.065602  -0.047658   0.075836   0.008132
   10  C  2  S    0.004292  -0.004659   0.008652   0.000576  -0.018308
   11  C  2  S   -0.021544   0.001098  -0.008295   0.003729   0.015150
   12  C  2  X    0.138199   0.089757  -0.039654  -0.012476   0.086882
   13  C  2  Y   -0.132747  -0.014250  -0.056974   0.086606   0.011624
   14  C  2  Z    0.138974   0.011665  -0.035069   0.009123   0.061267
   15  C  2  S    0.067578   0.036309  -0.040688  -0.010609   0.100868
   16  C  2  X    0.034052   0.052027  -0.070021   0.024290   0.071396
   17  C  2  Y   -0.036944  -0.006257  -0.060360   0.054211   0.007124
   18  C  2  Z    0.057542  -0.004147  -0.050658   0.032138   0.057483
   19  C  3  S   -0.003236  -0.003719  -0.010299   0.001303   0.015449
   20  C  3  S    0.002136   0.002036   0.011738  -0.003067  -0.012432
   21  C  3  X   -0.139892  -0.026137   0.034205  -0.001465  -0.068679
   22  C  3  Y    0.084239  -0.005248   0.071578  -0.131488  -0.004453
   23  C  3  Z   -0.001055  -0.081001  -0.028358   0.091447  -0.056592
   24  C  3  S    0.035452   0.021452   0.038206  -0.005148  -0.086655
   25  C  3  X   -0.089278  -0.000272  -0.033717   0.037089  -0.035494
   26  C  3  Y    0.046082  -0.007980   0.048835  -0.085444   0.014690
   27  C  3  Z    0.007566  -0.093071  -0.047269   0.113866  -0.052723
   28  H  4  S   -0.012133  -0.051686  -0.016619   0.079844  -0.060437
   29  H  4  S   -0.017511  -0.034385  -0.006875   0.065369  -0.048791
   30  O  5  S    0.008698  -0.005691   0.012679  -0.024320  -0.024656
   31  O  5  S   -0.008161   0.006231  -0.012691   0.027504   0.023573
   32  O  5  X    0.013003   0.123852  -0.114719   0.116266   0.170674
   33  O  5  Y   -0.079926  -0.033987  -0.109571   0.209322   0.012437
   34  O  5  Z    0.059013  -0.046263   0.023437   0.015135   0.030263
   35  O  5  S   -0.043146   0.018729  -0.057776   0.102458   0.106194
   36  O  5  X    0.029223   0.138604  -0.142014   0.133606   0.201035
   37  O  5  Y   -0.093259  -0.035770  -0.122507   0.243070   0.013584
   38  O  5  Z    0.066097  -0.046187   0.028179   0.012471   0.037688
   39  C  6  S    0.022016   0.013814  -0.030843  -0.002680  -0.001307
   40  C  6  S   -0.017019  -0.009024   0.023740   0.002057   0.002676
   41  C  6  X    0.110807  -0.005657   0.001434  -0.061324   0.053045
   42  C  6  Y    0.010098  -0.055970  -0.023659   0.064999  -0.100249
   43  C  6  Z   -0.150187   0.059918  -0.016750  -0.155875   0.096693
   44  C  6  S   -0.092842  -0.075451   0.162402   0.025388  -0.016107
   45  C  6  X    0.075004   0.022395   0.038902  -0.075209   0.054712
   46  C  6  Y   -0.016128  -0.035495   0.016074   0.059737  -0.033815
   47  C  6  Z   -0.181087   0.057748   0.049895  -0.161343   0.118240
   48  H  7  S    0.071267  -0.049347   0.036550   0.117904  -0.074829
   49  H  7  S    0.032513  -0.027097   0.040926   0.081223  -0.054596
   50  O  8  S   -0.024230   0.010049   0.038889   0.000923   0.021667
   51  O  8  S    0.024202  -0.011591  -0.035863   0.003010  -0.027191
   52  O  8  X    0.074197   0.038821   0.143597  -0.049188   0.056206
   53  O  8  Y   -0.140120   0.063263   0.085482  -0.127041   0.185477
   54  O  8  Z   -0.090341  -0.008279   0.104472   0.073075   0.047641
   55  O  8  S    0.107967  -0.036323  -0.179827  -0.009037  -0.079734
   56  O  8  X    0.077893   0.044430   0.161352  -0.053929   0.061913
   57  O  8  Y   -0.149202   0.073183   0.093654  -0.141318   0.223478
   58  O  8  Z   -0.092648  -0.011034   0.109429   0.082292   0.051574
   59  C  9  S   -0.021988   0.004838   0.032744   0.001212  -0.008805
   60  C  9  S    0.014454  -0.006171  -0.030084  -0.000898   0.007799
   61  C  9  X   -0.029988   0.065151   0.045639   0.111924   0.032508
   62  C  9  Y   -0.027298  -0.143477  -0.090549  -0.062051  -0.040896
   63  C  9  Z   -0.001607   0.054714  -0.023967  -0.046420  -0.119377
   64  C  9  S    0.109389  -0.024937  -0.148230  -0.002239   0.015840
   65  C  9  X   -0.065504   0.059509   0.119138   0.097005   0.031440
   66  C  9  Y   -0.024276  -0.095747  -0.069841  -0.052647  -0.051579
   67  C  9  Z    0.018444   0.059710  -0.042063  -0.043182  -0.122113
   68  H 10  S    0.012119   0.031460  -0.043913  -0.022617  -0.076741
   69  H 10  S   -0.001670   0.019267  -0.015938  -0.014419  -0.065652
   70  O 11  S    0.015588   0.001161  -0.050895   0.014107   0.008723
   71  O 11  S   -0.015226   0.001941   0.046384  -0.008109  -0.006356
   72  O 11  X   -0.102423  -0.012056   0.158496  -0.035969  -0.045789
   73  O 11  Y    0.017297   0.176769   0.071131   0.036208  -0.064584
   74  O 11  Z    0.011589  -0.021293  -0.101923  -0.034304  -0.090450
   75  O 11  S   -0.063564  -0.007624   0.231491  -0.078932  -0.048426
   76  O 11  X   -0.111037  -0.006991   0.171505  -0.034340  -0.050946
   77  O 11  Y    0.019549   0.185203   0.080824   0.036092  -0.074402
   78  O 11  Z    0.011956  -0.024367  -0.109798  -0.036814  -0.094091
   79  C 12  S    0.016794  -0.012646   0.006539  -0.006286   0.001400
   80  C 12  S   -0.016430   0.010314  -0.003221   0.008611   0.000333
   81  C 12  X   -0.005643  -0.164289  -0.010563  -0.067326   0.030026
   82  C 12  Y   -0.028884  -0.011434  -0.055414   0.057470   0.191507
   83  C 12  Z    0.063924  -0.043110   0.190555   0.148538   0.047147
   84  C 12  S   -0.049976   0.042237  -0.066899  -0.002585  -0.029452
   85  C 12  X    0.006092  -0.136871  -0.005171  -0.050094   0.036136
   86  C 12  Y   -0.026672   0.003994  -0.050161   0.036426   0.146651
   87  C 12  Z    0.065653  -0.053567   0.149134   0.130821   0.039021
   88  O 13  S   -0.021462   0.026566  -0.001432   0.011091  -0.000809
   89  O 13  S    0.020486  -0.023420   0.003418  -0.010977  -0.002427
   90  O 13  X    0.048688  -0.006334  -0.008732  -0.076213  -0.105862
   91  O 13  Y   -0.027731   0.269547   0.006980   0.065853  -0.135386
   92  O 13  Z    0.048220  -0.045604   0.131332   0.115510   0.035038
   93  O 13  S    0.090597  -0.112136  -0.000370  -0.044422   0.007555
   94  O 13  X    0.053488  -0.004733  -0.013113  -0.081117  -0.115038
   95  O 13  Y   -0.025875   0.268725   0.000064   0.070974  -0.140079
   96  O 13  Z    0.047795  -0.045553   0.136227   0.120066   0.034602
   97  H 14  S    0.068185   0.004755   0.025302  -0.055826   0.009104
   98  H 14  S    0.064134  -0.005901  -0.010752  -0.042396  -0.012081
   99  H 15  S   -0.042257  -0.048589   0.017025  -0.012565  -0.080673
  100  H 15  S   -0.005408  -0.027761  -0.014089   0.011262  -0.043701
  101  H 16  S   -0.012997  -0.008310   0.076364   0.053864   0.008634
  102  H 16  S    0.003151  -0.012495   0.058427   0.069017  -0.013778
  103  H 17  S    0.049057   0.078794  -0.061837   0.044023   0.012078
  104  H 17  S    0.019297   0.092182  -0.048957   0.082185   0.039361
  105  H 18  S    0.018771  -0.003478   0.086449   0.011978  -0.105356
  106  H 18  S    0.020503   0.000235   0.082110  -0.000055  -0.094503
  107  H 19  S   -0.047004   0.055897  -0.119572  -0.084916  -0.056528
  108  H 19  S   -0.026023   0.027968  -0.093352  -0.070039  -0.051999
  109  H 20  S   -0.027155   0.160929  -0.000603   0.027498  -0.081597
  110  H 20  S   -0.020937   0.132250   0.035605   0.009297  -0.095376

                     31         32         33         34         35
                   -0.5528    -0.5493    -0.5436    -0.5247    -0.5011
                     A          A          A          A          A   
    1  O  1  S   -0.003830   0.003299  -0.005187  -0.000776   0.000707
    2  O  1  S    0.004698  -0.001960   0.003656   0.001775   0.001621
    3  O  1  X   -0.005977  -0.187999  -0.059800  -0.017465  -0.076167
    4  O  1  Y    0.036980  -0.010170   0.125825  -0.031086  -0.125461
    5  O  1  Z   -0.000426   0.251441   0.191805  -0.003470  -0.060616
[...]
   10             0.001377   0.019831   0.058608   0.018028   0.068899
   11             0.132183   0.290683   0.094989   0.074520   0.109256
   12             0.051247   0.123022   0.093093   0.048746   0.125452
   13             0.027182   0.097994   0.049750   0.017568   0.090174
   14             0.107924   0.028438   0.008047   0.031721   0.000363
   15             0.087217   0.002474   0.123890   0.029548   0.036001
   16             0.006573   0.061544   0.020652   0.129500   0.033833
   17             0.068944   0.076027   0.013737   0.013080   0.003309
   18             0.016656   0.034622   0.020603   0.005941   0.001627
   19             0.001278   0.005425   0.015436   0.015552   0.043180
   20             0.010938   0.029701   0.013315   0.000635   0.008253

                     26         27         28         29         30

                  2.000000   2.000000   2.000000   2.000000   2.000000

    1             0.595095   0.064279   0.077600   0.052320   0.096593
    2             0.214930   0.042382   0.049225   0.040862   0.065156
    3             0.157321   0.056770   0.037006   0.150215   0.049829
    4             0.001718   0.021102   0.002224   0.054424   0.028583
    5             0.083469   0.142874   0.212580   0.468354   0.241617
    6             0.294930   0.051983   0.021815   0.231109   0.132365
    7             0.038302   0.017685   0.009554   0.107413   0.045860
    8             0.278533   0.048210   0.341358   0.177720   0.328322
    9             0.030258   0.176741   0.131064   0.119571   0.124386
   10             0.000859   0.008565   0.011356   0.003210   0.051522
   11             0.098187   0.245926   0.399180   0.030135   0.112142
   12             0.053577   0.221955   0.299691   0.226152   0.258598
   13             0.058714   0.602835   0.136734   0.186298   0.232448
   14             0.042614   0.000058   0.002232   0.022258   0.000215
   15             0.008032   0.013409   0.001983   0.001174   0.035256
   16             0.000648   0.000356   0.039573   0.026881   0.001215
   17             0.014093   0.062696   0.033877   0.033672   0.005207
   18             0.004638   0.000073   0.069355   0.000666   0.099736
   19             0.016966   0.023683   0.120406   0.063485   0.031558
   20             0.007118   0.198419   0.003185   0.004080   0.059390

                     31         32         33         34         35

                  2.000000   2.000000   2.000000   2.000000   2.000000

    1             0.009796   0.784453   0.440607   0.008953   0.165609
    2             0.009039   0.422906   0.198701   0.001273   0.008324
    3             0.023242   0.013826   0.045962   0.066896   0.049614
    4             0.004968  -0.000007   0.053284   0.033932   0.008761
    5             0.283805   0.400224   0.174095   0.560868   0.081182
    6             0.145601   0.008994   0.019039   0.014727   0.101948
    7             0.131395   0.002167   0.000568   0.002929   0.013982
    8             0.291724   0.007415   0.141320   0.998847   0.321255
    9             0.190219   0.023762   0.053687   0.055525   0.129352
   10             0.068345   0.004374   0.002269   0.003654   0.024142
   11             0.329402   0.061143   0.197440   0.193549   0.905643
   12             0.173139   0.081523   0.259863   0.015884   0.026521
   13             0.214999   0.138792   0.217398   0.003044   0.103340
   14             0.000507   0.000510   0.000241   0.014215   0.014036
   15             0.007993   0.010250   0.021819   0.000098   0.002520
   16             0.062506  -0.000005   0.002350   0.000248   0.010189
   17             0.000298   0.008324   0.027432   0.011211   0.027369
   18             0.027904   0.031048   0.129559   0.013455   0.000618
   19             0.024763   0.000149   0.001134   0.000060   0.000611
   20             0.000358   0.000153   0.013232   0.000633   0.004985

                     36         37         38         39         40

                  2.000000   2.000000   2.000000   2.000000   2.000000

    1             0.190552   0.689256   0.018690   0.131936   0.050796
    2             0.017589   0.080683   0.002385   0.038247   0.019736
    3             0.055361   0.253612   0.075491   0.104513   0.073026
    4             0.008948   0.111444   0.023542   0.000934   0.001945
    5             0.126840   0.349964   0.097031   0.084938   0.047264
    6             0.085911   0.059630   0.078461   0.208475   0.069176
    7             0.029000   0.044000   0.039915   0.006235   0.004991
    8             0.068090   0.104454   0.091994   0.264829   0.046904
    9             0.133177   0.006042   0.068724   0.157229   0.209786
   10             0.050823   0.000259   0.070310   0.109051   0.044294
   11             0.097622   0.093433   0.554576   0.613520   0.101994
   12             0.112069   0.002588   0.144542   0.040206   0.164635
   13             0.817579   0.032856   0.551893   0.139464   0.991005
   14             0.039044   0.148291   0.001175   0.021223   0.008656
   15             0.006895   0.012832   0.001436   0.007158   0.004079
   16             0.004814   0.003955   0.003710   0.002837   0.000149
   17             0.001423   0.000139   0.001974   0.001856   0.006440
   18             0.068053   0.002379   0.099591   0.008055   0.001290
   19             0.030773   0.002555   0.049019   0.056571   0.151860
   20             0.055438   0.001628   0.025542   0.002721   0.001971

               ----- POPULATIONS IN EACH AO -----
                             MULLIKEN      LOWDIN
              1  O  1  S      1.98704     1.98180
              2  O  1  S      0.43242     0.58957
              3  O  1  X      0.71171     0.70876
              4  O  1  Y      0.75934     0.75590
              5  O  1  Z      0.57872     0.57061
              6  O  1  S      1.55299     1.05636
              7  O  1  X      0.85316     0.87882
              8  O  1  Y      0.88726     0.91924
              9  O  1  Z      0.77434     0.78850
             10  C  2  S      1.98760     1.97733
             11  C  2  S      0.42470     0.45011
             12  C  2  X      0.53035     0.51439
             13  C  2  Y      0.60685     0.57222
             14  C  2  Z      0.37953     0.36856
             15  C  2  S      0.76565     0.56631
             16  C  2  X      0.23496     0.43653
             17  C  2  Y      0.39397     0.50478
             18  C  2  Z      0.33726     0.43212
             19  C  3  S      1.98998     1.97574
             20  C  3  S      0.35119     0.42890
             21  C  3  X      0.56496     0.55481
             22  C  3  Y      0.43400     0.42430
             23  C  3  Z      0.56527     0.53676
             24  C  3  S      1.04740     0.56468
             25  C  3  X      0.35060     0.52437
             26  C  3  Y      0.20575     0.41276
             27  C  3  Z      0.54399     0.57291
             28  H  4  S      0.46731     0.47906
             29  H  4  S      0.28216     0.42279
             30  O  5  S      1.98609     1.98007
             31  O  5  S      0.41072     0.56886
             32  O  5  X      0.70032     0.69626
             33  O  5  Y      0.59254     0.58545
             34  O  5  Z      0.79279     0.79695
             35  O  5  S      1.51696     1.03161
             36  O  5  X      0.91830     0.90165
             37  O  5  Y      0.79940     0.83908
             38  O  5  Z      0.98734     0.99090
             39  C  6  S      1.98983     1.97573
             40  C  6  S      0.35248     0.42651
             41  C  6  X      0.55363     0.54641
             42  C  6  Y      0.43019     0.41694
             43  C  6  Z      0.56158     0.53891
             44  C  6  S      1.01729     0.55946
             45  C  6  X      0.32737     0.51340
             46  C  6  Y      0.19731     0.41112
             47  C  6  Z      0.54856     0.56394
             48  H  7  S      0.47195     0.48572
             49  H  7  S      0.25978     0.41298
             50  O  8  S      1.98612     1.98051
             51  O  8  S      0.41581     0.57487
             52  O  8  X      0.82517     0.83393
             53  O  8  Y      0.61642     0.61248
             54  O  8  Z      0.63014     0.61412
             55  O  8  S      1.51703     1.04708
             56  O  8  X      1.03714     1.03465
             57  O  8  Y      0.83348     0.86781
             58  O  8  Z      0.79954     0.82067
             59  C  9  S      1.99004     1.97571
             60  C  9  S      0.35210     0.42545
             61  C  9  X      0.55899     0.54729
             62  C  9  Y      0.45203     0.44538
             63  C  9  Z      0.54155     0.51224
             64  C  9  S      1.02040     0.55728
             65  C  9  X      0.31761     0.50339
             66  C  9  Y      0.27915     0.44087
             67  C  9  Z      0.48882     0.55496
             68  H 10  S      0.47464     0.48942
             69  H 10  S      0.32598     0.44603
             70  O 11  S      1.98603     1.98019
             71  O 11  S      0.40971     0.57003
             72  O 11  X      0.70164     0.69945
             73  O 11  Y      0.58445     0.57541
             74  O 11  Z      0.79950     0.80797
             75  O 11  S      1.51943     1.04300
             76  O 11  X      0.93010     0.91245
             77  O 11  Y      0.77372     0.81450
             78  O 11  Z      1.01990     1.03186
             79  C 12  S      1.98840     1.97576
             80  C 12  S      0.36287     0.42230
             81  C 12  X      0.46457     0.45293
             82  C 12  Y      0.53187     0.50765
             83  C 12  Z      0.55921     0.52255
             84  C 12  S      1.00010     0.56943
             85  C 12  X      0.22000     0.42953
             86  C 12  Y      0.40289     0.51683
             87  C 12  Z      0.50767     0.57790
             88  O 13  S      1.98599     1.98048
             89  O 13  S      0.41536     0.57331
             90  O 13  X      0.65817     0.65760
             91  O 13  Y      0.57391     0.55375
             92  O 13  Z      0.84317     0.85427
             93  O 13  S      1.51433     1.05164
             94  O 13  X      0.89800     0.91748
             95  O 13  Y      0.73676     0.76470
             96  O 13  Z      1.05275     1.05344
             97  H 14  S      0.47247     0.47057
             98  H 14  S      0.26248     0.42985
             99  H 15  S      0.37843     0.39712
            100  H 15  S      0.19151     0.32346
            101  H 16  S      0.40998     0.42539
            102  H 16  S      0.21191     0.32334
            103  H 17  S      0.37139     0.38969
            104  H 17  S      0.18851     0.33902
            105  H 18  S      0.48148     0.48510
            106  H 18  S      0.31188     0.43488
            107  H 19  S      0.47799     0.48447
            108  H 19  S      0.32799     0.44613
            109  H 20  S      0.39660     0.41411
            110  H 20  S      0.19983     0.32536

          ----- MULLIKEN ATOMIC OVERLAP POPULATIONS -----
          (OFF-DIAGONAL ELEMENTS NEED TO BE MULTIPLIED BY 2)

             1           2           3           4           5

    1    8.1516293
    2    0.4748687   4.8425518
    3   -0.0801241   0.1596138   5.6415419
    4    0.0008323  -0.0394279   0.3579198   0.4982206
    5   -0.0079589  -0.0318451   0.2001433  -0.0269024   8.3104601
    6    0.0001501  -0.0754415   0.1180652  -0.0556925  -0.0360358
    7    0.0004368  -0.0013257  -0.0556187   0.0032557   0.0027642
    8    0.0000059   0.0000182  -0.0447401   0.0022243   0.0002020
    9   -0.0000260   0.0033776  -0.0772202  -0.0031303   0.0030470
   10    0.0000001  -0.0000297  -0.0047581   0.0022323   0.0000655
   11   -0.0000000  -0.0000589   0.0014785  -0.0000720  -0.0121295
   12    0.0000000  -0.0000549   0.0036126  -0.0000888  -0.0000241
   13   -0.0000000   0.0000000  -0.0000145   0.0000000  -0.0000000
   14   -0.0417692   0.3374976  -0.0878819   0.0029956   0.0013332
   15    0.0389350  -0.0091760  -0.0714038   0.0035631   0.2523806
   16   -0.0000007  -0.0002832  -0.0002087   0.0031356  -0.0000017
   17   -0.0000033   0.0005822  -0.0071104   0.0004014   0.0489478
   18   -0.0000000   0.0000005  -0.0000388   0.0000032   0.0000002
   19   -0.0000000   0.0000022  -0.0001012   0.0000004  -0.0000011
   20   -0.0000000   0.0000001  -0.0000153   0.0000002   0.0000028

             6           7           8           9          10

    6    5.5665992
    7    0.3724857   0.4695241
    8    0.2013193  -0.0240682   8.2796806
    9    0.1015661  -0.0492771  -0.0330756   5.5020774
   10   -0.0603892   0.0039112   0.0010171   0.3588321   0.5734401
   11   -0.0361131   0.0032470   0.0001995   0.2131412  -0.0310540
   12   -0.0631587  -0.0034616   0.0021630   0.1995159  -0.0517849
   13    0.0019461  -0.0000082   0.0000006  -0.0389980   0.0018584
   14    0.0032886   0.0007578   0.0085374   0.0000221   0.0000009
   15    0.0044191   0.0002833  -0.0000189  -0.0003475  -0.0000020
   16   -0.0608871   0.0046242   0.2641369  -0.0028411   0.0033859
   17   -0.0055211   0.0002374   0.0000293  -0.0502487  -0.0002980
   18    0.0002110   0.0001544   0.0033926  -0.0485998  -0.0002301
   19    0.0006859   0.0038009  -0.0001553  -0.0642607   0.0042942
   20    0.0007578   0.0000086  -0.0000030  -0.0128653   0.0001244

            11          12          13          14          15

   11    8.3618723
   12   -0.0484676   5.0880127
   13   -0.0051929   0.2485868   8.2678956
   14   -0.0000001   0.0000007  -0.0000000   0.5086425
   15    0.0004098   0.0000027   0.0000000   0.0016388   0.3501778
   16    0.0000245  -0.0004475  -0.0000087  -0.0001058   0.0000018
   17    0.2490249   0.0044491   0.0000768  -0.0000152  -0.0009156
   18    0.0016385   0.3638631  -0.0276244  -0.0000006  -0.0000000
   19    0.0014358   0.3561952  -0.0313723  -0.0000002  -0.0000001
   20    0.0250933  -0.0613277   0.2612827   0.0000000  -0.0000002

            16          17          18          19          20

   16    0.4104093
   17    0.0000145   0.3207851
   18    0.0009515  -0.0000785   0.5291912
   19   -0.0000042  -0.0002033  -0.0343628   0.5708935
   20    0.0000004  -0.0002613   0.0048869  -0.0008650   0.3796094

          TOTAL MULLIKEN AND LOWDIN ATOMIC POPULATIONS
       ATOM         MULL.POP.    CHARGE          LOW.POP.     CHARGE
    1 O             8.536976   -0.536976         8.249559   -0.249559
    2 C             5.660870    0.339130         5.822350    0.177650
    3 C             6.053139   -0.053139         5.995226    0.004774
    4 H             0.749471    0.250529         0.901850    0.098150
    5 O             8.704448   -0.704448         8.390841   -0.390841
    6 C             5.978255    0.021745         5.952418    0.047582
    7 H             0.731732    0.268268         0.898702    0.101298
    8 O             8.660866   -0.660866         8.386118   -0.386118
    9 C             6.000689   -0.000689         5.962570    0.037430
   10 H             0.800616    0.199384         0.935451    0.064549
   11 O             8.724477   -0.724477         8.434862   -0.434862
   12 C             6.037586   -0.037586         5.974882    0.025118
   13 O             8.678428   -0.678428         8.406671   -0.406671
   14 H             0.734942    0.265058         0.900415    0.099585
   15 H             0.569948    0.430052         0.720583    0.279417
   16 H             0.621896    0.378104         0.748735    0.251265
   17 H             0.559893    0.440107         0.728711    0.271289
   18 H             0.793358    0.206642         0.919984    0.080016
   19 H             0.805982    0.194018         0.930605    0.069395
   20 H             0.596429    0.403571         0.739470    0.260530

          -------------------------------
          BOND ORDER AND VALENCE ANALYSIS     BOND ORDER THRESHOLD=0.050
          -------------------------------

                   BOND                       BOND                       BOND
  ATOM PAIR DIST  ORDER      ATOM PAIR DIST  ORDER      ATOM PAIR DIST  ORDER
    1   2  1.237  1.797        1  15  1.938  0.075        2   3  1.516  0.863
    2  14  1.096  0.834        3   4  1.100  0.876        3   5  1.453  0.843
    3   6  1.553  0.823        5  15  1.009  0.722        5  17  1.729  0.104
    6   7  1.093  0.881        6   8  1.457  0.847        6   9  1.529  0.839
    8  16  0.997  0.810        9  10  1.105  0.888        9  11  1.455  0.882
    9  12  1.532  0.881       11  17  1.010  0.691       12  13  1.451  0.903
   12  18  1.092  0.904       12  19  1.101  0.894       13  20  1.002  0.769

                       TOTAL       BONDED        FREE
      ATOM            VALENCE     VALENCE     VALENCE
    1 O                 1.953       1.953       0.000
    2 C                 3.484       3.484      -0.000
    3 C                 3.413       3.413       0.000
    4 H                 0.892       0.892       0.000
    5 O                 1.765       1.765      -0.000
    6 C                 3.400       3.400      -0.000
    7 H                 0.887       0.887      -0.000
    8 O                 1.755       1.755      -0.000
    9 C                 3.495       3.495      -0.000
   10 H                 0.908       0.908       0.000
   11 O                 1.714       1.714       0.000
   12 C                 3.561       3.561      -0.000
   13 O                 1.745       1.745      -0.000
   14 H                 0.886       0.886       0.000
   15 H                 0.810       0.810       0.000
   16 H                 0.830       0.830      -0.000
   17 H                 0.807       0.807      -0.000
   18 H                 0.915       0.915       0.000
   19 H                 0.911       0.911       0.000
   20 H                 0.824       0.824      -0.000

          ---------------------
          ELECTROSTATIC MOMENTS
          ---------------------

 POINT   1           X           Y           Z (BOHR)    CHARGE
                 0.212621   -0.055603   -0.195269       -0.00 (A.U.)
         DX          DY          DZ         /D/  (DEBYE)
    -3.334680   -1.419108    2.098129    4.187613
 ...... END OF PROPERTY EVALUATION ......
 CPU     0: STEP CPU TIME=     0.04 TOTAL CPU TIME=          1.5 (      0.0 MIN)
 TOTAL WALL CLOCK TIME=          4.9 SECONDS, CPU UTILIZATION IS    30.16%
               580000  WORDS OF DYNAMIC MEMORY USED
 EXECUTION OF GAMESS TERMINATED NORMALLY Fri May 22 16:38:20 2020
 DDI: 263640 bytes (0.3 MB / 0 MWords) used by master data server.
Note: The following floating-point exceptions are signalling: IEEE_DENORMALNote: The following floating-point exceptions are signalling: IEEE_DENORMAL
Note: The following floating-point exceptions are signalling: IEEE_DENORMAL
Note: The following floating-point exceptions are signalling: IEEE_DENORMAL
Note: The following floating-point exceptions are signalling: IEEE_DENORMALNote: The following floating-point exceptions are signalling: IEEE_DENORMALNote: The following floating-point exceptions are signalling: IEEE_DENORMAL
 ----------------------------------------
 CPU timing information for all processes
 ========================================
 0: 1.364 + 0.136 = 1.501
 1: 1.344 + 0.23 = 1.368
 2: 1.295 + 0.34 = 1.329
 3: 1.210 + 0.20 = 1.230
 4: 1.347 + 0.36 = 1.383
 5: 1.325 + 0.07 = 1.333
 6: 1.373 + 0.07 = 1.381
 7: 1.345 + 0.24 = 1.369
 ----------------------------------------
Note: The following floating-point exceptions are signalling: IEEE_DENORMAL




 ddikick.x: exited gracefully.
unset echo
----- accounting info -----
Files used on the master node pietdev were:
-rwxr-xr-x 1 piet piet     1215 mei 22 16:38 /home/piet/scr/d-ribose_fukui_neu.F05*
-rw-r--r-- 1 piet piet 49152000 mei 22 16:38 /home/piet/scr/d-ribose_fukui_neu.F10
ls: No match.
ls: No match.
ls: No match.
vr 22 mei 2020 16:38:23 CEST
0.123u 0.032s 0:08.19 1.8%	0+0k 0+8io 0pf+0w
