----- GAMESS execution script 'rungms' -----
This job is running on host pietdev
under operating system Linux at do 21 mei 2020 21:55:11 CEST
Available scratch disk space (Kbyte units) at beginning of the job is
Filesystem     1K-blocks     Used Available Use% Mounted on
/dev/sda2      244568380 30774148 201301176  14% /
GAMESS temporary binary files will be written to /home/piet/scr
GAMESS supplementary output files will be written to /home/piet/gamess/scr
Copying input file beta-d-acetylglucosamine_geoopt.inp to your run's scratch directory...
cp beta-d-acetylglucosamine_geoopt.inp /home/piet/scr/beta-d-acetylglucosamine_geoopt.F05
unset echo
 
Assuming a single but multicore node.
 
/home/piet/gamess/ddikick.x /home/piet/gamess/gamess.03.x beta-d-acetylglucosamine_geoopt -ddi 1 8 pietdev:cpus=8 -scr /home/piet/scr

 Distributed Data Interface kickoff program.
 Initiating 8 compute processes on 1 nodes to run the following command:
 /home/piet/gamess/gamess.03.x beta-d-acetylglucosamine_geoopt 

          ******************************************************
          *         GAMESS VERSION = 30 SEP 2019 (R2)          *
          *             FROM IOWA STATE UNIVERSITY             *
          * M.W.SCHMIDT, K.K.BALDRIDGE, J.A.BOATZ, S.T.ELBERT, *
          *   M.S.GORDON, J.H.JENSEN, S.KOSEKI, N.MATSUNAGA,   *
          *          K.A.NGUYEN, S.J.SU, T.L.WINDUS,           *
          *       TOGETHER WITH M.DUPUIS, J.A.MONTGOMERY       *
          *         J.COMPUT.CHEM.  14, 1347-1363(1993)        *
          **************** 64 BIT LINUX VERSION ****************

  SINCE 1993, STUDENTS AND POSTDOCS WORKING AT IOWA STATE UNIVERSITY
  AND ALSO IN THEIR VARIOUS JOBS AFTER LEAVING ISU HAVE MADE IMPORTANT
  CONTRIBUTIONS TO THE CODE:
     IVANA ADAMOVIC, CHRISTINE AIKENS, YURI ALEXEEV, POOJA ARORA,
     ANDREY ASADCHEV, ROB BELL, PRADIPTA BANDYOPADHYAY, JONATHAN BENTZ,
     COLLEEN BERTONI, BRETT BODE, KURT BRORSEN, CALEB CARLIN, GALINA CHABAN,
     WEI CHEN, CHEOL HO CHOI, PAUL DAY, ALBERT DEFUSCO, NUWAN DESILVA,
     TIM DUDLEY, DMITRI FEDOROV, ALEX FINDLATER, GRAHAM FLETCHER, 
     MARK FREITAG, KURT GLAESEMANN, EMILIE B GUIDEZ, ANASTASIA GUNINA, 
     DAN KEMP, SAROM SOK LEANG, GRANT MERRILL,
     NORIYUKI MINEZAWA, JONATHAN MULLIN,
     TAKESHI NAGATA, SEAN NEDD, HEATHER NETZLOFF, BOSILJKA NJEGIC, RYAN OLSON,
     MIKE PAK, BUU PHAM, DAVID POOLE,
     SPENCER PRUITT, LUKE ROSKOP, TOSAPORN SATTASATHUCHANA,
     JIM SHOEMAKER, LYUDMILA SLIPCHENKO,
     TONY SMITH, JIE SONG, TETSUYA TAKETSUGU, SIMON WEBB,
     JORGE LUIS GALVEZ VALLEJO, PENG XU, SOOHAENG YOO,
     FEDERICO ZAHARIEV

  ADDITIONAL CODE HAS BEEN PROVIDED BY COLLABORATORS IN OTHER GROUPS:
     IOWA STATE UNIVERSITY:
          JOE IVANIC, AARON WEST, LAIMUTIS BYTAUTAS, KLAUS RUEDENBERG
     UNIVERSITY OF TOKYO: KIMIHIKO HIRAO, TAKAHITO NAKAJIMA,
          TAKAO TSUNEDA, MUNEAKI KAMIYA, SUSUMU YANAGISAWA,
          KIYOSHI YAGI, MAHITO CHIBA, SEIKEN TOKURA, NAOAKI KAWAKAMI
     UNIVERSITY OF AARHUS: FRANK JENSEN
     UNIVERSITY OF IOWA: VISVALDAS KAIRYS, HUI LI
     NATIONAL INST. OF STANDARDS AND TECHNOLOGY: WALT STEVENS, DAVID GARMER
     UNIVERSITY OF PISA: BENEDETTA MENNUCCI, JACOPO TOMASI
     UNIVERSITY OF MEMPHIS: HENRY KURTZ, PRAKASHAN KORAMBATH
     UNIVERSITY OF ALBERTA: TOBY ZENG, MARIUSZ KLOBUKOWSKI
     UNIVERSITY OF NEW ENGLAND: MARK SPACKMAN
     MIE UNIVERSITY: HIROAKI UMEDA
     NAT. INST. OF ADVANCED INDUSTRIAL SCIENCE AND TECHNOLOGY: KAZUO KITAURA
     MICHIGAN STATE UNIVERSITY:
          KAROL KOWALSKI, MARTA WLOCH, JEFFREY GOUR, JESSE LUTZ,
          WEI LI, JUN SHEN, J. EMILIANO DEUSTUA, PIOTR PIECUCH
     UNIVERSITY OF MINNESOTA:
          ANDREW SAND, PRACHI SHARMA, YINAN SHU
     UNIVERSITY OF SILESIA: MONIKA MUSIAL, STANISLAW KUCHARSKI
     FACULTES UNIVERSITAIRES NOTRE-DAME DE LA PAIX:
          OLIVIER QUINET, BENOIT CHAMPAGNE
     UNIVERSITY OF CALIFORNIA - SANTA BARBARA: BERNARD KIRTMAN
     INSTITUTE FOR MOLECULAR SCIENCE:
          KAZUYA ISHIMURA, MICHIO KATOUDA, AND SHIGERU NAGASE
     UNIVERSITY OF NOTRE DAME: ANNA POMOGAEVA, DAN CHIPMAN
     KYUSHU UNIVERSITY:
          HARUYUKI NAKANO,
          FENG LONG GU, JACEK KORCHOWIEC, MARCIN MAKOWSKI, AND YURIKO AOKI,
          HIROTOSHI MORI AND EISAKU MIYOSHI
     PENNSYLVANIA STATE UNIVERSITY:
          TZVETELIN IORDANOV, CHET SWALINA, JONATHAN SKONE,
          SHARON HAMMES-SCHIFFER
     WASEDA UNIVERSITY:
          MASATO KOBAYASHI, TOMOKO AKAMA, TSUGUKI TOUMA,
          TAKESHI YOSHIKAWA, YASUHIRO IKABATA, JUNJI SEINO,
          YUYA NAKAJIMA, HIROMI NAKAI
     NANJING UNIVERSITY: SHUHUA LI
     UNIVERSITY OF NEBRASKA:
          PEIFENG SU, DEJUN SI, NANDUN THELLAMUREGE, YALI WANG, HUI LI
     UNIVERSITY OF ZURICH: ROBERTO PEVERATI, KIM BALDRIDGE
     N. COPERNICUS UNIVERSITY AND JACKSON STATE UNIVERSITY:
          MARIA BARYSZ
     UNIVERSITY OF COPENHAGEN: Jimmy Kromann, CASPER STEINMANN
     TOKYO INSTITUTE OF TECHNOLOGY: HIROYA NAKATA
     NAGOYA UNIVERSITY: YOSHIO NISHIMOTO, STEPHAN IRLE
     MOSCOW STATE UNIVERSITY: VLADIMIR MIRONOV
     A.N.NESMEYANOV INSTITUTE OF ORGANOELEMENT COMPOUNDS OF RUSSIAN ACADEMY OF SCIENCES:
          IGOR S. GERASIMOV
     JOHANNES KEPLER UNIVERSITY LINZ:
          CHRISTIAN FRIEDL


 PARALLEL VERSION RUNNING ON        8 PROCESSORS IN        1 NODES.

 EXECUTION OF GAMESS BEGUN Thu May 21 21:55:11 2020

            ECHO OF THE FIRST FEW INPUT CARDS -
 INPUT CARD> $BASIS GBASIS=N21 NGAUSS=3 $END                                                
 INPUT CARD> $CONTRL SCFTYP=RHF RUNTYP=OPTIMIZE DFTTYP=B3LYP MAXIT=60 MULT=1 ICHARG=0 $END  
 INPUT CARD> $SYSTEM MEMDDI=1000 MWORDS=30 $END                                             
 INPUT CARD> $STATPT NSTEP=999 $END                                                         
 INPUT CARD> $SCF DIRSCF=.TRUE. $END                                                        
 INPUT CARD> $DATA                                                                          
 INPUT CARD>                                                                                
 INPUT CARD>C1                                                                              
 INPUT CARD>C 6.0000000 -0.84048210 -0.02549380 0.17813340                                  
 INPUT CARD>C 6.0000000 -0.02544010 1.18935240 -0.28825440                                  
 INPUT CARD>C 6.0000000 1.40138650 1.12063890 0.26778220                                    
 INPUT CARD>C 6.0000000 2.05899790 -0.21887350 -0.10680910                                  
 INPUT CARD>C 6.0000000 3.43545300 -0.41463380 0.50607320                                   
 INPUT CARD>C 6.0000000 -4.61722310 -0.01659350 -0.39550050                                 
 INPUT CARD>H 1.0000000 -0.12198950 3.11480060 -0.10594010                                  
 INPUT CARD>H 1.0000000 2.79796010 2.53104870 0.28901250                                    
 INPUT CARD>H 1.0000000 0.31423250 -2.34942700 -1.75543220                                  
 INPUT CARD>H 1.0000000 4.85782490 -1.76263100 0.32765080                                   
 INPUT CARD>H 1.0000000 -2.25464070 -0.05226420 -1.39551420                                 
 INPUT CARD>O 8.0000000 -3.28543540 -0.12707430 1.60300010                                  
 INPUT CARD>O 8.0000000 -0.68337710 2.36841340 0.14962410                                   
 INPUT CARD>O 8.0000000 2.09364560 2.24128480 -0.30302910                                   
 INPUT CARD>O 8.0000000 -0.09643710 -1.49889570 -1.54579880                                 
 INPUT CARD>O 8.0000000 4.08152360 -1.48720140 -0.17542510                                  
 INPUT CARD>C 6.0000000 -3.30905080 -0.07144150 0.37611440                                  
 INPUT CARD>C 6.0000000 -0.07878690 -1.32568760 -0.13857730                                 
 INPUT CARD>O 8.0000000 1.23600610 -1.29501440 0.37675350                                   
 INPUT CARD>N 7.0000000 -2.17315160 -0.04589120 -0.38898090                                 
 INPUT CARD>H 1.0000000 -0.97224670 0.03132340 1.26249190                                   
 INPUT CARD>H 1.0000000 0.04745630 1.18362370 -1.38764860                                   
 INPUT CARD>H 1.0000000 1.35184440 1.21994490 1.36210860                                    
 INPUT CARD>H 1.0000000 -0.55528830 -2.17402210 0.36451190                                  
 INPUT CARD>H 1.0000000 2.15216640 -0.27663500 -1.19906080                                  
 INPUT CARD>H 1.0000000 4.01765980 0.51242460 0.39354010                                    
 INPUT CARD>H 1.0000000 3.31739780 -0.63347470 1.57675680                                   
 INPUT CARD>H 1.0000000 -5.26872650 -0.82029130 -0.04254720                                 
 INPUT CARD>H 1.0000000 -5.11074290 0.93359290 -0.16884480                                  
 INPUT CARD>H 1.0000000 -4.49233610 -0.09960230 -1.47929050                                 
 INPUT CARD> $END                                                                           
   30000000 WORDS OF MEMORY AVAILABLE

     BASIS OPTIONS
     -------------
     GBASIS=N21          IGAUSS=       3      POLAR=NONE    
     NDFUNC=       0     NFFUNC=       0     DIFFSP=       F
     NPFUNC=       0      DIFFS=       F     BASNAM=        


     RUN TITLE
     ---------
                                                                                 

 THE POINT GROUP OF THE MOLECULE IS C1      
 THE ORDER OF THE PRINCIPAL AXIS IS     0

 ATOM      ATOMIC                      COORDINATES (BOHR)
           CHARGE         X                   Y                   Z
 C           6.0    -1.5882808666       -0.0481762964        0.3366233153
 C           6.0    -0.0480748181        2.2475501388       -0.5447218308
 C           6.0     2.6482364879        2.1177004522        0.5060349824
 C           6.0     3.8909418403       -0.4136109410       -0.2018399320
 C           6.0     6.4920648137       -0.7835442672        0.9563396777
 C           6.0    -8.7252864832       -0.0313571682       -0.7473875730
 H           1.0    -0.2305267284        5.8861196404       -0.2001977601
 H           1.0     5.2873779136        4.7829885046        0.5461544320
 H           1.0     0.5938133214       -4.4397732582       -3.3172858480
 H           1.0     9.1799579573       -3.3308896075        0.6191702317
 H           1.0    -4.2606531238       -0.0987650170       -2.6371394500
 O           8.0    -6.2085726564       -0.2401356071        3.0292309473
 O           8.0    -1.2913954653        4.4756523516        0.2827485502
 O           8.0     3.9564164994        4.2354141324       -0.5726419653
 O           8.0    -0.1822396941       -2.8325021572       -2.9211361641
 O           8.0     7.7129612164       -2.8104031346       -0.3315053704
 C           6.0    -6.2531992915       -0.1350048592        0.7107531560
 C           6.0    -0.1488856524       -2.5051863093       -0.2618731251
 O           8.0     2.3357128482       -2.4472223662        0.7119608799
 N           7.0    -4.1066610538       -0.0867217932       -0.7350673155
 H           1.0    -1.8372798555        0.0591926430        2.3857637527
 H           1.0     0.0896794034        2.2367244656       -2.6222756212
 H           1.0     2.5546154940        2.3053615811        2.5740120195
 H           1.0    -1.0493427312       -4.1083060603        0.6888276103
 H           1.0     4.0670047760       -0.5227643486       -2.2658963546
 H           1.0     7.5922761339        0.9683420834        0.7436829542
 H           1.0     6.2689728343       -1.1970936032        2.9796383013
 H           1.0    -9.9564493892       -1.5501257871       -0.0804025495
 H           1.0    -9.6579036747        1.7642347651       -0.3190704065
 H           1.0    -8.4892842738       -0.1882210547       -2.7954537012

          INTERNUCLEAR DISTANCES (ANGS.)
          ------------------------------

                1 C          2 C          3 C          4 C          5 C     

   1 C       0.0000000    1.5354681 *  2.5194507 *  2.9198583 *  4.3061114  
   2 C       1.5354681 *  0.0000000    1.5328837 *  2.5220833 *  3.8963456  
   3 C       2.5194507 *  1.5328837 *  0.0000000    1.5385268 *  2.5595452 *
   4 C       2.9198583 *  2.5220833 *  1.5385268 *  0.0000000    1.5193997 *
   5 C       4.3061114    3.8963456    2.5595452 *  1.5193997 *  0.0000000  
   6 C       3.8200664    4.7487133    6.1609174    6.6855207    8.1127593  
   7 H       3.2339416    1.9364687 *  2.5371290 *  3.9837281    5.0484517  
   8 H       4.4481980    3.1788323    1.9849746 *  2.8748586 *  3.0216813  
   9 H       3.2361562    3.8459001    4.1613288    3.2095829    4.3127542  
  10 H       5.9590858    5.7393225    4.5015326    3.2257364    1.9677583 *
  11 H       2.1158752 *  2.7815412 *  4.1843508    4.5051079    6.0103671  
  12 O       2.8316709 *  3.9921664    5.0304965    5.6120265    6.8158844  
  13 O       2.3992262 *  1.4194377 *  2.4325176 *  3.7789459    4.9836903  
  14 O       3.7388378    2.3658623 *  1.4355819 *  2.4682143 *  3.0836662  
  15 O       2.3867254 *  2.9686927 *  3.5205842    2.8905100 *  4.2261153  
  16 O       5.1466234    4.9034500    3.7656870    2.3882994 *  1.4255695 *
  17 C       2.4769213 *  3.5795372    4.8601452    5.3917435    6.7544801  
  18 C       1.5398017 *  2.5200546 *  2.8880018 *  2.4075237 *  3.6872043  
  19 O       2.4419123 *  2.8645349 *  2.4237587 *  1.4384810 *  2.3726273 *
  20 N       1.4484622 *  2.4796446 *  3.8169953    4.2450716    5.6915322  
  21 H       1.0938114 *  2.1545969 *  2.7946718 *  3.3355700    4.4943146  
  22 H       2.1684264 *  1.1018232 *  2.1395199 *  2.7665588 *  4.1975149  
  23 H       2.7855359 *  2.1497783 *  1.0999393 *  2.1743927 *  2.7831761 *
  24 H       2.1753727 *  3.4668618    3.8331089    3.2983696    4.3636571  
  25 H       3.3038887    2.7786071 *  2.1604799 *  1.0977388 *  2.1385393 *
  26 H       4.8925759    4.1556867    2.6889823 *  2.1497681 *  1.1004843 *
  27 H       4.4287417    4.2397560    2.9088534 *  2.1423955 *  1.0991778 *
  28 H       4.5044147    5.6205954    6.9536984    7.3526443    8.7308810  
  29 H       4.3903722    5.0931303    6.5294302    7.2620390    8.6781734  
  30 H       4.0110577    4.7992844    6.2671539    6.6946178    8.1786768  

                6 C          7 H          8 H          9 H         10 H     

   1 C       3.8200664    3.2339416    4.4481980    3.2361562    5.9590858  
   2 C       4.7487133    1.9364687 *  3.1788323    3.8459001    5.7393225  
   3 C       6.1609174    2.5371290 *  1.9849746 *  4.1613288    4.5015326  
   4 C       6.6855207    3.9837281    2.8748586 *  3.2095829    3.2257364  
   5 C       8.1127593    5.0484517    3.0216813    4.3127542    1.9677583 *
   6 C       0.0000000    5.4860368    7.8704498    5.6223465    9.6616836  
   7 H       5.4860368    0.0000000    3.0038075    5.7244124    6.9839739  
   8 H       7.8704498    3.0038075    0.0000000    5.8453144    4.7623756  
   9 H       5.6223465    5.7244124    5.8453144    0.0000000    5.0326729  
  10 H       9.6616836    6.9839739    4.7623756    5.0326729    0.0000000  
  11 H       2.5657544 *  4.0300747    5.9194519    3.4649109    7.5154387  
  12 O       2.4041358 *  4.8412415    6.7675610    5.4014376    8.4032285  
  13 O       4.6325547    0.9682783 *  3.4879203    5.1848320    6.9139092  
  14 O       7.0811245    2.3897516 *  0.9646426 *  5.1332661    4.9060968  
  15 O       4.8946820    4.8332225    5.2900397    0.9674705 *  5.3032143  
  16 O       8.8249258    6.2331993    4.2437685    4.1752051    0.9651894 *
  17 C       1.5197739 *  4.5323145    6.6389852    4.7813064    8.3402835  
  18 C       4.7304482    4.4408183    4.8304163    1.9536444 *  4.9777931  
  19 O       6.0407804    4.6393549    4.1335406    2.5510132 *  3.6522114  
  20 N       2.4442558 *  3.7785382    5.6402346    3.6552081    7.2729215  
  21 H       4.0046333    3.4789905    4.6271750    4.0535006    6.1710562  
  22 H       4.9177345    2.3239907 *  3.4917070    3.5621456    5.8959575  
  23 H       6.3441299    2.8138642 *  2.2275051 *  4.8514034    4.7178132  
  24 H       4.6616983    5.3273557    5.7782061    2.2980418 *  5.4288485  
  25 H       6.8218740    4.2271188    3.2426069    2.8256003 *  3.4437799  
  26 H       8.6869815    4.9151335    2.3608127 *  5.1501117    2.4261279 *
  27 H       8.1993018    5.3582107    3.4557646    4.8028093    2.2821427 *
  28 H       1.0931436 *  6.4790330    8.7414441    6.0366930   10.1770376  
  29 H       1.0944354 *  5.4451157    8.0814034    6.5365004   10.3386883  
  30 H       1.0941152 *  5.5962851    7.9495685    5.3142325    9.6672753  

               11 H         12 O         13 O         14 O         15 O     

   1 C       2.1158752 *  2.8316709 *  2.3992262 *  3.7388378    2.3867254 *
   2 C       2.7815412 *  3.9921664    1.4194377 *  2.3658623 *  2.9686927 *
   3 C       4.1843508    5.0304965    2.4325176 *  1.4355819 *  3.5205842  
   4 C       4.5051079    5.6120265    3.7789459    2.4682143 *  2.8905100 *
   5 C       6.0103671    6.8158844    4.9836903    3.0836662    4.2261153  
   6 C       2.5657544 *  2.4041358 *  4.6325547    7.0811245    4.8946820  
   7 H       4.0300747    4.8412415    0.9682783 *  2.3897516 *  4.8332225  
   8 H       5.9194519    6.7675610    3.4879203    0.9646426 *  5.2900397  
   9 H       3.4649109    5.4014376    5.1848320    5.1332661    0.9674705 *
  10 H       7.5154387    8.4032285    6.9139092    4.9060968    5.3032143  
  11 H       0.0000000    3.1716277    3.2735305    5.0360187    2.6025316 *
  12 O       3.1716277    0.0000000    3.8872185    6.1787203    4.6868474  
  13 O       3.2735305    3.8872185    0.0000000    2.8165425 *  4.2632191  
  14 O       5.0360187    6.1787203    2.8165425 *  0.0000000    4.5088678  
  15 O       2.6025316 *  4.6868474    4.2632191    4.5088678    0.0000000  
  16 O       6.6101921    7.6996641    6.1380535    4.2272392    4.3969781  
  17 C       2.0617508 *  1.2283734 *  3.5914276    5.9160009    4.0065275  
  18 C       2.8170618 *  3.8408801    3.7543270    4.1796889    1.4179510 *
  19 O       4.1073076    4.8281672    4.1420192    3.7017647    2.3480161 *
  20 N       1.0098467 *  2.2829267 *  2.8876271 *  4.8419129    2.7860712 *
  21 H       2.9523749 *  2.3434755 *  2.6045940 *  4.0907800    3.3158875  
  22 H       2.6128780 *  4.6658414    2.0738976 *  2.5459649 *  2.6910272 *
  23 H       4.7148419    4.8349616    2.6327220 *  2.0895186 *  4.2362175  
  24 H       3.2384174    3.6300897    4.5493190    5.1920513    2.0774087 *
  25 H       4.4168863    6.1189400    4.1055498    2.6732410 *  2.5827052 *
  26 H       6.5468574    7.4301381    5.0600333    2.6788051 *  4.9731517  
  27 H       6.3419093    6.6222758    5.2013690    3.6462867    4.7067585  
  28 H       3.3919166    2.6686737 *  5.5883984    7.9778206    5.4288900  
  29 H       3.2609741    2.7561199 *  4.6649438    7.3233378    5.7407548  
  30 H       2.2397634 *  3.3102688    4.8220984    7.0879121    4.6137158  

               16 O         17 C         18 C         19 O         20 N     

   1 C       5.1466234    2.4769213 *  1.5398017 *  2.4419123 *  1.4484622 *
   2 C       4.9034500    3.5795372    2.5200546 *  2.8645349 *  2.4796446 *
   3 C       3.7656870    4.8601452    2.8880018 *  2.4237587 *  3.8169953  
   4 C       2.3882994 *  5.3917435    2.4075237 *  1.4384810 *  4.2450716  
   5 C       1.4255695 *  6.7544801    3.6872043    2.3726273 *  5.6915322  
   6 C       8.8249258    1.5197739 *  4.7304482    6.0407804    2.4442558 *
   7 H       6.2331993    4.5323145    4.4408183    4.6393549    3.7785382  
   8 H       4.2437685    6.6389852    4.8304163    4.1335406    5.6402346  
   9 H       4.1752051    4.7813064    1.9536444 *  2.5510132 *  3.6552081  
  10 H       0.9651894 *  8.3402835    4.9777931    3.6522114    7.2729215  
  11 H       6.6101921    2.0617508 *  2.8170618 *  4.1073076    1.0098467 *
  12 O       7.6996641    1.2283734 *  3.8408801    4.8281672    2.2829267 *
  13 O       6.1380535    3.5914276    3.7543270    4.1420192    2.8876271 *
  14 O       4.2272392    5.9160009    4.1796889    3.7017647    4.8419129  
  15 O       4.3969781    4.0065275    1.4179510 *  2.3480161 *  2.7860712 *
  16 O       0.0000000    7.5451416    4.1636076    2.9049625 *  6.4221447  
  17 C       7.5451416    0.0000000    3.5032336    4.7068751    1.3697776 *
  18 C       4.1636076    3.5032336    0.0000000    1.4125110 *  2.4671733 *
  19 O       2.9049625 *  4.7068751    1.4125110 *  0.0000000    3.7106622  
  20 N       6.4221447    1.3697776 *  2.4671733 *  3.7106622    0.0000000  
  21 H       5.4693800    2.5013754 *  2.1454007 *  2.7239833 *  2.0434033 *
  22 H       4.9876339    3.9940191    2.8058438 *  3.2664066    2.7276626 *
  23 H       4.1405072    4.9359708    3.2831401    2.7035834 *  4.1345196  
  24 H       4.7183980    3.4647060    1.0953647 *  1.9953797 *  2.7774402 *
  25 H       2.4971424 *  5.6875456    2.6837081 *  2.0879744 *  4.4065687  
  26 H       2.0799770 *  7.3499586    4.5213583    3.3173355    6.2649981  
  27 H       2.0935326 *  6.7577544    3.8672471    2.4919539 *  5.8613575  
  28 H       9.3749455    2.1392481 *  5.2153735    6.5354970    3.2097190  
  29 H       9.5056852    2.1338156 *  5.5159628    6.7487474    3.1043988  
  30 H       8.7827425    2.2007918 *  4.7728622    6.1390401    2.5632551 *

               21 H         22 H         23 H         24 H         25 H     

   1 C       1.0938114 *  2.1684264 *  2.7855359 *  2.1753727 *  3.3038887  
   2 C       2.1545969 *  1.1018232 *  2.1497783 *  3.4668618    2.7786071 *
   3 C       2.7946718 *  2.1395199 *  1.0999393 *  3.8331089    2.1604799 *
   4 C       3.3355700    2.7665588 *  2.1743927 *  3.2983696    1.0977388 *
   5 C       4.4943146    4.1975149    2.7831761 *  4.3636571    2.1385393 *
   6 C       4.0046333    4.9177345    6.3441299    4.6616983    6.8218740  
   7 H       3.4789905    2.3239907 *  2.8138642 *  5.3273557    4.2271188  
   8 H       4.6271750    3.4917070    2.2275051 *  5.7782061    3.2426069  
   9 H       4.0535006    3.5621456    4.8514034    2.2980418 *  2.8256003 *
  10 H       6.1710562    5.8959575    4.7178132    5.4288485    3.4437799  
  11 H       2.9523749 *  2.6128780 *  4.7148419    3.2384174    4.4168863  
  12 O       2.3434755 *  4.6658414    4.8349616    3.6300897    6.1189400  
  13 O       2.6045940 *  2.0738976 *  2.6327220 *  4.5493190    4.1055498  
  14 O       4.0907800    2.5459649 *  2.0895186 *  5.1920513    2.6732410 *
  15 O       3.3158875    2.6910272 *  4.2362175    2.0774087 *  2.5827052 *
  16 O       5.4693800    4.9876339    4.1405072    4.7183980    2.4971424 *
  17 C       2.5013754 *  3.9940191    4.9359708    3.4647060    5.6875456  
  18 C       2.1454007 *  2.8058438 *  3.2831401    1.0953647 *  2.6837081 *
  19 O       2.7239833 *  3.2664066    2.7035834 *  1.9953797 *  2.0879744 *
  20 N       2.0434033 *  2.7276626 *  4.1345196    2.7774402 *  4.4065687  
  21 H       0.0000000    3.0644469    2.6123063 *  2.4173893 *  3.9894909  
  22 H       3.0644469    0.0000000    3.0436676    3.8349906    2.5686038 *
  23 H       2.6123063 *  3.0436676    0.0000000    4.0188762    3.0724348  
  24 H       2.4173893 *  3.8349906    4.0188762    0.0000000    3.6572050  
  25 H       3.9894909    2.5686038 *  3.0724348    3.6572050    0.0000000  
  26 H       5.0877994    4.4029146    2.9232314 *  5.3037433    2.5766370 *
  27 H       4.3522142    4.7730560    2.7100993 *  4.3405670    3.0315445  
  28 H       4.5703516    5.8383878    7.0687751    4.9208519    7.5301220  
  29 H       4.4710140    5.3061301    6.6476199    5.5402082    7.4347729  
  30 H       4.4638035    4.7185572    6.6309275    4.8169669    6.6527650  

               26 H         27 H         28 H         29 H         30 H     

   1 C       4.8925759    4.4287417    4.5044147    4.3903722    4.0110577  
   2 C       4.1556867    4.2397560    5.6205954    5.0931303    4.7992844  
   3 C       2.6889823 *  2.9088534 *  6.9536984    6.5294302    6.2671539  
   4 C       2.1497681 *  2.1423955 *  7.3526443    7.2620390    6.6946178  
   5 C       1.1004843 *  1.0991778 *  8.7308810    8.6781734    8.1786768  
   6 C       8.6869815    8.1993018    1.0931436 *  1.0944354 *  1.0941152 *
   7 H       4.9151335    5.3582107    6.4790330    5.4451157    5.5962851  
   8 H       2.3608127 *  3.4557646    8.7414441    8.0814034    7.9495685  
   9 H       5.1501117    4.8028093    6.0366930    6.5365004    5.3142325  
  10 H       2.4261279 *  2.2821427 * 10.1770376   10.3386883    9.6672753  
  11 H       6.5468574    6.3419093    3.3919166    3.2609741    2.2397634 *
  12 O       7.4301381    6.6222758    2.6686737 *  2.7561199 *  3.3102688  
  13 O       5.0600333    5.2013690    5.5883984    4.6649438    4.8220984  
  14 O       2.6788051 *  3.6462867    7.9778206    7.3233378    7.0879121  
  15 O       4.9731517    4.7067585    5.4288900    5.7407548    4.6137158  
  16 O       2.0799770 *  2.0935326 *  9.3749455    9.5056852    8.7827425  
  17 C       7.3499586    6.7577544    2.1392481 *  2.1338156 *  2.2007918 *
  18 C       4.5213583    3.8672471    5.2153735    5.5159628    4.7728622  
  19 O       3.3173355    2.4919539 *  6.5354970    6.7487474    6.1390401  
  20 N       6.2649981    5.8613575    3.2097190    3.1043988    2.5632551 *
  21 H       5.0877994    4.3522142    4.5703516    4.4710140    4.4638035  
  22 H       4.4029146    4.7730560    5.8383878    5.3061301    4.7185572  
  23 H       2.9232314 *  2.7100993 *  7.0687751    6.6476199    6.6309275  
  24 H       5.3037433    4.3405670    4.9208519    5.5402082    4.8169669  
  25 H       2.5766370 *  3.0315445    7.5301220    7.4347729    6.6527650  
  26 H       0.0000000    1.7898195 *  9.3916598    9.1554025    8.7351074  
  27 H       1.7898195 *  0.0000000    8.7394838    8.7485074    8.4033558  
  28 H       9.3916598    8.7394838    0.0000000    1.7655083 *  1.7850507 *
  29 H       9.1554025    8.7485074    1.7655083 *  0.0000000    1.7796593 *
  30 H       8.7351074    8.4033558    1.7850507 *  1.7796593 *  0.0000000  

  * ... LESS THAN  3.000


     ATOMIC BASIS SET
     ----------------
 THE CONTRACTED PRIMITIVE FUNCTIONS HAVE BEEN UNNORMALIZED
 THE CONTRACTED BASIS FUNCTIONS ARE NOW NORMALIZED TO UNITY

  SHELL TYPE  PRIMITIVE        EXPONENT          CONTRACTION COEFFICIENT(S)

 C         

      1   S       1           172.2560000    0.061766907377
      1   S       2            25.9109000    0.358794042852
      1   S       3             5.5333500    0.700713083689

      2   L       4             3.6649800   -0.395895162119    0.236459946619
      2   L       5             0.7705450    1.215834355681    0.860618805716

      3   L       6             0.1958570    1.000000000000    1.000000000000

 C         

      4   S       7           172.2560000    0.061766907377
      4   S       8            25.9109000    0.358794042852
      4   S       9             5.5333500    0.700713083689

      5   L      10             3.6649800   -0.395895162119    0.236459946619
      5   L      11             0.7705450    1.215834355681    0.860618805716

      6   L      12             0.1958570    1.000000000000    1.000000000000

 C         

      7   S      13           172.2560000    0.061766907377
      7   S      14            25.9109000    0.358794042852
      7   S      15             5.5333500    0.700713083689

      8   L      16             3.6649800   -0.395895162119    0.236459946619
      8   L      17             0.7705450    1.215834355681    0.860618805716

      9   L      18             0.1958570    1.000000000000    1.000000000000

 C         

     10   S      19           172.2560000    0.061766907377
     10   S      20            25.9109000    0.358794042852
     10   S      21             5.5333500    0.700713083689

     11   L      22             3.6649800   -0.395895162119    0.236459946619
     11   L      23             0.7705450    1.215834355681    0.860618805716

     12   L      24             0.1958570    1.000000000000    1.000000000000

 C         

     13   S      25           172.2560000    0.061766907377
     13   S      26            25.9109000    0.358794042852
     13   S      27             5.5333500    0.700713083689

     14   L      28             3.6649800   -0.395895162119    0.236459946619
     14   L      29             0.7705450    1.215834355681    0.860618805716

     15   L      30             0.1958570    1.000000000000    1.000000000000

 C         

     16   S      31           172.2560000    0.061766907377
     16   S      32            25.9109000    0.358794042852
     16   S      33             5.5333500    0.700713083689

     17   L      34             3.6649800   -0.395895162119    0.236459946619
     17   L      35             0.7705450    1.215834355681    0.860618805716

     18   L      36             0.1958570    1.000000000000    1.000000000000

 H         

     19   S      37             5.4471780    0.156284978695
     19   S      38             0.8245472    0.904690876670

     20   S      39             0.1831916    1.000000000000

 H         

     21   S      40             5.4471780    0.156284978695
     21   S      41             0.8245472    0.904690876670

     22   S      42             0.1831916    1.000000000000

 H         

     23   S      43             5.4471780    0.156284978695
     23   S      44             0.8245472    0.904690876670

     24   S      45             0.1831916    1.000000000000

 H         

     25   S      46             5.4471780    0.156284978695
     25   S      47             0.8245472    0.904690876670

     26   S      48             0.1831916    1.000000000000

 H         

     27   S      49             5.4471780    0.156284978695
     27   S      50             0.8245472    0.904690876670

     28   S      51             0.1831916    1.000000000000

 O         

     29   S      52           322.0370000    0.059239393389
     29   S      53            48.4308000    0.351499960776
     29   S      54            10.4206000    0.707657921031

     30   L      55             7.4029400   -0.404453583190    0.244586106967
     30   L      56             1.5762000    1.221561761397    0.853955373466

     31   L      57             0.3736840    1.000000000000    1.000000000000

 O         

     32   S      58           322.0370000    0.059239393389
     32   S      59            48.4308000    0.351499960776
     32   S      60            10.4206000    0.707657921031

     33   L      61             7.4029400   -0.404453583190    0.244586106967
     33   L      62             1.5762000    1.221561761397    0.853955373466

     34   L      63             0.3736840    1.000000000000    1.000000000000

 O         

     35   S      64           322.0370000    0.059239393389
     35   S      65            48.4308000    0.351499960776
     35   S      66            10.4206000    0.707657921031

     36   L      67             7.4029400   -0.404453583190    0.244586106967
     36   L      68             1.5762000    1.221561761397    0.853955373466

     37   L      69             0.3736840    1.000000000000    1.000000000000

 O         

     38   S      70           322.0370000    0.059239393389
     38   S      71            48.4308000    0.351499960776
     38   S      72            10.4206000    0.707657921031

     39   L      73             7.4029400   -0.404453583190    0.244586106967
     39   L      74             1.5762000    1.221561761397    0.853955373466

     40   L      75             0.3736840    1.000000000000    1.000000000000

 O         

     41   S      76           322.0370000    0.059239393389
     41   S      77            48.4308000    0.351499960776
     41   S      78            10.4206000    0.707657921031

     42   L      79             7.4029400   -0.404453583190    0.244586106967
     42   L      80             1.5762000    1.221561761397    0.853955373466

     43   L      81             0.3736840    1.000000000000    1.000000000000

 C         

     44   S      82           172.2560000    0.061766907377
     44   S      83            25.9109000    0.358794042852
     44   S      84             5.5333500    0.700713083689

     45   L      85             3.6649800   -0.395895162119    0.236459946619
     45   L      86             0.7705450    1.215834355681    0.860618805716

     46   L      87             0.1958570    1.000000000000    1.000000000000

 C         

     47   S      88           172.2560000    0.061766907377
     47   S      89            25.9109000    0.358794042852
     47   S      90             5.5333500    0.700713083689

     48   L      91             3.6649800   -0.395895162119    0.236459946619
     48   L      92             0.7705450    1.215834355681    0.860618805716

     49   L      93             0.1958570    1.000000000000    1.000000000000

 O         

     50   S      94           322.0370000    0.059239393389
     50   S      95            48.4308000    0.351499960776
     50   S      96            10.4206000    0.707657921031

     51   L      97             7.4029400   -0.404453583190    0.244586106967
     51   L      98             1.5762000    1.221561761397    0.853955373466

     52   L      99             0.3736840    1.000000000000    1.000000000000

 N         

     53   S     100           242.7660000    0.059865700508
     53   S     101            36.4851000    0.352955002994
     53   S     102             7.8144900    0.706513005993

     54   L     103             5.4252200   -0.413300077430    0.237972016222
     54   L     104             1.1491500    1.224417266851    0.858953058551

     55   L     105             0.2832050    1.000000000000    1.000000000000

 H         

     56   S     106             5.4471780    0.156284978695
     56   S     107             0.8245472    0.904690876670

     57   S     108             0.1831916    1.000000000000

 H         

     58   S     109             5.4471780    0.156284978695
     58   S     110             0.8245472    0.904690876670

     59   S     111             0.1831916    1.000000000000

 H         

     60   S     112             5.4471780    0.156284978695
     60   S     113             0.8245472    0.904690876670

     61   S     114             0.1831916    1.000000000000

 H         

     62   S     115             5.4471780    0.156284978695
     62   S     116             0.8245472    0.904690876670

     63   S     117             0.1831916    1.000000000000

 H         

     64   S     118             5.4471780    0.156284978695
     64   S     119             0.8245472    0.904690876670

     65   S     120             0.1831916    1.000000000000

 H         

     66   S     121             5.4471780    0.156284978695
     66   S     122             0.8245472    0.904690876670

     67   S     123             0.1831916    1.000000000000

 H         

     68   S     124             5.4471780    0.156284978695
     68   S     125             0.8245472    0.904690876670

     69   S     126             0.1831916    1.000000000000

 H         

     70   S     127             5.4471780    0.156284978695
     70   S     128             0.8245472    0.904690876670

     71   S     129             0.1831916    1.000000000000

 H         

     72   S     130             5.4471780    0.156284978695
     72   S     131             0.8245472    0.904690876670

     73   S     132             0.1831916    1.000000000000

 H         

     74   S     133             5.4471780    0.156284978695
     74   S     134             0.8245472    0.904690876670

     75   S     135             0.1831916    1.000000000000

 TOTAL NUMBER OF BASIS SET SHELLS             =   75
 NUMBER OF CARTESIAN GAUSSIAN BASIS FUNCTIONS =  165
 NUMBER OF ELECTRONS                          =  118
 CHARGE OF MOLECULE                           =    0
 SPIN MULTIPLICITY                            =    1
 NUMBER OF OCCUPIED ORBITALS (ALPHA)          =   59
 NUMBER OF OCCUPIED ORBITALS (BETA )          =   59
 TOTAL NUMBER OF ATOMS                        =   30
 THE NUCLEAR REPULSION ENERGY IS     1131.1306345997

 SELECTED MURRAY-HANDY-LAMING RADIAL GRID

 LEGACY BECKE'S FUZZY CELL METHOD

 SELECTED ORIGINAL BECKE'S PARTITION FUNCTION

     LEBEDEV GRID-BASED DFT OPTIONS
     ------------------------------
     DFTTYP=B3LYP   
     NRAD  =      96     NLEB  =     302
     NRAD0 =      24     NLEB0 =     110
     SWOFF =    5.00E-03 (PURE SCF -> DFT)
     SWITCH=    3.00E-04 (COARSE -> TIGHT GRID)
     THRESH=    0.00E+00 GTHRE=    1.00E+00

 GRIMME'S EMPIRICAL DISPERSION CORRECTION= F

     $CONTRL OPTIONS
     ---------------
 SCFTYP=RHF          RUNTYP=OPTIMIZE     EXETYP=RUN     
 MPLEVL=       0     CITYP =NONE         CCTYP =NONE         VBTYP =NONE    
 DFTTYP=B3LYP        TDDFT =NONE    
 MULT  =       1     ICHARG=       0     NZVAR =       0     COORD =UNIQUE  
 PP    =NONE         RELWFN=NONE         LOCAL =NONE         NUMGRD=       F
 ISPHER=      -1     NOSYM =       0     MAXIT =      60     UNITS =ANGS    
 PLTORB=       F     MOLPLT=       F     AIMPAC=       F     FRIEND=        
 NPRINT=       7     IREST =       0     GEOM  =INPUT   
 NORMF =       0     NORMP =       0     ITOL  =      20     ICUT  =       9
 INTTYP=BEST         GRDTYP=BEST         QMTTOL= 1.0E-06

     $SYSTEM OPTIONS
     ---------------
  REPLICATED MEMORY=    30000000 WORDS (ON EVERY NODE).
 DISTRIBUTED MEMDDI=        1000 MILLION WORDS IN AGGREGATE,
 MEMDDI DISTRIBUTED OVER   8 PROCESSORS IS   125000000 WORDS/PROCESSOR.
 TOTAL MEMORY REQUESTED ON EACH PROCESSOR=   155000000 WORDS.
 TIMLIM=      525600.00 MINUTES, OR     365.0 DAYS.
 PARALL= T  BALTYP=  DLB     KDIAG=    0  COREFL= F
 MXSEQ2=     300 MXSEQ3=     150  mem10=         0

          ----------------
          PROPERTIES INPUT
          ----------------

     MOMENTS            FIELD           POTENTIAL          DENSITY
 IEMOM =       1   IEFLD =       0   IEPOT =       0   IEDEN =       0
 WHERE =COMASS     WHERE =NUCLEI     WHERE =NUCLEI     WHERE =NUCLEI  
 OUTPUT=BOTH       OUTPUT=BOTH       OUTPUT=BOTH       OUTPUT=BOTH    
 IEMINT=       0   IEFINT=       0                     IEDINT=       0
                                                       MORB  =       0
          EXTRAPOLATION IN EFFECT
          DIIS IN EFFECT
 ORBITAL PRINTING OPTION: NPREO=     1   165     2     1

     -------------------------------
     INTEGRAL TRANSFORMATION OPTIONS
     -------------------------------
     NWORD  =            0
     CUTOFF = 1.0E-09     MPTRAN =       0
     DIRTRF =       T     AOINTS =DUP     

          ----------------------
          INTEGRAL INPUT OPTIONS
          ----------------------
 NOPK  =       1 NORDER=       0 SCHWRZ=       T

     ------------------------------------------
     THE POINT GROUP IS C1 , NAXIS= 0, ORDER= 1
     ------------------------------------------

     DIMENSIONS OF THE SYMMETRY SUBSPACES ARE
 A   =  165

 ..... DONE SETTING UP THE RUN .....
 CPU     0: STEP CPU TIME=     0.02 TOTAL CPU TIME=          0.0 (      0.0 MIN)
 TOTAL WALL CLOCK TIME=          0.0 SECONDS, CPU UTILIZATION IS    66.67%


          -----------------------------
          STATIONARY POINT LOCATION RUN
          -----------------------------

 OBTAINING INITIAL HESSIAN, HESS=GUESS   
 CARTESIAN COORDINATE OPTIMIZATION USING BADGER'S RULE FORCE CONSTANT GUESS

          PARAMETERS CONTROLLING GEOMETRY SEARCH ARE
          METHOD =QA                  UPHESS =BFGS    
          NNEG   =         0          NFRZ   =         0
          NSTEP  =       999          IFOLOW =         1
          HESS   =GUESS               RESTAR =         F
          IHREP  =         0          HSSEND =         F
          NPRT   =         0          NPUN   =         0
          OPTTOL = 1.000E-04          RMIN   = 1.500E-03
          RMAX   = 1.000E-01          RLIM   = 7.000E-02
          DXMAX  = 3.000E-01          PURIFY =         F
          MOVIE  =         F          TRUPD  =         T
          TRMAX  = 5.000E-01          TRMIN  = 5.000E-02
          ITBMAT =         5          STPT   =         F
          STSTEP = 1.000E-02          PROJCT=          T

 BEGINNING GEOMETRY SEARCH POINT NSERCH=   0 ...

 COORDINATES OF ALL ATOMS ARE (ANGS)
   ATOM   CHARGE       X              Y              Z
 ------------------------------------------------------------
 C           6.0  -0.8404821000  -0.0254938000   0.1781334000
 C           6.0  -0.0254401000   1.1893524000  -0.2882544000
 C           6.0   1.4013865000   1.1206389000   0.2677822000
 C           6.0   2.0589979000  -0.2188735000  -0.1068091000
 C           6.0   3.4354530000  -0.4146338000   0.5060732000
 C           6.0  -4.6172231000  -0.0165935000  -0.3955005000
 H           1.0  -0.1219895000   3.1148006000  -0.1059401000
 H           1.0   2.7979601000   2.5310487000   0.2890125000
 H           1.0   0.3142325000  -2.3494270000  -1.7554322000
 H           1.0   4.8578249000  -1.7626310000   0.3276508000
 H           1.0  -2.2546407000  -0.0522642000  -1.3955142000
 O           8.0  -3.2854354000  -0.1270743000   1.6030001000
 O           8.0  -0.6833771000   2.3684134000   0.1496241000
 O           8.0   2.0936456000   2.2412848000  -0.3030291000
 O           8.0  -0.0964371000  -1.4988957000  -1.5457988000
 O           8.0   4.0815236000  -1.4872014000  -0.1754251000
 C           6.0  -3.3090508000  -0.0714415000   0.3761144000
 C           6.0  -0.0787869000  -1.3256876000  -0.1385773000
 O           8.0   1.2360061000  -1.2950144000   0.3767535000
 N           7.0  -2.1731516000  -0.0458912000  -0.3889809000
 H           1.0  -0.9722467000   0.0313234000   1.2624919000
 H           1.0   0.0474563000   1.1836237000  -1.3876486000
 H           1.0   1.3518444000   1.2199449000   1.3621086000
 H           1.0  -0.5552883000  -2.1740221000   0.3645119000
 H           1.0   2.1521664000  -0.2766350000  -1.1990608000
 H           1.0   4.0176598000   0.5124246000   0.3935401000
 H           1.0   3.3173978000  -0.6334747000   1.5767568000
 H           1.0  -5.2687265000  -0.8202913000  -0.0425472000
 H           1.0  -5.1107429000   0.9335929000  -0.1688448000
 H           1.0  -4.4923361000  -0.0996023000  -1.4792905000

          ********************
          1 ELECTRON INTEGRALS
          ********************
 ...... END OF ONE-ELECTRON INTEGRALS ......
 CPU     0: STEP CPU TIME=     0.02 TOTAL CPU TIME=          0.0 (      0.0 MIN)
 TOTAL WALL CLOCK TIME=          0.0 SECONDS, CPU UTILIZATION IS   100.00%

          -------------
          GUESS OPTIONS
          -------------
          GUESS =HUCKEL            NORB  =       0          NORDER=       0
          MIX   =       F          PRTMO =       F          PUNMO =       F
          TOLZ  = 1.0E-08          TOLE  = 1.0E-05
          SYMDEN=       F          PURIFY=       F

 INITIAL GUESS ORBITALS GENERATED BY HUCKEL   ROUTINE.
 HUCKEL GUESS REQUIRES    252105 WORDS.

 SYMMETRIES FOR INITIAL GUESS ORBITALS FOLLOW.   BOTH SET(S).
    59 ORBITALS ARE OCCUPIED (   15 CORE ORBITALS).
    16=A       17=A       18=A       19=A       20=A       21=A       22=A   
    23=A       24=A       25=A       26=A       27=A       28=A       29=A   
    30=A       31=A       32=A       33=A       34=A       35=A       36=A   
    37=A       38=A       39=A       40=A       41=A       42=A       43=A   
    44=A       45=A       46=A       47=A       48=A       49=A       50=A   
    51=A       52=A       53=A       54=A       55=A       56=A       57=A   
    58=A       59=A       60=A       61=A       62=A       63=A       64=A   
    65=A       66=A       67=A       68=A       69=A   
 ...... END OF INITIAL ORBITAL SELECTION ......
 CPU     0: STEP CPU TIME=     0.04 TOTAL CPU TIME=          0.1 (      0.0 MIN)
 TOTAL WALL CLOCK TIME=          0.1 SECONDS, CPU UTILIZATION IS    80.00%

                    ----------------------
                    AO INTEGRAL TECHNOLOGY
                    ----------------------
     S,P,L SHELL ROTATED AXIS INTEGRALS, REPROGRAMMED BY
        KAZUYA ISHIMURA (IMS) AND JOSE SIERRA (SYNSTAR).
     S,P,D,L SHELL ROTATED AXIS INTEGRALS PROGRAMMED BY
        KAZUYA ISHIMURA (INSTITUTE FOR MOLECULAR SCIENCE).
     S,P,D,F,G SHELL TO TOTAL QUARTET ANGULAR MOMENTUM SUM 5,
        ERIC PROGRAM BY GRAHAM FLETCHER (ELORET AND NASA ADVANCED
        SUPERCOMPUTING DIVISION, AMES RESEARCH CENTER).
     S,P,D,F,G,L SHELL GENERAL RYS QUADRATURE PROGRAMMED BY
        MICHEL DUPUIS (PACIFIC NORTHWEST NATIONAL LABORATORY).

          --------------------
          2 ELECTRON INTEGRALS
          --------------------

 DIRECT SCF METHOD SKIPS INTEGRAL STORAGE ON DISK.
 DIRECT TRANSFORMATION SKIPS AO INTEGRAL STORAGE ON DISK.
  ...... END OF TWO-ELECTRON INTEGRALS .....
 CPU     0: STEP CPU TIME=     0.01 TOTAL CPU TIME=          0.1 (      0.0 MIN)
 TOTAL WALL CLOCK TIME=          0.1 SECONDS, CPU UTILIZATION IS    75.00%

          --------------------------
             R-B3LYP SCF CALCULATION
          --------------------------

     NUCLEAR ENERGY =      1131.1306345997
     MAXIT =   60     NPUNCH=    2
     EXTRAP=T  DAMP=F  SHIFT=F  RSTRCT=F  DIIS=T  DEM=F  SOSCF=F
         DENSITY MATRIX CONVERGENCE THRESHOLD=  2.00E-05
     COARSE -> FINE DFT GRID SWITCH THRESHOLD=  3.00E-04 (SWITCH IN $DFT)
                   HF -> DFT SWITCH THRESHOLD=  5.00E-03 (SWOFF IN $DFT)
     MEMORY REQUIRED FOR RHF ITERS=   1215523 WORDS.

 DIRECT SCF CALCULATION, SCHWRZ=T   FDIFF=T,  DIRTHR=  0.00E+00 NITDIR=10
 SCHWARZ INEQUALITY OVERHEAD:     11739 INTEGRALS, T=        0.00

 DFT CODE IS SWITCHING FROM THE FINE GRID NRAD= 96,  NLEB=  302
                      TO THE COARSE GRID NRAD0= 24, NLEB0=  110

     EXCHANGE FUNCTIONAL   =B88&HFX   
     CORRELATION FUNCTIONAL=LYP88&VWN5
     DFT THRESHOLD         =.460E-08
     GRID CHANGE THRESHOLD =.300E-03
 FOR AN EULER-MACLAURIN QUADRATURE USING  96 RADIAL POINTS:
 SMALLEST GAUSSIAN PRIMITIVE EXPONENT=        0.1831915800 OF TYPE -S-
 ON ATOM NUMBER   7 HAS RADIAL NORMALIZATION=  1.000000
  LARGEST GAUSSIAN PRIMITIVE EXPONENT=      322.0370000000 OF TYPE -S-
 ON ATOM NUMBER  12 HAS RADIAL NORMALIZATION=  1.000000
 DFT IS SWITCHED OFF, PERFORMING PURE SCF UNTIL SWOFF THRESHOLD IS REACHED.

                                                                                   NONZERO     BLOCKS
 ITER EX DEM     TOTAL ENERGY        E CHANGE  DENSITY CHANGE    DIIS ERROR      INTEGRALS    SKIPPED
   1  0  0     -808.5254610134  -808.5254610134   0.909374970   0.586945375       37407773    2678479
          * * *   INITIATING DIIS PROCEDURE   * * *
   2  1  0     -810.5569984408    -2.0315374275   0.195523459   0.127670529       37358997    2704217
   3  2  0     -810.6826448130    -0.1256463721   0.136495474   0.120288100       36930349    2788163
   4  3  0     -810.7593594662    -0.0767146532   0.037252252   0.010900964       36216762    2867925
   5  4  0     -810.7627298033    -0.0033703371   0.005064614   0.003633628       35472971    2924618
   6  5  0     -810.7629626187    -0.0002328154   0.001975703   0.001667977       33679283    3026161
 CONVERGED TO SWOFF, SO DFT CALCULATION IS NOW SWITCHED ON.
          * * *   INITIATING DIIS PROCEDURE   * * *
   7  6  0     -814.8948047944    -4.1318421757   0.110665741   0.060943032       37458239    2656407
   8  7  0     -814.9546684073    -0.0598636129   0.093759072   0.037019990       37061095    2776353
   9  8  0     -814.9523147226     0.0023536847   0.057018515   0.048970536       36488153    2838242
  10  9  0     -814.9688315972    -0.0165168746   0.023726315   0.016674315       35904777    2891501
  11 10  0     -814.9704113573    -0.0015797601   0.005710463   0.003118639       34501175    2980510
  12 11  0     -814.9704881818    -0.0000768245   0.000659088   0.000414000       32495358    3085442
  13 12  0     -814.9704909764    -0.0000027946   0.000101784   0.000094831       30259459    3169190
 DFT CODE IS SWITCHING BACK TO THE FINE GRID
          * * *   INITIATING DIIS PROCEDURE   * * *
  14 13  0     -814.9849790211    -0.0144880447   0.001845460   0.001107485       37477838    2646964
  15 14  0     -814.9850237288    -0.0000447077   0.002604228   0.000759041       33444214    3043148
  16 15  0     -814.9850253609    -0.0000016321   0.001228445   0.000778930       31728596    3120551
  17 16  0     -814.9850308157    -0.0000054548   0.000307162   0.000166367       30312510    3179376
  18 17  0     -814.9850309674    -0.0000001517   0.000109607   0.000089498       26894839    3302378
  19 18  0     -814.9850310115    -0.0000000441   0.000015578   0.000008079       24856781    3377823
  20 19  0     -814.9850310133    -0.0000000018   0.000004475   0.000002254       22423404    3455204

          -----------------
          DENSITY CONVERGED
          -----------------
     TIME TO FORM FOCK OPERATORS=      42.7 SECONDS (       2.1 SEC/ITER)
     FOCK TIME ON FIRST ITERATION=       0.3, LAST ITERATION=       5.3
     TIME TO SOLVE SCF EQUATIONS=       0.3 SECONDS (       0.0 SEC/ITER)

 FINAL R-B3LYP ENERGY IS     -814.9850310133 AFTER  20 ITERATIONS
 DFT EXCHANGE + CORRELATION ENERGY =       -86.4225214729
 TOTAL ELECTRON NUMBER             =       118.0000028637

          ------------
          EIGENVECTORS
          ------------

                      1          2          3          4          5
                  -19.0407   -19.0406   -19.0364   -19.0204   -19.0118
                     A          A          A          A          A   
    1  C  1  S   -0.000175   0.000241   0.000306  -0.000033   0.000255
    2  C  1  S   -0.001047   0.000734   0.001386  -0.000180   0.000999
    3  C  1  X   -0.000659  -0.000604  -0.000233   0.000015  -0.000299
    4  C  1  Y   -0.000261   0.000836   0.001057  -0.000030  -0.000343
    5  C  1  Z   -0.000128  -0.000112   0.000043   0.000134   0.000498
    6  C  1  S    0.003120  -0.007889  -0.009462   0.001197  -0.007148
    7  C  1  X    0.006226  -0.001508  -0.001635   0.000322  -0.000829
    8  C  1  Y   -0.000625  -0.001310   0.000088  -0.000914  -0.005425
    9  C  1  Z    0.001071   0.001521   0.005935  -0.001377  -0.003331
   10  C  2  S    0.000226   0.000120   0.000081  -0.000068  -0.001005
   11  C  2  S    0.000666   0.000990   0.000854  -0.000372  -0.004214
   12  C  2  X   -0.000560   0.000063  -0.000058   0.000154  -0.000473
   13  C  2  Y    0.000001  -0.000715  -0.000490  -0.000098   0.001282
   14  C  2  Z   -0.000129  -0.000602   0.000188  -0.000140  -0.000198
   15  C  2  S   -0.008380  -0.001200  -0.000120   0.003090   0.026440
   16  C  2  X   -0.004402  -0.005548  -0.003441   0.000847  -0.006801
   17  C  2  Y   -0.001065   0.001309  -0.000248   0.001367   0.011981
   18  C  2  Z   -0.000451   0.004859  -0.000878   0.001951   0.009856
   19  C  3  S   -0.000989  -0.000272  -0.000154  -0.000072   0.000229
   20  C  3  S   -0.004138  -0.001710  -0.000723  -0.000503   0.000792
   21  C  3  X    0.000664  -0.000142  -0.000073  -0.000619   0.000560
   22  C  3  Y    0.000909   0.000996  -0.000316   0.000266  -0.000069
   23  C  3  Z    0.000040   0.000451  -0.000121  -0.000141   0.000315
   24  C  3  S    0.024834   0.006891   0.005861   0.000259  -0.006979
   25  C  3  X    0.004839   0.002741  -0.000994   0.004912   0.004456
   26  C  3  Y    0.009958   0.004986  -0.001038  -0.001219  -0.002057
   27  C  3  Z   -0.008853  -0.007599  -0.000996   0.000485  -0.002025
   28  C  4  S    0.000327  -0.000689   0.000225   0.000276  -0.000035
   29  C  4  S    0.000967  -0.002689   0.001619   0.001176  -0.000238
   30  C  4  X    0.000531  -0.001343  -0.000593  -0.000257   0.000651
   31  C  4  Y   -0.000209  -0.001480  -0.000100   0.000309  -0.000386
   32  C  4  Z   -0.000508  -0.000371  -0.000009  -0.000179   0.000109
   33  C  4  S   -0.007703   0.015838  -0.004363  -0.009497  -0.001209
   34  C  4  X    0.000682  -0.003888   0.004379  -0.005573  -0.004310
   35  C  4  Y   -0.001903  -0.009642  -0.000847   0.000203   0.000435
   36  C  4  Z    0.002993   0.009293   0.000154   0.000015  -0.000379
   37  C  5  S    0.000004   0.000206   0.000049  -0.000913  -0.000063
   38  C  5  S    0.000299   0.000920   0.000347  -0.003715  -0.000316
   39  C  5  X   -0.000456   0.000482  -0.000088   0.001170  -0.000200
   40  C  5  Y    0.000072   0.000001  -0.000050  -0.001309   0.000087
   41  C  5  Z    0.000164   0.000557  -0.000070  -0.000602   0.000031
   42  C  5  S    0.000423  -0.006585  -0.001898   0.023628   0.003145
   43  C  5  X    0.001353   0.004780   0.000691   0.001935  -0.000653
   44  C  5  Y    0.000055   0.002003   0.000318  -0.008352  -0.000297
   45  C  5  Z   -0.001846  -0.002968   0.001120  -0.007502  -0.001391
   46  C  6  S   -0.000022  -0.000003   0.000023  -0.000003  -0.000023
   47  C  6  S   -0.000134  -0.000048   0.000113  -0.000014  -0.000134
   48  C  6  X    0.000001  -0.000052  -0.000032   0.000014   0.000015
   49  C  6  Y    0.000007  -0.000018  -0.000010   0.000007   0.000039
   50  C  6  Z    0.000014  -0.000027  -0.000017   0.000006   0.000023
   51  C  6  S    0.000771  -0.000073  -0.000931   0.000170   0.000857
   52  C  6  X    0.000386  -0.000082  -0.000536   0.000066   0.000445
   53  C  6  Y   -0.000052   0.000023   0.000160  -0.000023  -0.000232
   54  C  6  Z    0.000130   0.000241  -0.000179   0.000003   0.000088
   55  H  7  S   -0.000358  -0.000125  -0.000034   0.000010   0.003372
   56  H  7  S    0.001199  -0.000148  -0.000100  -0.000093   0.005400
   57  H  8  S    0.002969   0.000685   0.000061   0.000051  -0.000343
   58  H  8  S    0.005308   0.001908  -0.000090   0.000125  -0.000344
   59  H  9  S   -0.000107   0.000704   0.003446  -0.000016   0.000045
   60  H  9  S   -0.000032  -0.000751   0.005019   0.000047  -0.000064
   61  H 10  S    0.000103  -0.000237  -0.000080   0.003224   0.000112
   62  H 10  S   -0.000166  -0.000374   0.000002   0.005744  -0.000059
   63  H 11  S    0.000205  -0.000257  -0.000377   0.000046   0.000526
   64  H 11  S    0.000185   0.000084   0.000662   0.000080   0.000080
   65  O 12  S   -0.000010  -0.000237  -0.000040   0.000110   0.000286
   66  O 12  S    0.000001  -0.000093  -0.000031   0.000033   0.000075
   67  O 12  X   -0.000013   0.000026   0.000045   0.000001   0.000004
   68  O 12  Y   -0.000002   0.000012  -0.000017  -0.000007  -0.000005
   69  O 12  Z    0.000004  -0.000003   0.000005   0.000001   0.000004
   70  O 12  S   -0.000141   0.000332   0.000328  -0.000108  -0.000240
   71  O 12  X   -0.000020  -0.000169  -0.000080  -0.000011  -0.000072
   72  O 12  Y    0.000000  -0.000056   0.000106   0.000022  -0.000022
   73  O 12  Z    0.000009  -0.000051  -0.000078   0.000015  -0.000001
   74  O 13  S    0.002401   0.006053   0.001555   0.003926   0.982552
   75  O 13  S    0.000429   0.001388   0.000321   0.000609   0.105945
   76  O 13  X    0.000153   0.000052  -0.000080   0.000004   0.003348
   77  O 13  Y    0.000073  -0.000213  -0.000080  -0.000034  -0.001103
   78  O 13  Z    0.000067   0.000063  -0.000056  -0.000014  -0.001881
   79  O 13  S   -0.000101  -0.003223  -0.000658  -0.001256  -0.054220
   80  O 13  X   -0.000029  -0.000288   0.000390  -0.000274  -0.009234
   81  O 13  Y   -0.000587   0.001560   0.000456   0.000473   0.006617
   82  O 13  Z   -0.000283  -0.000202   0.000306   0.000082   0.005059
   83  O 14  S    0.938403   0.291067  -0.007172  -0.002553  -0.004014
   84  O 14  S    0.100827   0.031363  -0.000613  -0.000024  -0.000069
   85  O 14  X    0.000111  -0.000045   0.000034   0.000042  -0.000406
   86  O 14  Y   -0.001974  -0.000447  -0.000038  -0.000006  -0.000014
   87  O 14  Z    0.003017   0.000939  -0.000018   0.000079  -0.000194
   88  O 14  S   -0.050286  -0.016916  -0.000287  -0.000911  -0.000091
   89  O 14  X    0.002101   0.001242   0.000031  -0.000319   0.000999
   90  O 14  Y    0.007631   0.002392   0.000386   0.000428   0.000041
   91  O 14  Z   -0.007508  -0.002347  -0.000024  -0.000463   0.000854
   92  O 15  S   -0.010475   0.058068   0.980789   0.001172  -0.001836
   93  O 15  S   -0.001365   0.007523   0.105532   0.000017   0.000037
   94  O 15  X   -0.000162   0.000521   0.001250  -0.000006   0.000124
   95  O 15  Y   -0.000054   0.000099  -0.001858  -0.000008   0.000043
   96  O 15  Z   -0.000058   0.000396   0.003144  -0.000017   0.000049
   97  O 15  S    0.001248  -0.007746  -0.053038   0.000499  -0.000807
   98  O 15  X    0.000857  -0.002802  -0.002980   0.000072  -0.000524
   99  O 15  Y    0.000245  -0.000976   0.002741   0.000110  -0.000467
  100  O 15  Z    0.000641  -0.003498  -0.011279   0.000306  -0.000455
  101  O 16  S    0.001805   0.002902  -0.001364   0.982459  -0.003895
  102  O 16  S    0.000372   0.000473  -0.000255   0.105062  -0.000241
  103  O 16  X    0.000037  -0.000164  -0.000016   0.000575   0.000042
  104  O 16  Y    0.000050   0.000219  -0.000014   0.002027   0.000010
  105  O 16  Z    0.000014  -0.000162  -0.000036   0.003223   0.000020
  106  O 16  S   -0.000937  -0.000267   0.000595  -0.050404  -0.000660
  107  O 16  X   -0.000011   0.000280  -0.000052   0.000802   0.000014
  108  O 16  Y   -0.000456  -0.000799   0.000191  -0.006855  -0.000287
  109  O 16  Z   -0.000091   0.000784   0.000173  -0.008071  -0.000190
  110  C 17  S   -0.000009  -0.000009  -0.000003  -0.000001  -0.000001
  111  C 17  S   -0.000141  -0.000058   0.000081  -0.000015  -0.000095
  112  C 17  X   -0.000245   0.000036   0.000315  -0.000050  -0.000302
  113  C 17  Y   -0.000020   0.000039   0.000043  -0.000010  -0.000084
  114  C 17  Z   -0.000013  -0.000067  -0.000053   0.000008   0.000021
  115  C 17  S   -0.000453   0.000982   0.001186  -0.000208  -0.001181
  116  C 17  X    0.000620   0.000677  -0.000531   0.000059   0.000350
  117  C 17  Y    0.000015   0.000225  -0.000335  -0.000043   0.000219
  118  C 17  Z    0.000509  -0.000871  -0.001115   0.000218   0.000774
  119  C 18  S    0.000310  -0.000957  -0.001076   0.000092  -0.000127
  120  C 18  S    0.001064  -0.003898  -0.004763   0.000440  -0.000813
  121  C 18  X   -0.000737   0.001542  -0.000086  -0.000111   0.000000
  122  C 18  Y   -0.000328  -0.000466  -0.001270   0.000074  -0.000652
  123  C 18  Z   -0.000017   0.000294  -0.001527  -0.000075   0.000179
  124  C 18  S   -0.009299   0.022176   0.025421  -0.002563   0.000938
  125  C 18  X   -0.003409   0.011334   0.001803  -0.000349   0.002426
  126  C 18  Y   -0.001238   0.003707   0.003517  -0.001097   0.002462
  127  C 18  Z   -0.002454   0.000224  -0.014868   0.000310  -0.000718
  128  O 19  S   -0.291020   0.936849  -0.058235  -0.002336  -0.004795
  129  O 19  S   -0.031793   0.102583  -0.005107  -0.000158   0.000145
  130  O 19  X    0.000646  -0.001278   0.000116   0.000370  -0.000041
  131  O 19  Y   -0.000847   0.002329  -0.000182   0.000010   0.000029
  132  O 19  Z    0.000724  -0.002432  -0.000429   0.000108  -0.000170
  133  O 19  S    0.016620  -0.057202  -0.000947   0.000346  -0.002567
  134  O 19  X   -0.002934   0.003909   0.001640  -0.001032   0.000688
  135  O 19  Y    0.002076  -0.007073   0.000885   0.000042  -0.000713
  136  O 19  Z   -0.002182   0.007527   0.003477  -0.000462   0.001042
  137  N 20  S   -0.000051  -0.000062   0.000030   0.000009   0.000035
  138  N 20  S   -0.000268  -0.000378   0.000300   0.000047   0.000278
  139  N 20  X    0.000112  -0.000351  -0.000079   0.000039   0.000382
  140  N 20  Y   -0.000005   0.000295  -0.000198  -0.000041   0.000082
  141  N 20  Z   -0.000157   0.000056   0.000145  -0.000032  -0.000233
  142  N 20  S    0.002345   0.000946   0.000616  -0.000323  -0.000182
  143  N 20  X    0.000464   0.002356   0.001973  -0.000436  -0.001260
  144  N 20  Y    0.000090  -0.000838   0.000783   0.000238   0.000224
  145  N 20  Z    0.001138  -0.000347  -0.000417   0.000194   0.001374
  146  H 21  S   -0.000614   0.000360  -0.000533   0.000105   0.001103
  147  H 21  S    0.000295  -0.000167   0.000065   0.000473   0.001622
  148  H 22  S    0.000555   0.000968  -0.000217   0.000123  -0.000976
  149  H 22  S    0.000169   0.002056   0.000226   0.000308   0.000220
  150  H 23  S   -0.001036   0.000469  -0.000264  -0.000351   0.000838
  151  H 23  S   -0.000646   0.001159  -0.000138   0.000290   0.001232
  152  H 24  S    0.000596  -0.001195  -0.001134   0.000066   0.000276
  153  H 24  S    0.000997   0.000002   0.000556  -0.000199   0.001174
  154  H 25  S    0.001187  -0.000495   0.000015   0.000581  -0.000215
  155  H 25  S    0.001700   0.001009   0.000806   0.001098   0.000393
  156  H 26  S    0.000093  -0.000230   0.000084  -0.001477  -0.000054
  157  H 26  S   -0.001522  -0.000862  -0.000137  -0.001248  -0.000317
  158  H 27  S    0.000173   0.000871   0.000097  -0.001383   0.000015
  159  H 27  S    0.001060   0.002183  -0.000389  -0.001156   0.000123
  160  H 28  S   -0.000038  -0.000029   0.000064  -0.000005  -0.000058
  161  H 28  S   -0.000000   0.000032  -0.000016  -0.000018  -0.000049
  162  H 29  S   -0.000031   0.000002   0.000013  -0.000008  -0.000012
  163  H 29  S    0.000018  -0.000079  -0.000037   0.000018   0.000091
  164  H 30  S   -0.000055   0.000017   0.000096  -0.000005  -0.000068
  165  H 30  S   -0.000030   0.000132  -0.000092  -0.000036  -0.000061

                      6          7          8          9         10
                  -18.9770   -14.2587   -10.2199   -10.2078   -10.1761
                     A          A          A          A          A   
    1  C  1  S   -0.000065  -0.000546  -0.008028  -0.000658  -0.011862
    2  C  1  S    0.000291  -0.002310  -0.005147  -0.000812  -0.003596
    3  C  1  X   -0.001425  -0.001151   0.000063   0.000309  -0.001253
    4  C  1  Y    0.000027   0.000051  -0.000150  -0.000040  -0.000810
    5  C  1  Z   -0.000079  -0.000239   0.000181  -0.000955  -0.000313
    6  C  1  S    0.007065   0.019787   0.029955   0.006351   0.005319
    7  C  1  X   -0.000682  -0.013294   0.010699  -0.008532   0.006291
    8  C  1  Y   -0.000137   0.000621  -0.014880   0.000476   0.000511
    9  C  1  Z   -0.003321  -0.003196  -0.004532   0.004320   0.001656
   10  C  2  S    0.000044   0.000062  -0.004577   0.000067  -0.047621
   11  C  2  S    0.000175  -0.000037  -0.002398   0.000034  -0.008982
   12  C  2  X    0.000079   0.000634   0.000548  -0.000274   0.000470
   13  C  2  Y    0.000031   0.000181   0.001160  -0.000022   0.000012
   14  C  2  Z   -0.000100  -0.000042  -0.000027   0.000073   0.000037
   15  C  2  S   -0.001951  -0.002471   0.005405   0.001390   0.032924
   16  C  2  X    0.000636  -0.000251   0.003083   0.001671   0.018977
   17  C  2  Y    0.001511   0.001328  -0.001152  -0.001973  -0.000025
   18  C  2  Z    0.000553  -0.000013  -0.000020  -0.001085   0.004546
   19  C  3  S   -0.000018  -0.000190   0.001595  -0.000757   0.980688
   20  C  3  S   -0.000117  -0.001233   0.001711  -0.000257   0.117081
   21  C  3  X    0.000010   0.000411  -0.000204   0.000255  -0.000620
   22  C  3  Y    0.000085   0.000380   0.000498   0.000074  -0.000637
   23  C  3  Z    0.000007   0.000018  -0.000233  -0.000129  -0.000587
   24  C  3  S    0.000279   0.003773  -0.010502  -0.000266  -0.115132
   25  C  3  X    0.000043  -0.002229   0.003525  -0.000928   0.007839
   26  C  3  Y   -0.000748  -0.003221   0.003633  -0.000734   0.013107
   27  C  3  Z   -0.000035  -0.000024   0.005240   0.001373   0.009636
   28  C  4  S    0.000011   0.000070  -0.007213   0.000458  -0.096931
   29  C  4  S    0.000004   0.000276  -0.004311   0.000196  -0.015914
   30  C  4  X    0.000162   0.000257   0.002290  -0.000176   0.000180
   31  C  4  Y    0.000008  -0.000104   0.000532  -0.000053   0.000135
   32  C  4  Z    0.000065   0.000090   0.000819  -0.000017  -0.000037
   33  C  4  S   -0.000821  -0.002990   0.009479   0.000013   0.041443
   34  C  4  X   -0.000646   0.000108  -0.016123   0.001425  -0.011587
   35  C  4  Y   -0.000145  -0.000504  -0.000293   0.000457   0.017710
   36  C  4  Z   -0.000644  -0.001463  -0.005003  -0.000185   0.002949
   37  C  5  S   -0.000024  -0.000053  -0.001359   0.000170  -0.037248
   38  C  5  S   -0.000129  -0.000292  -0.001069   0.000112  -0.004875
   39  C  5  X   -0.000021  -0.000007  -0.000384   0.000024   0.000725
   40  C  5  Y    0.000002  -0.000019  -0.000241   0.000014  -0.000317
   41  C  5  Z   -0.000009  -0.000013   0.000180   0.000001  -0.000020
   42  C  5  S    0.000886   0.001481   0.009023  -0.000809   0.002308
   43  C  5  X   -0.000407  -0.000847  -0.002758   0.000218   0.000112
   44  C  5  Y    0.000068   0.000231   0.002182  -0.000257  -0.001717
   45  C  5  Z   -0.000135   0.000024  -0.003558   0.000409   0.001036
   46  C  6  S   -0.000134  -0.000054   0.000063  -0.004873  -0.000332
   47  C  6  S   -0.000920  -0.000558   0.000084  -0.003440  -0.000239
   48  C  6  X    0.000205  -0.000183   0.000013  -0.000685  -0.000010
   49  C  6  Y   -0.000035  -0.000063   0.000118   0.000098   0.000007
   50  C  6  Z    0.000281  -0.000414  -0.000028  -0.000130  -0.000024
   51  C  6  S    0.009532   0.003016  -0.000515   0.024847   0.001122
   52  C  6  X    0.006928  -0.001824  -0.000513   0.015998   0.000326
   53  C  6  Y    0.000233   0.000128  -0.000806  -0.000910   0.000023
   54  C  6  Z   -0.005853   0.006150   0.000144   0.004833   0.000509
   55  H  7  S    0.000004  -0.000312   0.000390  -0.000194  -0.000079
   56  H  7  S   -0.000123  -0.000148   0.000506   0.000242   0.000302
   57  H  8  S   -0.000051  -0.000178   0.000203  -0.000028  -0.000092
   58  H  8  S    0.000046   0.000412  -0.000052   0.000148   0.002518
   59  H  9  S   -0.000104  -0.000293  -0.000030   0.000050  -0.000127
   60  H  9  S   -0.000075  -0.000201   0.003143  -0.000071   0.000503
   61  H 10  S   -0.000009  -0.000052  -0.000015   0.000003   0.000397
   62  H 10  S    0.000022   0.000065   0.000276  -0.000024   0.000165
   63  H 11  S   -0.002493   0.000792  -0.000508  -0.003259  -0.000493
   64  H 11  S   -0.000529   0.006468   0.000730  -0.000840   0.000829
   65  O 12  S    0.982823   0.000041  -0.000013   0.000439  -0.000002
   66  O 12  S    0.107899   0.000105  -0.000093   0.002009  -0.000046
   67  O 12  X    0.000070   0.000700   0.000082   0.000531  -0.000029
   68  O 12  Y    0.000206  -0.000003   0.000010  -0.000045  -0.000023
   69  O 12  Z   -0.004692   0.000112   0.000020   0.000859  -0.000024
   70  O 12  S   -0.065352  -0.000324   0.000567  -0.006931  -0.000074
   71  O 12  X   -0.000239  -0.004706  -0.000236  -0.002923  -0.000119
   72  O 12  Y   -0.000801  -0.000017  -0.000213  -0.000266   0.000104
   73  O 12  Z    0.017777   0.000999  -0.000202   0.006555   0.000145
   74  O 13  S   -0.000275   0.000013  -0.000031  -0.000024   0.000037
   75  O 13  S    0.000013   0.000283  -0.000399  -0.000172   0.000003
   76  O 13  X    0.000010  -0.000100   0.000215  -0.000034  -0.000043
   77  O 13  Y   -0.000006  -0.000234   0.000373  -0.000052   0.000260
   78  O 13  Z    0.000042   0.000097  -0.000038   0.000072   0.000042
   79  O 13  S   -0.000198  -0.000672   0.001007   0.001042  -0.001564
   80  O 13  X   -0.000118   0.000455  -0.000949   0.000309  -0.001702
   81  O 13  Y    0.000038   0.000919  -0.001579  -0.000144  -0.000063
   82  O 13  Z   -0.000110  -0.000247   0.000141  -0.000329  -0.000171
   83  O 14  S    0.000076  -0.000020  -0.000033  -0.000021  -0.000175
   84  O 14  S   -0.000019  -0.000256  -0.000296  -0.000179  -0.001014
   85  O 14  X   -0.000015   0.000010   0.000042   0.000014  -0.000104
   86  O 14  Y   -0.000001   0.000048   0.000191   0.000044  -0.000037
   87  O 14  Z   -0.000021  -0.000062   0.000183   0.000002   0.000544
   88  O 14  S    0.000164   0.001114   0.001010   0.000838   0.011175
   89  O 14  X    0.000021  -0.000116  -0.000539  -0.000167  -0.002626
   90  O 14  Y   -0.000016  -0.000333  -0.001143  -0.000395  -0.004693
   91  O 14  Z    0.000114   0.000406  -0.000841   0.000054  -0.000599
   92  O 15  S    0.000039   0.000023  -0.000154   0.000019  -0.000070
   93  O 15  S   -0.000038   0.000378  -0.001114   0.000160  -0.000477
   94  O 15  X   -0.000051  -0.000127   0.000129   0.000054   0.000059
   95  O 15  Y    0.000056   0.000250  -0.000437   0.000037   0.000040
   96  O 15  Z    0.000024   0.000069   0.000121   0.000017  -0.000090
   97  O 15  S    0.000411  -0.000926   0.011387  -0.000782   0.002596
   98  O 15  X    0.000210   0.000566  -0.000490  -0.000401   0.000113
   99  O 15  Y   -0.000107  -0.001023   0.003383  -0.000239   0.000527
  100  O 15  Z    0.000078  -0.000491   0.004130  -0.000333   0.001402
  101  O 16  S   -0.000103   0.000002   0.000018  -0.000002  -0.000020
  102  O 16  S    0.000011   0.000023   0.000134  -0.000019  -0.000265
  103  O 16  X   -0.000008  -0.000027   0.000046  -0.000001   0.000335
  104  O 16  Y   -0.000000   0.000002   0.000058  -0.000004  -0.000075
  105  O 16  Z   -0.000003  -0.000015  -0.000064   0.000006   0.000117
  106  O 16  S   -0.000082  -0.000052  -0.000747   0.000088   0.000222
  107  O 16  X    0.000061   0.000153  -0.000003  -0.000014  -0.001332
  108  O 16  Y   -0.000027  -0.000021  -0.000545   0.000055   0.000357
  109  O 16  Z   -0.000001   0.000052   0.000200  -0.000023  -0.000658
  110  C 17  S    0.000255  -0.000259  -0.001219   0.985361   0.000769
  111  C 17  S    0.001794  -0.001255  -0.000251   0.105489  -0.000085
  112  C 17  X   -0.000451   0.000734   0.000030  -0.000115  -0.000205
  113  C 17  Y   -0.000084   0.000019  -0.000344   0.000002  -0.000014
  114  C 17  Z    0.001869   0.000124   0.000063   0.000504  -0.000153
  115  C 17  S    0.015871   0.021390   0.000940  -0.056007   0.001054
  116  C 17  X    0.002987   0.020223   0.000263   0.014090   0.001952
  117  C 17  Y   -0.001511   0.000225   0.001392  -0.001036  -0.000281
  118  C 17  Z    0.033997  -0.010223  -0.001162   0.020065  -0.000078
  119  C 18  S    0.000031  -0.000115   0.986686   0.001164  -0.001976
  120  C 18  S    0.000083  -0.001131   0.113501  -0.000098   0.001418
  121  C 18  X    0.000152   0.000803   0.000899  -0.000194   0.000195
  122  C 18  Y    0.000005  -0.000446   0.001544  -0.000115   0.000297
  123  C 18  Z   -0.000091  -0.000061  -0.000185   0.000092  -0.000664
  124  C 18  S   -0.001354   0.001854  -0.090660   0.001989  -0.006599
  125  C 18  X    0.000070   0.000442   0.003273   0.001925  -0.002882
  126  C 18  Y   -0.001636   0.000807  -0.015003   0.002446  -0.004680
  127  C 18  Z    0.000774   0.000036  -0.000935  -0.001321   0.003014
  128  O 19  S    0.000206  -0.000012  -0.000027   0.000005  -0.000021
  129  O 19  S   -0.000041  -0.000248  -0.000172   0.000018  -0.000608
  130  O 19  X   -0.000003   0.000124  -0.000303   0.000034  -0.000097
  131  O 19  Y   -0.000057  -0.000109   0.000083  -0.000028  -0.000416
  132  O 19  Z   -0.000000  -0.000096  -0.000443  -0.000091   0.000194
  133  O 19  S    0.000192   0.000580   0.006830  -0.000274  -0.000105
  134  O 19  X   -0.000013  -0.000075  -0.003698   0.000254  -0.000891
  135  O 19  Y    0.000287   0.000580  -0.001234   0.000185  -0.000840
  136  O 19  Z   -0.000039   0.000402   0.000973   0.000492  -0.000838
  137  N 20  S   -0.000013   0.985232  -0.000019   0.000303  -0.000081
  138  N 20  S   -0.000072   0.112603  -0.000945   0.000373  -0.000856
  139  N 20  X    0.001579  -0.000004  -0.000817   0.001427  -0.000495
  140  N 20  Y   -0.000008  -0.000062   0.000455   0.000006  -0.000261
  141  N 20  Z    0.000916   0.001536  -0.000093   0.000967  -0.000024
  142  N 20  S    0.002904  -0.082382   0.000031   0.003636   0.002653
  143  N 20  X   -0.010120   0.001890   0.001249  -0.007136   0.003274
  144  N 20  Y    0.000185   0.000134  -0.000136   0.000041   0.001004
  145  N 20  Z   -0.007493  -0.011864   0.000235  -0.009803   0.000116
  146  H 21  S   -0.000477  -0.001613  -0.001926  -0.001529  -0.000388
  147  H 21  S    0.000386  -0.002607   0.002095  -0.003134  -0.002065
  148  H 22  S    0.000277   0.000434  -0.000510  -0.000155  -0.002089
  149  H 22  S    0.000119  -0.000711  -0.000684  -0.000489   0.000058
  150  H 23  S   -0.000047  -0.000558   0.000276  -0.000295   0.001099
  151  H 23  S    0.000094   0.000359  -0.001772  -0.000242   0.015161
  152  H 24  S    0.000081   0.000047  -0.000678   0.000210  -0.000204
  153  H 24  S   -0.001020  -0.000523   0.013632   0.001301  -0.002066
  154  H 25  S   -0.000073  -0.000058  -0.001909   0.000038  -0.002443
  155  H 25  S   -0.000091  -0.000270  -0.001844  -0.000253  -0.000546
  156  H 26  S   -0.000042  -0.000108  -0.000642   0.000059   0.000018
  157  H 26  S   -0.000018   0.000050  -0.001029   0.000154   0.000340
  158  H 27  S   -0.000047  -0.000092  -0.000034   0.000019   0.000196
  159  H 27  S   -0.000030  -0.000213   0.000865  -0.000150  -0.002357
  160  H 28  S    0.000503  -0.000605  -0.000117  -0.001415  -0.000062
  161  H 28  S    0.000793  -0.000805  -0.000251   0.002921  -0.000076
  162  H 29  S    0.000297  -0.000350   0.000125  -0.001576  -0.000079
  163  H 29  S    0.000016  -0.001071   0.000165   0.003295  -0.000045
  164  H 30  S   -0.001572   0.000811   0.000099  -0.001745   0.000001
  165  H 30  S   -0.002872   0.001576  -0.000029  -0.000103   0.000004

                     11         12         13         14         15
                  -10.1727   -10.1710   -10.1681   -10.1537   -10.1129
                     A          A          A          A          A   
    1  C  1  S    0.001231   0.002548  -0.027434   0.986945   0.001726
    2  C  1  S    0.000673   0.001757  -0.006299   0.119090  -0.000805
    3  C  1  X   -0.000087  -0.000197   0.000193   0.000292   0.000471
    4  C  1  Y   -0.000184   0.000591   0.000340  -0.000094   0.000096
    5  C  1  Z   -0.000034  -0.000151   0.000001  -0.000732  -0.000177
    6  C  1  S   -0.004791  -0.011794   0.027820  -0.117655   0.003756
    7  C  1  X   -0.001252  -0.005029   0.008624  -0.007562  -0.004398
    8  C  1  Y    0.000330  -0.002023   0.016353   0.001532  -0.000570
    9  C  1  Z    0.001278   0.004610  -0.002323   0.010260  -0.000008
   10  C  2  S   -0.021772  -0.072094   0.982783   0.025991   0.000024
   11  C  2  S   -0.003957  -0.010251   0.116388  -0.000419   0.000068
   12  C  2  X   -0.000099  -0.000895   0.000701  -0.000193  -0.000106
   13  C  2  Y    0.000190  -0.000002  -0.001144  -0.000352   0.000009
   14  C  2  Z    0.000006  -0.000170   0.000672   0.000153   0.000060
   15  C  2  S    0.010090   0.015954  -0.107323   0.025738   0.000323
   16  C  2  X    0.003844   0.000390  -0.005795  -0.011733   0.000905
   17  C  2  Y   -0.002856  -0.002091   0.012381  -0.015121  -0.000655
   18  C  2  Z    0.001260   0.001574  -0.008667   0.001902  -0.000224
   19  C  3  S    0.011883   0.098251   0.053610   0.012597   0.000298
   20  C  3  S    0.001451   0.007061   0.002520  -0.000772  -0.000141
   21  C  3  X   -0.001207  -0.000113  -0.000195   0.001055   0.000128
   22  C  3  Y    0.000607   0.000006  -0.000236   0.000387   0.000057
   23  C  3  Z   -0.000503  -0.000027  -0.000295  -0.000128  -0.000075
   24  C  3  S   -0.009529   0.019552   0.025486   0.004955   0.000131
   25  C  3  X    0.004023   0.011148  -0.017556  -0.003538  -0.000432
   26  C  3  Y    0.003251  -0.015690   0.001113  -0.001672  -0.000608
   27  C  3  Z    0.002873  -0.003058  -0.003036   0.000727   0.000755
   28  C  4  S   -0.240345   0.950726   0.059571  -0.001315  -0.000065
   29  C  4  S   -0.031006   0.112321   0.005761   0.000422   0.000076
   30  C  4  X   -0.000517  -0.000995   0.000850  -0.000345  -0.000034
   31  C  4  Y    0.000038   0.000212  -0.000949  -0.000112  -0.000019
   32  C  4  Z   -0.000479   0.000213   0.000735  -0.000450   0.000002
   33  C  4  S    0.049478  -0.098335  -0.004204  -0.001343  -0.000312
   34  C  4  X    0.016128   0.003258  -0.004427   0.004571   0.000557
   35  C  4  Y   -0.001025  -0.008004   0.002462  -0.000154   0.000168
   36  C  4  Z    0.008277  -0.003721  -0.004324   0.001829  -0.000301
   37  C  5  S    0.956636   0.235026   0.036190  -0.001003  -0.000006
   38  C  5  S    0.109803   0.023713   0.002433   0.000230   0.000006
   39  C  5  X   -0.000384  -0.000182   0.000242   0.000052   0.000007
   40  C  5  Y    0.000434   0.000357  -0.000273  -0.000082   0.000009
   41  C  5  Z    0.000086   0.000147  -0.000013   0.000068  -0.000003
   42  C  5  S   -0.094936   0.003041   0.004590  -0.003011  -0.000133
   43  C  5  X    0.013629  -0.011360  -0.004632   0.001336  -0.000024
   44  C  5  Y   -0.005270   0.000832   0.001624   0.000170  -0.000114
   45  C  5  Z    0.003232  -0.004850  -0.000468   0.000626   0.000167
   46  C  6  S   -0.000014   0.000066   0.000031  -0.002087   0.986326
   47  C  6  S    0.000009   0.000102   0.000006  -0.001367   0.112604
   48  C  6  X   -0.000022  -0.000057   0.000006   0.000201  -0.000158
   49  C  6  Y   -0.000001   0.000002  -0.000118  -0.000008   0.000066
   50  C  6  Z   -0.000012  -0.000036  -0.000025  -0.000011   0.000079
   51  C  6  S   -0.000230  -0.000999   0.000084   0.008066  -0.094684
   52  C  6  X   -0.000120  -0.000499   0.000030   0.002551  -0.005278
   53  C  6  Y    0.000026   0.000013   0.000701  -0.000197  -0.000015
   54  C  6  Z    0.000027  -0.000027   0.000346   0.003376  -0.005133
   55  H  7  S    0.000084  -0.000582  -0.000021   0.000391  -0.000075
   56  H  7  S   -0.000115   0.001173   0.002371   0.001744   0.000098
   57  H  8  S    0.000586   0.000035   0.000430   0.000232  -0.000023
   58  H  8  S   -0.001638  -0.000816   0.000813   0.000880   0.000101
   59  H  9  S    0.000032   0.000261  -0.000143   0.001075  -0.000000
   60  H  9  S   -0.000048  -0.001082  -0.000486   0.001546  -0.000061
   61  H 10  S   -0.000088   0.000202  -0.000068  -0.000025  -0.000002
   62  H 10  S    0.001845   0.001723   0.000737  -0.000041  -0.000006
   63  H 11  S   -0.000135  -0.000343  -0.000164  -0.002112  -0.000290
   64  H 11  S    0.000075   0.000034  -0.000667   0.000539  -0.000001
   65  O 12  S   -0.000004  -0.000011  -0.000004   0.000092  -0.000010
   66  O 12  S   -0.000036  -0.000091  -0.000041   0.000855  -0.000390
   67  O 12  X    0.000006   0.000023   0.000020   0.000544  -0.000001
   68  O 12  Y   -0.000002  -0.000008   0.000017   0.000043  -0.000035
   69  O 12  Z   -0.000000  -0.000007   0.000012   0.000047   0.000288
   70  O 12  S    0.000192   0.000559   0.000135  -0.003358   0.000273
   71  O 12  X   -0.000024  -0.000037  -0.000081  -0.003381   0.001749
   72  O 12  Y    0.000017   0.000025   0.000086  -0.000179   0.000053
   73  O 12  Z   -0.000039  -0.000094  -0.000039   0.000706   0.000075
   74  O 13  S   -0.000000   0.000009  -0.000122   0.000047  -0.000011
   75  O 13  S   -0.000033  -0.000053  -0.000760   0.000090  -0.000081
   76  O 13  X    0.000064  -0.000329   0.000192  -0.000007  -0.000017
   77  O 13  Y    0.000006   0.000100  -0.000050   0.000526  -0.000017
   78  O 13  Z    0.000075  -0.000052  -0.000421  -0.000092   0.000029
   79  O 13  S    0.000145  -0.001296   0.009973  -0.001524   0.000463
   80  O 13  X   -0.000423   0.000841   0.001438   0.000290   0.000111
   81  O 13  Y    0.000099   0.000365  -0.004040  -0.000330  -0.000102
   82  O 13  Z   -0.000356   0.000310   0.000868   0.000470  -0.000148
   83  O 14  S    0.000035   0.000006   0.000034  -0.000049  -0.000011
   84  O 14  S    0.000456  -0.000253  -0.000019  -0.000548  -0.000094
   85  O 14  X    0.000094   0.000035   0.000314   0.000381   0.000008
   86  O 14  Y   -0.000403   0.000137   0.000304   0.000161   0.000022
   87  O 14  Z    0.000050   0.000002   0.000106   0.000101  -0.000002
   88  O 14  S   -0.000654   0.000357  -0.000942   0.001662   0.000455
[...]
            104  O 16  Y      0.72945     0.72262
            105  O 16  Z      0.74237     0.73634
            106  O 16  S      1.51173     1.05972
            107  O 16  X      0.73678     0.78085
            108  O 16  Y      0.85813     0.89996
            109  O 16  Z      0.90331     0.93524
            110  C 17  S      1.98480     1.97359
            111  C 17  S      0.42648     0.42818
            112  C 17  X      0.57554     0.54285
            113  C 17  Y      0.41875     0.39681
            114  C 17  Z      0.61852     0.58297
            115  C 17  S      0.57939     0.50749
            116  C 17  X      0.24902     0.45598
            117  C 17  Y      0.46847     0.49914
            118  C 17  Z      0.03725     0.40583
            119  C 18  S      1.98739     1.97319
            120  C 18  S      0.38888     0.43992
            121  C 18  X      0.48761     0.46745
            122  C 18  Y      0.61612     0.58473
            123  C 18  Z      0.45606     0.43258
            124  C 18  S      0.86873     0.55383
            125  C 18  X      0.26889     0.42845
            126  C 18  Y      0.44314     0.53588
            127  C 18  Z      0.21736     0.41619
            128  O 19  S      1.98547     1.97955
            129  O 19  S      0.42532     0.58790
            130  O 19  X      0.60585     0.58936
            131  O 19  Y      0.71546     0.70907
            132  O 19  Z      0.79170     0.78883
            133  O 19  S      1.51742     1.01916
            134  O 19  X      0.68576     0.75061
            135  O 19  Y      0.83755     0.87904
            136  O 19  Z      0.92300     0.95741
            137  N 20  S      1.98663     1.97578
            138  N 20  S      0.36893     0.47688
            139  N 20  X      0.58428     0.56710
            140  N 20  Y      0.74335     0.75075
            141  N 20  Z      0.59781     0.56998
            142  N 20  S      1.29132     0.71817
            143  N 20  X      0.54258     0.62809
            144  N 20  Y      0.92997     0.90536
            145  N 20  Z      0.63906     0.64659
            146  H 21  S      0.46460     0.47188
            147  H 21  S      0.28422     0.41282
            148  H 22  S      0.47781     0.48762
            149  H 22  S      0.32453     0.43854
            150  H 23  S      0.47639     0.48521
            151  H 23  S      0.32454     0.43883
            152  H 24  S      0.48720     0.49363
            153  H 24  S      0.29912     0.42996
            154  H 25  S      0.47496     0.48288
            155  H 25  S      0.29981     0.42688
            156  H 26  S      0.48220     0.48711
            157  H 26  S      0.36095     0.45765
            158  H 27  S      0.47897     0.48181
            159  H 27  S      0.33314     0.44492
            160  H 28  S      0.46721     0.46370
            161  H 28  S      0.30668     0.42288
            162  H 29  S      0.46407     0.46107
            163  H 29  S      0.31490     0.42597
            164  H 30  S      0.46724     0.46403
            165  H 30  S      0.33350     0.43490

          ----- MULLIKEN ATOMIC OVERLAP POPULATIONS -----
          (OFF-DIAGONAL ELEMENTS NEED TO BE MULTIPLIED BY 2)

             1           2           3           4           5

    1    5.7133327
    2    0.1615903   5.3923692
    3   -0.0684230   0.1307974   5.7379423
    4   -0.0058889  -0.0521936  -0.0202754   5.6470559
    5   -0.0003562   0.0032225  -0.0525752   0.2193989   5.2017488
    6    0.0042337  -0.0001052   0.0000008  -0.0000000   0.0000000
    7    0.0079536  -0.0635087  -0.0065543   0.0009632  -0.0000076
    8   -0.0001829   0.0053830  -0.0413662   0.0001667   0.0014087
    9    0.0080937  -0.0001968   0.0000832   0.0010803  -0.0000571
   10   -0.0000001   0.0000010  -0.0001859   0.0063006  -0.0423609
   11   -0.0462201   0.0003848  -0.0000280   0.0000136  -0.0000000
   12   -0.0084023  -0.0000009  -0.0000004  -0.0000001  -0.0000000
   13   -0.0374570   0.2682850  -0.0411044   0.0019767  -0.0000126
   14    0.0017280  -0.0420875   0.2112644  -0.0342127  -0.0029360
   15   -0.0641439   0.0000169  -0.0020074  -0.0015460   0.0001039
   16   -0.0000001  -0.0000096   0.0014238  -0.0399235   0.2626670
   17   -0.0585604   0.0014331   0.0000505  -0.0000074  -0.0000000
   18    0.1022965  -0.0814126   0.0083425  -0.0785969   0.0046102
   19   -0.0362706  -0.0030335  -0.0360074   0.2016069  -0.0313864
   20    0.1849466  -0.0467785   0.0033607  -0.0000497   0.0000006
   21    0.3344332  -0.0328261  -0.0050635   0.0006063  -0.0000187
   22   -0.0602388   0.3295290  -0.0669731   0.0005275  -0.0000939
   23   -0.0016589  -0.0500585   0.3250577  -0.0578599  -0.0062695
   24   -0.0577160   0.0048574  -0.0004233   0.0048685  -0.0000630
   25   -0.0003596  -0.0052228  -0.0556149   0.3221797  -0.0445033
   26    0.0000021   0.0002096   0.0082155  -0.0721296   0.3087126
   27    0.0000369  -0.0001612  -0.0007104  -0.0459947   0.3116026
   28   -0.0000780   0.0000005  -0.0000000   0.0000000  -0.0000000
   29   -0.0001520   0.0000254  -0.0000000   0.0000000   0.0000000
   30   -0.0000878  -0.0000023  -0.0000000   0.0000000   0.0000000

             6           7           8           9          10

    6    5.6271212
    7    0.0000002   0.4576657
    8    0.0000000  -0.0012528   0.4467533
    9    0.0000005  -0.0000002  -0.0000000   0.4329232
   10   -0.0000000  -0.0000000   0.0000008  -0.0000002   0.4600220
   11   -0.0012816   0.0000059   0.0000000  -0.0005063  -0.0000000
   12   -0.0802680   0.0000035  -0.0000000   0.0000001  -0.0000000
   13   -0.0000029   0.2425276   0.0000688   0.0000001  -0.0000000
   14   -0.0000000   0.0273316   0.2448114  -0.0000004   0.0000012
   15   -0.0000047   0.0000016  -0.0000001   0.2444535   0.0000000
   16    0.0000000   0.0000000  -0.0000092   0.0000052   0.2431051
   17    0.1824471  -0.0000339   0.0000000   0.0000038   0.0000000
   18   -0.0000751  -0.0002686   0.0000039  -0.0400063   0.0000059
   19    0.0000000  -0.0000023  -0.0000081   0.0029379  -0.0000316
   20   -0.1251606  -0.0001168   0.0000003  -0.0000722   0.0000000
   21    0.0011822   0.0000082   0.0000018  -0.0000999  -0.0000000
   22   -0.0000104  -0.0012050  -0.0002099  -0.0002080  -0.0000000
   23   -0.0000001  -0.0002845  -0.0068072   0.0000023   0.0000017
   24   -0.0000024   0.0000016  -0.0000001  -0.0036587  -0.0000000
   25   -0.0000000   0.0000092  -0.0003548  -0.0006673  -0.0001278
   26   -0.0000000  -0.0000078   0.0037874   0.0000006  -0.0008828
   27    0.0000000  -0.0000001  -0.0001463  -0.0000004  -0.0046465
   28    0.3428054   0.0000000  -0.0000000   0.0000000  -0.0000000
   29    0.3487626  -0.0000001  -0.0000000  -0.0000000   0.0000000
   30    0.3385322  -0.0000000  -0.0000000  -0.0000001  -0.0000000

            11          12          13          14          15

   11    0.4072613
   12    0.0014533   8.0665694
   13   -0.0000411  -0.0000483   8.1540057
   14    0.0000000   0.0000000  -0.0041920   8.1696491
   15    0.0163381  -0.0000001   0.0000030   0.0000002   8.2043860
   16    0.0000000  -0.0000000   0.0000000   0.0000011  -0.0000002
   17   -0.0174703   0.5654712   0.0015192   0.0000000   0.0000862
   18   -0.0029337   0.0000963   0.0013970   0.0000199   0.2116915
   19    0.0000659  -0.0000000  -0.0000004   0.0002075  -0.0353313
   20    0.3163709  -0.0753413  -0.0002600  -0.0000015  -0.0019006
   21    0.0031537   0.0253672   0.0021983  -0.0000257   0.0013731
   22    0.0024571  -0.0000073  -0.0345095   0.0005731   0.0112270
   23    0.0000011  -0.0000048   0.0026670  -0.0285150   0.0000085
   24    0.0002732   0.0000140  -0.0000094   0.0000005  -0.0336131
   25   -0.0000150  -0.0000000  -0.0000012   0.0027313   0.0131692
   26   -0.0000000  -0.0000000   0.0000002   0.0077619   0.0000013
   27   -0.0000000  -0.0000000   0.0000002   0.0000637   0.0000015
   28   -0.0000038   0.0038714  -0.0000001   0.0000000  -0.0000000
   29    0.0004801   0.0007499   0.0000057   0.0000000   0.0000001
   30    0.0012847   0.0012566  -0.0000000   0.0000000  -0.0000013

            16          17          18          19          20

   16    8.1410582
   17   -0.0000000   4.6504931
   18   -0.0000218   0.0031357   5.0939039
   19    0.0002676  -0.0000001   0.2296534   8.2535806
   20   -0.0000000   0.1170112  -0.0374555   0.0006788   7.3817416
   21    0.0000000   0.0055802  -0.0286335   0.0009299  -0.0427380
   22    0.0000003  -0.0002133  -0.0000637  -0.0002990  -0.0023568
   23   -0.0000111  -0.0000068   0.0006482   0.0030679  -0.0000136
   24    0.0000005   0.0005491   0.3551493  -0.0354675   0.0030830
   25    0.0031517  -0.0000000  -0.0070047  -0.0323217   0.0000127
   26   -0.0355687   0.0000000  -0.0000994   0.0021635  -0.0000000
   27   -0.0311923   0.0000000  -0.0002108   0.0025286   0.0000000
   28    0.0000000  -0.0310085   0.0000008  -0.0000000   0.0037902
   29   -0.0000000  -0.0331789  -0.0000025   0.0000000   0.0020255
   30    0.0000000  -0.0290937   0.0000070  -0.0000000   0.0031554

            21          22          23          24          25

   21    0.4762556
   22    0.0040569   0.6089129
   23    0.0043227   0.0057086   0.6009654
   24   -0.0012634   0.0001039  -0.0000882   0.5495657
   25    0.0000808   0.0056159   0.0049448   0.0001787   0.5637503
   26    0.0000009   0.0000129   0.0007575   0.0000014  -0.0006659
   27    0.0000076   0.0000009   0.0043575  -0.0000193   0.0058003
   28   -0.0000068   0.0000001   0.0000000  -0.0000003  -0.0000000
   29   -0.0000238   0.0000010   0.0000000   0.0000002   0.0000000
   30   -0.0000365   0.0000002   0.0000000  -0.0000010   0.0000000

            26          27          28          29          30

   26    0.6685407
   27   -0.0476642   0.6184499
   28    0.0000000  -0.0000000   0.4940899
   29   -0.0000000   0.0000000  -0.0189941   0.5031112
   30    0.0000000  -0.0000000  -0.0205773  -0.0238361   0.5301350

          TOTAL MULLIKEN AND LOWDIN ATOMIC POPULATIONS
       ATOM         MULL.POP.    CHARGE          LOW.POP.     CHARGE
    1 C             6.072451   -0.072451         6.032251   -0.032251
    2 C             5.920507    0.079493         5.960326    0.039674
    3 C             6.029226   -0.029226         5.997530    0.002470
    4 C             5.998067    0.001933         5.973244    0.026756
    5 C             6.132836   -0.132836         6.023425   -0.023425
    6 C             6.638175   -0.638175         6.319212   -0.319212
    7 H             0.663229    0.336771         0.772388    0.227612
    8 H             0.652049    0.347951         0.763607    0.236393
    9 H             0.644110    0.355890         0.756262    0.243738
   10 H             0.661202    0.338798         0.768904    0.231096
   11 H             0.681044    0.318956         0.800948    0.199052
   12 O             8.500779   -0.500779         8.271378   -0.271378
   13 O             8.557016   -0.557016         8.329555   -0.329555
   14 O             8.554174   -0.554174         8.328046   -0.328046
   15 O             8.564313   -0.564313         8.337921   -0.337921
   16 O             8.544944   -0.544944         8.328017   -0.328017
   17 C             5.358207    0.641793         5.792852    0.207148
   18 C             5.734177    0.265823         5.832197    0.167803
   19 O             8.487529   -0.487529         8.260941   -0.260941
   20 N             7.683933   -0.683933         7.238705   -0.238705
   21 H             0.748823    0.251177         0.884697    0.115303
   22 H             0.802339    0.197661         0.926159    0.073841
   23 H             0.800933    0.199067         0.924033    0.075967
   24 H             0.786321    0.213679         0.923589    0.076411
   25 H             0.774766    0.225234         0.909759    0.090241
   26 H             0.843150    0.156850         0.944758    0.055242
   27 H             0.812103    0.187897         0.926735    0.073265
   28 H             0.773889    0.226111         0.886583    0.113417
   29 H             0.778974    0.221026         0.887049    0.112951
   30 H             0.800735    0.199265         0.898927    0.101073

          -------------------------------
          BOND ORDER AND VALENCE ANALYSIS     BOND ORDER THRESHOLD=0.050
          -------------------------------

                   BOND                       BOND                       BOND
  ATOM PAIR DIST  ORDER      ATOM PAIR DIST  ORDER      ATOM PAIR DIST  ORDER
    1   2  1.532  0.877        1  18  1.532  0.848        1  20  1.457  0.862
    1  21  1.092  0.858        2   3  1.529  0.870        2  13  1.448  0.949
    2  22  1.099  0.852        3   4  1.527  0.811        3  14  1.471  0.886
    3  23  1.099  0.867        4   5  1.517  0.922        4  19  1.477  0.848
    4  25  1.093  0.854        5  16  1.457  0.952        5  26  1.102  0.863
    5  27  1.099  0.868        6  17  1.528  0.878        6  28  1.091  0.911
    6  29  1.097  0.906        6  30  1.096  0.910        7  13  0.999  0.796
    7  14  2.190  0.058        8  14  0.993  0.821        9  15  0.995  0.816
   10  16  0.995  0.830       11  20  1.015  0.830       12  17  1.240  1.787
   12  20  2.296  0.145       12  21  2.298  0.053       15  18  1.450  0.912
   17  20  1.376  0.977       18  19  1.446  0.916       18  24  1.094  0.875

                       TOTAL       BONDED        FREE
      ATOM            VALENCE     VALENCE     VALENCE
    1 C                 3.480       3.480      -0.000
    2 C                 3.552       3.552      -0.000
    3 C                 3.507       3.507      -0.000
    4 C                 3.485       3.485      -0.000
    5 C                 3.618       3.618      -0.000
    6 C                 3.631       3.631      -0.000
    7 H                 0.878       0.878       0.000
    8 H                 0.852       0.852       0.000
    9 H                 0.851       0.851      -0.000
   10 H                 0.855       0.855       0.000
   11 H                 0.885       0.885       0.000
   12 O                 2.080       2.080      -0.000
   13 O                 1.877       1.877       0.000
   14 O                 1.890       1.890      -0.000
   15 O                 1.896       1.896      -0.000
   16 O                 1.866       1.866      -0.000
   17 C                 3.634       3.634      -0.000
   18 C                 3.582       3.582      -0.000
   19 O                 1.959       1.959      -0.000
   20 N                 2.864       2.864      -0.000
   21 H                 0.930       0.930      -0.000
   22 H                 0.918       0.918       0.000
   23 H                 0.910       0.910       0.000
   24 H                 0.906       0.906       0.000
   25 H                 0.914       0.914       0.000
   26 H                 0.923       0.923       0.000
   27 H                 0.911       0.911       0.000
   28 H                 0.916       0.916       0.000
   29 H                 0.909       0.909       0.000
   30 H                 0.919       0.919       0.000

          ---------------------
          ELECTROSTATIC MOMENTS
          ---------------------

 POINT   1           X           Y           Z (BOHR)    CHARGE
                -0.020210    0.091722    0.005834       -0.00 (A.U.)
         DX          DY          DZ         /D/  (DEBYE)
     4.031916   -0.833359   -1.411438    4.352355
 ...... END OF PROPERTY EVALUATION ......
 CPU     0: STEP CPU TIME=     0.09 TOTAL CPU TIME=       4173.4 (     69.6 MIN)
 TOTAL WALL CLOCK TIME=       4247.1 SECONDS, CPU UTILIZATION IS    98.27%
  $VIB   
          IVIB=   0 IATOM=   0 ICOORD=   0 E=     -814.9954764907
  6.082047085E-06 2.140593458E-05-3.834778236E-05-2.840247318E-05-3.651559778E-05
  3.991469761E-05 4.495504027E-05 6.086743337E-05-6.037273536E-06-1.644916156E-05
 -3.061119321E-05-1.077895289E-05 9.142184123E-06 1.869442819E-05 3.288941077E-05
  7.845822517E-05-8.297839274E-05 7.379385932E-05-1.649950712E-05-1.675791488E-06
 -5.772324597E-06 1.074951309E-06-5.736682294E-07 8.005147717E-06 1.127299661E-05
 -1.317855146E-05-9.110948062E-06 3.586004136E-05-1.536231862E-05 2.542089505E-05
  2.875016070E-05-9.340579138E-06 6.937086632E-06 4.850501924E-06 1.030789500E-05
  4.336045837E-05 3.316769178E-05-5.627813583E-06-4.437693547E-06-3.470412629E-05
 -2.449518643E-06-4.945773737E-06-1.498796310E-05 1.073147778E-05-1.751244088E-05
 -1.735466974E-05-8.756675620E-06-4.143752182E-05-6.663818271E-05-2.491404501E-05
 -4.125793805E-05 2.870608666E-05 3.350874856E-05 2.047145525E-05-3.878066729E-05
 -4.254194689E-05 6.703904841E-06 6.933090670E-06-8.376341130E-06-1.602362382E-05
 -1.767775877E-05 1.161988868E-05 5.355946920E-06-1.868130403E-05 2.117422344E-05
 -4.004455253E-06 2.210673986E-06 1.659141721E-07 9.172807616E-06 8.155569501E-06
  3.333659940E-06 6.831615438E-06 7.895213425E-06-5.497627531E-06-1.657782404E-05
  3.665593405E-06 4.832373958E-06-9.230227201E-06-6.758795384E-06 6.954285018E-07
  3.663549658E-06-2.926712531E-05 6.316240835E-05 5.326528046E-05-1.138401192E-05
  6.115977006E-05-2.979701784E-05 6.405678425E-06-3.325952349E-05-8.051431803E-05
  4.031916007E+00-8.333594080E-01-1.411438316E+00
 ......END OF GEOMETRY SEARCH......
 CPU     0: STEP CPU TIME=     0.00 TOTAL CPU TIME=       4173.4 (     69.6 MIN)
 TOTAL WALL CLOCK TIME=       4247.1 SECONDS, CPU UTILIZATION IS    98.27%
              1216378  WORDS OF DYNAMIC MEMORY USED
 EXECUTION OF GAMESS TERMINATED NORMALLY Thu May 21 23:05:58 2020
 DDI: 263640 bytes (0.3 MB / 0 MWords) used by master data server.
Note: The following floating-point exceptions are signalling:Note: The following floating-point exceptions are signalling:Note: The following floating-point exceptions are signalling: IEEE_UNDERFLOW_FLAG IEEE_DENORMALNote: The following floating-point exceptions are signalling:Note: The following floating-point exceptions are signalling: IEEE_UNDERFLOW_FLAGNote: The following floating-point exceptions are signalling: IEEE_UNDERFLOW_FLAG
 ----------------------------------------
 CPU timing information for all processes
 ========================================
 0: 4152.57 + 21.408 = 4173.466
 1: 4151.320 + 9.684 = 4161.05
 2: 4152.864 + 12.763 = 4165.628
 3: 4143.288 + 9.426 = 4152.714
 4: 4149.584 + 12.779 = 4162.363
 5: 4139.582 + 8.65 = 4147.648
 6: 4140.573 + 11.180 = 4151.753
 7: 4131.997 + 8.592 = 4140.590
 ----------------------------------------
 IEEE_UNDERFLOW_FLAG IEEE_DENORMAL IEEE_UNDERFLOW_FLAG IEEE_DENORMAL
 IEEE_UNDERFLOW_FLAG IEEE_DENORMAL IEEE_DENORMAL
 IEEE_DENORMAL
Note: The following floating-point exceptions are signalling: IEEE_UNDERFLOW_FLAGNote: The following floating-point exceptions are signalling: IEEE_UNDERFLOW_FLAG


 IEEE_DENORMAL
 IEEE_DENORMAL
 ddikick.x: exited gracefully.
unset echo
----- accounting info -----
Files used on the master node pietdev were:
-rwxr-xr-x 1 piet piet     1616 mei 21 21:55 /home/piet/scr/beta-d-acetylglucosamine_geoopt.F05*
-rw-r--r-- 1 piet piet 57344000 mei 21 23:05 /home/piet/scr/beta-d-acetylglucosamine_geoopt.F10
-rw-r--r-- 1 piet piet  7654384 mei 21 23:04 /home/piet/scr/beta-d-acetylglucosamine_geoopt.F22
-rw-r--r-- 1 piet piet  7654384 mei 21 23:04 /home/piet/scr/beta-d-acetylglucosamine_geoopt.F22.001
-rw-r--r-- 1 piet piet  7654384 mei 21 23:04 /home/piet/scr/beta-d-acetylglucosamine_geoopt.F22.002
-rw-r--r-- 1 piet piet  7654384 mei 21 23:04 /home/piet/scr/beta-d-acetylglucosamine_geoopt.F22.003
-rw-r--r-- 1 piet piet  7654384 mei 21 23:04 /home/piet/scr/beta-d-acetylglucosamine_geoopt.F22.004
-rw-r--r-- 1 piet piet  7654384 mei 21 23:04 /home/piet/scr/beta-d-acetylglucosamine_geoopt.F22.005
-rw-r--r-- 1 piet piet  7654384 mei 21 23:04 /home/piet/scr/beta-d-acetylglucosamine_geoopt.F22.006
-rw-r--r-- 1 piet piet  7654384 mei 21 23:04 /home/piet/scr/beta-d-acetylglucosamine_geoopt.F22.007
ls: No match.
ls: No match.
ls: No match.
do 21 mei 2020 23:06:01 CEST
0.102u 0.039s 1:10:50.25 0.0%	0+0k 0+8io 0pf+0w
