----- GAMESS execution script 'rungms' -----
This job is running on host pietdev
under operating system Linux at do 21 mei 2020 23:10:39 CEST
Available scratch disk space (Kbyte units) at beginning of the job is
Filesystem     1K-blocks     Used Available Use% Mounted on
/dev/sda2      244568380 30781948 201293376  14% /
GAMESS temporary binary files will be written to /home/piet/scr
GAMESS supplementary output files will be written to /home/piet/gamess/scr
Copying input file beta-d-acetylglucosamine_fukui_neu.inp to your run's scratch directory...
cp beta-d-acetylglucosamine_fukui_neu.inp /home/piet/scr/beta-d-acetylglucosamine_fukui_neu.F05
unset echo
 
Assuming a single but multicore node.
 
/home/piet/gamess/ddikick.x /home/piet/gamess/gamess.03.x beta-d-acetylglucosamine_fukui_neu -ddi 1 8 pietdev:cpus=8 -scr /home/piet/scr

 Distributed Data Interface kickoff program.
 Initiating 8 compute processes on 1 nodes to run the following command:
 /home/piet/gamess/gamess.03.x beta-d-acetylglucosamine_fukui_neu 

          ******************************************************
          *         GAMESS VERSION = 30 SEP 2019 (R2)          *
          *             FROM IOWA STATE UNIVERSITY             *
          * M.W.SCHMIDT, K.K.BALDRIDGE, J.A.BOATZ, S.T.ELBERT, *
          *   M.S.GORDON, J.H.JENSEN, S.KOSEKI, N.MATSUNAGA,   *
          *          K.A.NGUYEN, S.J.SU, T.L.WINDUS,           *
          *       TOGETHER WITH M.DUPUIS, J.A.MONTGOMERY       *
          *         J.COMPUT.CHEM.  14, 1347-1363(1993)        *
          **************** 64 BIT LINUX VERSION ****************

  SINCE 1993, STUDENTS AND POSTDOCS WORKING AT IOWA STATE UNIVERSITY
  AND ALSO IN THEIR VARIOUS JOBS AFTER LEAVING ISU HAVE MADE IMPORTANT
  CONTRIBUTIONS TO THE CODE:
     IVANA ADAMOVIC, CHRISTINE AIKENS, YURI ALEXEEV, POOJA ARORA,
     ANDREY ASADCHEV, ROB BELL, PRADIPTA BANDYOPADHYAY, JONATHAN BENTZ,
     COLLEEN BERTONI, BRETT BODE, KURT BRORSEN, CALEB CARLIN, GALINA CHABAN,
     WEI CHEN, CHEOL HO CHOI, PAUL DAY, ALBERT DEFUSCO, NUWAN DESILVA,
     TIM DUDLEY, DMITRI FEDOROV, ALEX FINDLATER, GRAHAM FLETCHER, 
     MARK FREITAG, KURT GLAESEMANN, EMILIE B GUIDEZ, ANASTASIA GUNINA, 
     DAN KEMP, SAROM SOK LEANG, GRANT MERRILL,
     NORIYUKI MINEZAWA, JONATHAN MULLIN,
     TAKESHI NAGATA, SEAN NEDD, HEATHER NETZLOFF, BOSILJKA NJEGIC, RYAN OLSON,
     MIKE PAK, BUU PHAM, DAVID POOLE,
     SPENCER PRUITT, LUKE ROSKOP, TOSAPORN SATTASATHUCHANA,
     JIM SHOEMAKER, LYUDMILA SLIPCHENKO,
     TONY SMITH, JIE SONG, TETSUYA TAKETSUGU, SIMON WEBB,
     JORGE LUIS GALVEZ VALLEJO, PENG XU, SOOHAENG YOO,
     FEDERICO ZAHARIEV

  ADDITIONAL CODE HAS BEEN PROVIDED BY COLLABORATORS IN OTHER GROUPS:
     IOWA STATE UNIVERSITY:
          JOE IVANIC, AARON WEST, LAIMUTIS BYTAUTAS, KLAUS RUEDENBERG
     UNIVERSITY OF TOKYO: KIMIHIKO HIRAO, TAKAHITO NAKAJIMA,
          TAKAO TSUNEDA, MUNEAKI KAMIYA, SUSUMU YANAGISAWA,
          KIYOSHI YAGI, MAHITO CHIBA, SEIKEN TOKURA, NAOAKI KAWAKAMI
     UNIVERSITY OF AARHUS: FRANK JENSEN
     UNIVERSITY OF IOWA: VISVALDAS KAIRYS, HUI LI
     NATIONAL INST. OF STANDARDS AND TECHNOLOGY: WALT STEVENS, DAVID GARMER
     UNIVERSITY OF PISA: BENEDETTA MENNUCCI, JACOPO TOMASI
     UNIVERSITY OF MEMPHIS: HENRY KURTZ, PRAKASHAN KORAMBATH
     UNIVERSITY OF ALBERTA: TOBY ZENG, MARIUSZ KLOBUKOWSKI
     UNIVERSITY OF NEW ENGLAND: MARK SPACKMAN
     MIE UNIVERSITY: HIROAKI UMEDA
     NAT. INST. OF ADVANCED INDUSTRIAL SCIENCE AND TECHNOLOGY: KAZUO KITAURA
     MICHIGAN STATE UNIVERSITY:
          KAROL KOWALSKI, MARTA WLOCH, JEFFREY GOUR, JESSE LUTZ,
          WEI LI, JUN SHEN, J. EMILIANO DEUSTUA, PIOTR PIECUCH
     UNIVERSITY OF MINNESOTA:
          ANDREW SAND, PRACHI SHARMA, YINAN SHU
     UNIVERSITY OF SILESIA: MONIKA MUSIAL, STANISLAW KUCHARSKI
     FACULTES UNIVERSITAIRES NOTRE-DAME DE LA PAIX:
          OLIVIER QUINET, BENOIT CHAMPAGNE
     UNIVERSITY OF CALIFORNIA - SANTA BARBARA: BERNARD KIRTMAN
     INSTITUTE FOR MOLECULAR SCIENCE:
          KAZUYA ISHIMURA, MICHIO KATOUDA, AND SHIGERU NAGASE
     UNIVERSITY OF NOTRE DAME: ANNA POMOGAEVA, DAN CHIPMAN
     KYUSHU UNIVERSITY:
          HARUYUKI NAKANO,
          FENG LONG GU, JACEK KORCHOWIEC, MARCIN MAKOWSKI, AND YURIKO AOKI,
          HIROTOSHI MORI AND EISAKU MIYOSHI
     PENNSYLVANIA STATE UNIVERSITY:
          TZVETELIN IORDANOV, CHET SWALINA, JONATHAN SKONE,
          SHARON HAMMES-SCHIFFER
     WASEDA UNIVERSITY:
          MASATO KOBAYASHI, TOMOKO AKAMA, TSUGUKI TOUMA,
          TAKESHI YOSHIKAWA, YASUHIRO IKABATA, JUNJI SEINO,
          YUYA NAKAJIMA, HIROMI NAKAI
     NANJING UNIVERSITY: SHUHUA LI
     UNIVERSITY OF NEBRASKA:
          PEIFENG SU, DEJUN SI, NANDUN THELLAMUREGE, YALI WANG, HUI LI
     UNIVERSITY OF ZURICH: ROBERTO PEVERATI, KIM BALDRIDGE
     N. COPERNICUS UNIVERSITY AND JACKSON STATE UNIVERSITY:
          MARIA BARYSZ
     UNIVERSITY OF COPENHAGEN: Jimmy Kromann, CASPER STEINMANN
     TOKYO INSTITUTE OF TECHNOLOGY: HIROYA NAKATA
     NAGOYA UNIVERSITY: YOSHIO NISHIMOTO, STEPHAN IRLE
     MOSCOW STATE UNIVERSITY: VLADIMIR MIRONOV
     A.N.NESMEYANOV INSTITUTE OF ORGANOELEMENT COMPOUNDS OF RUSSIAN ACADEMY OF SCIENCES:
          IGOR S. GERASIMOV
     JOHANNES KEPLER UNIVERSITY LINZ:
          CHRISTIAN FRIEDL


 PARALLEL VERSION RUNNING ON        8 PROCESSORS IN        1 NODES.

 EXECUTION OF GAMESS BEGUN Thu May 21 23:10:39 2020

            ECHO OF THE FIRST FEW INPUT CARDS -
 INPUT CARD> $BASIS GBASIS=N21 NGAUSS=3 $END                                                
 INPUT CARD> $CONTRL SCFTYP=RHF MAXIT=60 MULT=1 ICHARG=0 $END                               
 INPUT CARD> $SYSTEM MEMDDI=1000 MWORDS=30 $END                                             
 INPUT CARD> $SCF DIRSCF=.TRUE. $END                                                        
 INPUT CARD> $DATA                                                                          
 INPUT CARD>                                                                                
 INPUT CARD>C1                                                                              
 INPUT CARD>C 6.0000000 -0.8577780964 -0.1069705995 0.2278688227                            
 INPUT CARD>C 6.0000000 -0.0643917205 1.1166369399 -0.2413300936                            
 INPUT CARD>C 6.0000000 1.3501320201 1.0550303391 0.3356360167                              
 INPUT CARD>C 6.0000000 2.0622153950 -0.2145739024 -0.1268097748                            
 INPUT CARD>C 6.0000000 3.4551494779 -0.3667667873 0.4550931918                             
 INPUT CARD>C 6.0000000 -4.6068420346 0.0330228195 -0.4264701564                            
 INPUT CARD>H 1.0000000 -0.0416802315 3.0327972089 0.0606868139                             
 INPUT CARD>H 1.0000000 2.7002542464 2.5509502658 0.4814744185                              
 INPUT CARD>H 1.0000000 0.4088195839 -2.1931893358 -1.8994453756                            
 INPUT CARD>H 1.0000000 4.9645656303 -1.6445953051 0.1589139404                             
 INPUT CARD>H 1.0000000 -2.2259141515 -0.3424079778 -1.3668485591                           
 INPUT CARD>O 8.0000000 -3.2745445746 0.1968721851 1.6199047201                             
 INPUT CARD>O 8.0000000 -0.7189373572 2.3182354159 0.2322864007                             
 INPUT CARD>O 8.0000000 2.0006830099 2.2748552149 -0.1666969798                             
 INPUT CARD>O 8.0000000 -0.1007501980 -1.3928294253 -1.5983463964                           
 INPUT CARD>O 8.0000000 4.1134369471 -1.4209179205 -0.3045797677                            
 INPUT CARD>C 6.0000000 -3.3158620588 0.0319834003 0.3911374969                             
 INPUT CARD>C 6.0000000 -0.0778503868 -1.3709450869 -0.1491211316                           
 INPUT CARD>O 8.0000000 1.2737686565 -1.3624152994 0.3643971797                             
 INPUT CARD>N 7.0000000 -2.1860208727 -0.1679970603 -0.3682073831                           
 INPUT CARD>H 1.0000000 -1.0107465760 -0.0495444065 1.3079775161                            
 INPUT CARD>H 1.0000000 0.0162685434 1.0901601687 -1.3368652279                             
 INPUT CARD>H 1.0000000 1.2722409256 1.0578054892 1.4316997391                              
 INPUT CARD>H 1.0000000 -0.5373855018 -2.2623655952 0.2889687039                            
 INPUT CARD>H 1.0000000 2.1221966704 -0.2267089884 -1.2182502663                            
 INPUT CARD>H 1.0000000 3.9713247580 0.6010960596 0.3505729239                              
 INPUT CARD>H 1.0000000 3.3492342586 -0.6083437486 1.5221329456                             
 INPUT CARD>H 1.0000000 -5.4528299575 0.0394732909 0.2618173019                             
 INPUT CARD>H 1.0000000 -4.6468317105 0.9308532989 -1.0548388196                            
 INPUT CARD>H 1.0000000 -4.6637246944 -0.8479006579 -1.0758583000                           
 INPUT CARD> $END                                                                           
   30000000 WORDS OF MEMORY AVAILABLE

     BASIS OPTIONS
     -------------
     GBASIS=N21          IGAUSS=       3      POLAR=NONE    
     NDFUNC=       0     NFFUNC=       0     DIFFSP=       F
     NPFUNC=       0      DIFFS=       F     BASNAM=        


     RUN TITLE
     ---------
                                                                                 

 THE POINT GROUP OF THE MOLECULE IS C1      
 THE ORDER OF THE PRINCIPAL AXIS IS     0

 ATOM      ATOMIC                      COORDINATES (BOHR)
           CHARGE         X                   Y                   Z
 C           6.0    -1.6209655605       -0.2021451218        0.4306096360
 C           6.0    -0.1216827076        2.1101378442       -0.4560477495
 C           6.0     2.5513795652        1.9937182496        0.6342601032
 C           6.0     3.8970220242       -0.4054858797       -0.2396357269
 C           6.0     6.5292857599       -0.6930887294        0.8600014314
 C           6.0    -8.7056691141        0.0624040802       -0.8059117375
 H           1.0    -0.0787642166        5.7311557011        0.1146814493
 H           1.0     5.1027406229        4.8205970107        0.9098547211
 H           1.0     0.7725569920       -4.1445268839       -3.5894312885
 H           1.0     9.3816686893       -3.1078344873        0.3003038030
 H           1.0    -4.2063678185       -0.6470572541       -2.5829692434
 O           8.0    -6.1879919806        0.3720344844        3.0611760472
 O           8.0    -1.3585946074        4.3808297111        0.4389576480
 O           8.0     3.7807426770        4.2988530179       -0.3150116148
 O           8.0    -0.1903902674       -2.6320659615       -3.0204367227
 O           8.0     7.7732686978       -2.6851455208       -0.5755723024
 C           6.0    -6.2660707042        0.0604398627        0.7391426927
 C           6.0    -0.1471158991       -2.5907105585       -0.2817980777
 O           8.0     2.4070737325       -2.5745915973        0.6886108203
 N           7.0    -4.1309804528       -0.3174684107       -0.6958110607
 H           1.0    -1.9100340717       -0.0936253525        2.4717191035
 H           1.0     0.0307430892        2.0601040016       -2.5263089632
 H           1.0     2.4041867397        1.9989625229        2.7055202036
 H           1.0    -1.0155113482       -4.2752510590        0.5460716694
 H           1.0     4.0103701991       -0.4284178670       -2.3021591878
 H           1.0     7.5047156009        1.1359068449        0.6624867649
 H           1.0     6.3291350174       -1.1496029912        2.8764141841
 H           1.0   -10.3043544773        0.0745937036        0.4947629594
 H           1.0    -8.7812386439        1.7590576697       -1.9933563303
 H           1.0    -8.8131617546       -1.6022999082       -2.0330773886

          INTERNUCLEAR DISTANCES (ANGS.)
          ------------------------------

                1 C          2 C          3 C          4 C          5 C     

   1 C       0.0000000    1.5319350 *  2.4973440 *  2.9434227 *  4.3267158  
   2 C       1.5319350 *  0.0000000    1.5289090 *  2.5115125 *  3.8823527  
   3 C       2.4973440 *  1.5289090 *  0.0000000    1.5273552 *  2.5430052 *
   4 C       2.9434227 *  2.5115125 *  1.5273552 *  0.0000000    1.5172472 *
   5 C       4.3267158    3.8823527    2.5430052 *  1.5172472 *  0.0000000  
   6 C       3.8083117    4.6735801    6.0918671    6.6803763    8.1198949  
   7 H       3.2484008    1.9399485 *  2.4339885 *  3.8738806    4.8928938  
   8 H       4.4484214    3.1973377    2.0203651 *  2.9026242 *  3.0139070  
   9 H       3.2375985    3.7320538    4.0537130    3.1290372    4.2614313  
  10 H       6.0223526    5.7510878    4.5147912    3.2481127    1.9997262 *
  11 H       2.1143204 *  2.8403843 *  4.1999278    4.4656570    5.9661167  
  12 O       2.8055026 *  3.8229888    4.8757989    5.6303913    6.8529743  
  13 O       2.4291810 *  1.4479577 *  2.4263999 *  3.7787410    4.9680862  
  14 O       3.7416008    2.3688760 *  1.4708935 *  2.4905089 *  3.0790035  
  15 O       2.3583015 *  2.8531100 *  3.4405471    2.8691682 *  4.2324746  
  16 O       5.1694234    4.8885005    3.7651096    2.3862896 *  1.4565988 *
  17 C       2.4674160 *  3.4854767    4.7771546    5.4085836    6.7830442  
  18 C       1.5323316 *  2.4893268 *  2.8564804 *  2.4326064 *  3.7223027  
  19 O       2.4775538 *  2.8815410 *  2.4188224 *  1.4766423 *  2.3995758 *
  20 N       1.4571410 *  2.4834840 *  3.8073047    4.2553441    5.7043962  
  21 H       1.0923973 *  2.1577582 *  2.7819563 *  3.3954300    4.5576605  
  22 H       2.1553358 *  1.0988195 *  2.1395528 *  2.7115427 *  4.1424212  
  23 H       2.7097773 *  2.1422131 *  1.0988314 *  2.1614719 *  2.7835690 *
  24 H       2.1799340 *  3.4529115    3.8170690    3.3353032    4.4228077  
  25 H       3.3144905    2.7459279 *  2.1571977 *  1.0931548 *  2.1439351 *
  26 H       4.8822791    4.1113427    2.6602501 *  2.1302371 *  1.1018711 *
  27 H       4.4300618    4.2116746    2.8584958 *  2.1284934 *  1.0991594 *
  28 H       4.5975102    5.5180346    6.8787424    7.5293743    8.9193320  
  29 H       4.1327164    4.6577965    6.1573058    6.8691014    8.3430098  
  30 H       4.0907104    5.0704742    6.4637400    6.8220280    8.2759543  

                6 C          7 H          8 H          9 H         10 H     

   1 C       3.8083117    3.2484008    4.4484214    3.2375985    6.0223526  
   2 C       4.6735801    1.9399485 *  3.1973377    3.7320538    5.7510878  
   3 C       6.0918671    2.4339885 *  2.0203651 *  4.0537130    4.5147912  
   4 C       6.6803763    3.8738806    2.9026242 *  3.1290372    3.2481127  
   5 C       8.1198949    4.8928938    3.0139070    4.2614313    1.9997262 *
   6 C       0.0000000    5.4842201    7.7819007    5.6817724    9.7349331  
   7 H       5.4842201    0.0000000    2.8155716 *  5.5996432    6.8520177  
   8 H       7.7819007    2.8155716 *  0.0000000    5.7815493    4.7784677  
   9 H       5.6817724    5.5996432    5.7815493    0.0000000    5.0291769  
  10 H       9.7349331    6.8520177    4.7784677    5.0291769    0.0000000  
  11 H       2.5872915 *  4.2662331    6.0045778    3.2635675    7.4650280  
  12 O       2.4473482 *  4.5743899    6.5219574    5.6272010    8.5678722  
  13 O       4.5576265    0.9993609 *  3.4361493    5.1155713    6.9290416  
  14 O       6.9823121    2.1903030 *  0.9928517 *  5.0497394    4.9247046  
  15 O       4.8694160    4.7267379    5.2654229    0.9954386 *  5.3673806  
  16 O       8.8414968    6.1019666    4.2884383    4.1066031    0.9946246 *
  17 C       1.5281075 *  4.4535770    6.5228069    4.9062630    8.4516464  
  18 C       4.7497172    4.4088858    4.8473477    1.9941335 *  5.0592222  
  19 O       6.0954328    4.5978842    4.1668931    2.5618949 *  3.7072674  
  20 N       2.4298516 *  3.8764973    5.6559984    3.6303293    7.3204567  
  21 H       3.9933731    3.4634742    4.6062140    4.1107108    6.2903808  
  22 H       4.8290279    2.3938146 *  3.5558467    3.3542476    5.8482379  
  23 H       6.2503273    2.7398280 *  2.2741221 *  4.7340249    4.7493384  
  24 H       4.7266412    5.3232119    5.8040830    2.3852140 *  5.5380521  
  25 H       6.7804379    4.1161176    3.3073563    2.6956878 *  3.4620867  
  26 H       8.6320014    4.7012140    2.3312415 *  5.0558932    2.4630043 *
  27 H       8.2162981    5.1857529    3.3889945    4.7817332    2.3540346 *
  28 H       1.0906314 *  6.1871628    8.5339644    6.6343631   10.5531420  
  29 H       1.0966065 *  5.1836267    7.6788440    6.0027171   10.0242252  
  30 H       1.0958863 *  6.1412414    8.2586717    5.3121373    9.7397823  

               11 H         12 O         13 O         14 O         15 O     

   1 C       2.1143204 *  2.8055026 *  2.4291810 *  3.7416008    2.3583015 *
   2 C       2.8403843 *  3.8229888    1.4479577 *  2.3688760 *  2.8531100 *
   3 C       4.1999278    4.8757989    2.4263999 *  1.4708935 *  3.4405471  
   4 C       4.4656570    5.6303913    3.7787410    2.4905089 *  2.8691682 *
   5 C       5.9661167    6.8529743    4.9680862    3.0790035    4.2324746  
   6 C       2.5872915 *  2.4473482 *  4.5576265    6.9823121    4.8694160  
   7 H       4.2662331    4.5743899    0.9993609 *  2.1903030 *  4.7267379  
   8 H       6.0045778    6.5219574    3.4361493    0.9928517 *  5.2654229  
   9 H       3.2635675    5.6272010    5.1155713    5.0497394    0.9954386 *
  10 H       7.4650280    8.5678722    6.9290416    4.9247046    5.3673806  
  11 H       0.0000000    3.2110970    3.4506862    5.1141523    2.3818687 *
  12 O       3.2110970    0.0000000    3.5995548    5.9445761    4.7913737  
  13 O       3.4506862    3.5995548    0.0000000    2.7490734 *  4.1839424  
  14 O       5.1141523    5.9445761    2.7490734 *  0.0000000    4.4629085  
  15 O       2.3818687 *  4.7913737    4.1839424    4.4629085    0.0000000  
  16 O       6.5175894    7.8040474    6.1336233    4.2592816    4.4084004  
  17 C       2.1020633 *  1.2404694 *  3.4635531    5.7971808    4.0404309  
  18 C       2.6748695 *  3.9757210    3.7638434    4.1967213    1.4495714 *
  19 O       4.0355181    4.9693893    4.1875435    3.7470258    2.3963701 *
  20 N       1.0145417 *  2.2957794 *  2.9486062 *  4.8514558    2.7132656 *
  21 H       2.9524728 *  2.2984345 *  2.6169916 *  4.0799763    3.3285472  
  22 H       2.6609272 *  4.5133029    2.1238958 *  2.5905013 *  2.4994606 *
  23 H       4.6935657    4.6314021    2.6442517 *  2.1369862 *  4.1318151  
  24 H       3.0461610    3.9129632    4.5845479    5.2187925    2.1233704 *
  25 H       4.3521874    6.1122304    4.0807893    2.7163125 *  2.5388585 *
  26 H       6.4996543    7.3673077    4.9961103    2.6367531 *  4.9351616  
  27 H       6.2848402    6.6732584    5.1748034    3.6032726    4.7175419  
  28 H       3.6347450    2.5717899 *  5.2538908    7.7932928    5.8443526  
  29 H       2.7530685 *  3.0945360    4.3600315    6.8399261    5.1343704  
  30 H       2.5066149 *  3.2075707    5.2246538    7.4156934    4.6250057  

               16 O         17 C         18 C         19 O         20 N     

   1 C       5.1694234    2.4674160 *  1.5323316 *  2.4775538 *  1.4571410 *
   2 C       4.8885005    3.4854767    2.4893268 *  2.8815410 *  2.4834840 *
   3 C       3.7651096    4.7771546    2.8564804 *  2.4188224 *  3.8073047  
   4 C       2.3862896 *  5.4085836    2.4326064 *  1.4766423 *  4.2553441  
   5 C       1.4565988 *  6.7830442    3.7223027    2.3995758 *  5.7043962  
   6 C       8.8414968    1.5281075 *  4.7497172    6.0954328    2.4298516 *
   7 H       6.1019666    4.4535770    4.4088858    4.5978842    3.8764973  
   8 H       4.2884383    6.5228069    4.8473477    4.1668931    5.6559984  
   9 H       4.1066031    4.9062630    1.9941335 *  2.5618949 *  3.6303293  
  10 H       0.9946246 *  8.4516464    5.0592222    3.7072674    7.3204567  
  11 H       6.5175894    2.1020633 *  2.6748695 *  4.0355181    1.0145417 *
  12 O       7.8040474    1.2404694 *  3.9757210    4.9693893    2.2957794 *
  13 O       6.1336233    3.4635531    3.7638434    4.1875435    2.9486062 *
  14 O       4.2592816    5.7971808    4.1967213    3.7470258    4.8514558  
  15 O       4.4084004    4.0404309    1.4495714 *  2.3963701 *  2.7132656 *
  16 O       0.0000000    7.6019358    4.1944671    2.9179905 *  6.4231634  
  17 C       7.6019358    0.0000000    3.5699870    4.7968503    1.3759135 *
  18 C       4.1944671    3.5699870    0.0000000    1.4459073 *  2.4371019 *
  19 O       2.9179905 *  4.7968503    1.4459073 *  0.0000000    3.7327588  
  20 N       6.4231634    1.3759135 *  2.4371019 *  3.7327588    0.0000000  
  21 H       5.5442099    2.4820958 *  2.1770465 *  2.7987468 *  2.0505844 *
  22 H       4.9150702    3.8998495    2.7343433 *  3.2389391    2.7150205 *
  23 H       4.1510398    4.8151604    3.1969627    2.6451098 *  4.0867875  
  24 H       4.7634529    3.6047757    1.0944066 *  2.0238279 *  2.7452247 *
  25 H       2.4951887 *  5.6771061    2.7004667 *  2.1247192 *  4.3916692  
  26 H       2.1302492 *  7.3094888    4.5314964    3.3365217    6.2466835  
  27 H       2.1403649 *  6.7906317    3.8883879    2.4932977 *  5.8656919  
  28 H       9.6936583    2.1408904 *  5.5721231    6.8718952    3.3334692  
  29 H       9.1014297    2.1610865 *  5.1955934    6.5059066    2.7811014 *
  30 H       8.8295972    2.1778444 *  4.7077235    6.1313040    2.6649681 *

               21 H         22 H         23 H         24 H         25 H     

   1 C       1.0923973 *  2.1553358 *  2.7097773 *  2.1799340 *  3.3144905  
   2 C       2.1577582 *  1.0988195 *  2.1422131 *  3.4529115    2.7459279 *
   3 C       2.7819563 *  2.1395528 *  1.0988314 *  3.8170690    2.1571977 *
   4 C       3.3954300    2.7115427 *  2.1614719 *  3.3353032    1.0931548 *
   5 C       4.5576605    4.1424212    2.7835690 *  4.4228077    2.1439351 *
   6 C       3.9933731    4.8290279    6.2503273    4.7266412    6.7804379  
   7 H       3.4634742    2.3938146 *  2.7398280 *  5.3232119    4.1161176  
   8 H       4.6062140    3.5558467    2.2741221 *  5.8040830    3.3073563  
   9 H       4.1107108    3.3542476    4.7340249    2.3852140 *  2.6956878 *
  10 H       6.2903808    5.8482379    4.7493384    5.5380521    3.4620867  
  11 H       2.9524728 *  2.6609272 *  4.6935657    3.0461610    4.3521874  
  12 O       2.2984345 *  4.5133029    4.6314021    3.9129632    6.1122304  
  13 O       2.6169916 *  2.1238958 *  2.6442517 *  4.5845479    4.0807893  
  14 O       4.0799763    2.5905013 *  2.1369862 *  5.2187925    2.7163125 *
  15 O       3.3285472    2.4994606 *  4.1318151    2.1233704 *  2.5388585 *
  16 O       5.5442099    4.9150702    4.1510398    4.7634529    2.4951887 *
  17 C       2.4820958 *  3.8998495    4.8151604    3.6047757    5.6771061  
  18 C       2.1770465 *  2.7343433 *  3.1969627    1.0944066 *  2.7004667 *
  19 O       2.7987468 *  3.2389391    2.6451098 *  2.0238279 *  2.1247192 *
  20 N       2.0505844 *  2.7150205 *  4.0867875    2.7452247 *  4.3916692  
  21 H       0.0000000    3.0575938    2.5403864 *  2.4817388 *  4.0284671  
  22 H       3.0575938    0.0000000    3.0403068    3.7668684    2.4865935 *
  23 H       2.5403864 *  3.0403068    0.0000000    3.9502048    3.0650672  
  24 H       2.4817388 *  3.7668684    3.9502048    0.0000000    3.6727352  
  25 H       4.0284671    2.4865935 *  3.0650672    3.6727352    0.0000000  
  26 H       5.1147817    4.3277131    2.9432078 *  5.3415050    2.5623704 *
  27 H       4.4008581    4.7082318    2.6642321 *  4.4002608    3.0267089  
  28 H       4.5644803    5.7940286    6.9016088    5.4277798    7.7228545  
  29 H       4.4458065    4.6743365    6.4214026    5.3749431    6.8692357  
  30 H       4.4344442    5.0721338    6.7197657    4.5705732    6.8157819  

               26 H         27 H         28 H         29 H         30 H     

   1 C       4.8822791    4.4300618    4.5975102    4.1327164    4.0907104  
   2 C       4.1113427    4.2116746    5.5180346    4.6577965    5.0704742  
   3 C       2.6602501 *  2.8584958 *  6.8787424    6.1573058    6.4637400  
   4 C       2.1302371 *  2.1284934 *  7.5293743    6.8691014    6.8220280  
   5 C       1.1018711 *  1.0991594 *  8.9193320    8.3430098    8.2759543  
   6 C       8.6320014    8.2162981    1.0906314 *  1.0966065 *  1.0958863 *
   7 H       4.7012140    5.1857529    6.1871628    5.1836267    6.1412414  
   8 H       2.3312415 *  3.3889945    8.5339644    7.6788440    8.2586717  
   9 H       5.0558932    4.7817332    6.6343631    6.0027171    5.3121373  
  10 H       2.4630043 *  2.3540346 * 10.5531420   10.0242252    9.7397823  
  11 H       6.4996543    6.2848402    3.6347450    2.7530685 *  2.5066149 *
  12 O       7.3673077    6.6732584    2.5717899 *  3.0945360    3.2075707  
  13 O       4.9961103    5.1748034    5.2538908    4.3600315    5.2246538  
  14 O       2.6367531 *  3.6032726    7.7932928    6.8399261    7.4156934  
  15 O       4.9351616    4.7175419    5.8443526    5.1343704    4.6250057  
  16 O       2.1302492 *  2.1403649 *  9.6936583    9.1014297    8.8295972  
  17 C       7.3094888    6.7906317    2.1408904 *  2.1610865 *  2.1778444 *
  18 C       4.5314964    3.8883879    5.5721231    5.1955934    4.7077235  
  19 O       3.3365217    2.4932977 *  6.8718952    6.5059066    6.1313040  
  20 N       6.2466835    5.8656919    3.3334692    2.7811014 *  2.6649681 *
  21 H       5.1147817    4.4008581    4.5644803    4.4458065    4.4344442  
  22 H       4.3277131    4.7082318    5.7940286    4.6743365    5.0721338  
  23 H       2.9432078 *  2.6642321 *  6.9016088    6.4214026    6.7197657  
  24 H       5.3415050    4.4002608    5.4277798    5.3749431    4.5705732  
  25 H       2.5623704 *  3.0267089    7.7228545    6.8692357    6.8157819  
  26 H       0.0000000    1.7950750 *  9.4412917    8.7382231    8.8712105  
  27 H       1.7950750 *  0.0000000    8.9154022    8.5409005    8.4270076  
  28 H       9.4412917    8.9154022    0.0000000    1.7826314 *  1.7887134 *
  29 H       8.7382231    8.5409005    1.7826314 *  0.0000000    1.7789584 *
  30 H       8.8712105    8.4270076    1.7887134 *  1.7789584 *  0.0000000  

  * ... LESS THAN  3.000


     ATOMIC BASIS SET
     ----------------
 THE CONTRACTED PRIMITIVE FUNCTIONS HAVE BEEN UNNORMALIZED
 THE CONTRACTED BASIS FUNCTIONS ARE NOW NORMALIZED TO UNITY

  SHELL TYPE  PRIMITIVE        EXPONENT          CONTRACTION COEFFICIENT(S)

 C         

      1   S       1           172.2560000    0.061766907377
      1   S       2            25.9109000    0.358794042852
      1   S       3             5.5333500    0.700713083689

      2   L       4             3.6649800   -0.395895162119    0.236459946619
      2   L       5             0.7705450    1.215834355681    0.860618805716

      3   L       6             0.1958570    1.000000000000    1.000000000000

 C         

      4   S       7           172.2560000    0.061766907377
      4   S       8            25.9109000    0.358794042852
      4   S       9             5.5333500    0.700713083689

      5   L      10             3.6649800   -0.395895162119    0.236459946619
      5   L      11             0.7705450    1.215834355681    0.860618805716

      6   L      12             0.1958570    1.000000000000    1.000000000000

 C         

      7   S      13           172.2560000    0.061766907377
      7   S      14            25.9109000    0.358794042852
      7   S      15             5.5333500    0.700713083689

      8   L      16             3.6649800   -0.395895162119    0.236459946619
      8   L      17             0.7705450    1.215834355681    0.860618805716

      9   L      18             0.1958570    1.000000000000    1.000000000000

 C         

     10   S      19           172.2560000    0.061766907377
     10   S      20            25.9109000    0.358794042852
     10   S      21             5.5333500    0.700713083689

     11   L      22             3.6649800   -0.395895162119    0.236459946619
     11   L      23             0.7705450    1.215834355681    0.860618805716

     12   L      24             0.1958570    1.000000000000    1.000000000000

 C         

     13   S      25           172.2560000    0.061766907377
     13   S      26            25.9109000    0.358794042852
     13   S      27             5.5333500    0.700713083689

     14   L      28             3.6649800   -0.395895162119    0.236459946619
     14   L      29             0.7705450    1.215834355681    0.860618805716

     15   L      30             0.1958570    1.000000000000    1.000000000000

 C         

     16   S      31           172.2560000    0.061766907377
     16   S      32            25.9109000    0.358794042852
     16   S      33             5.5333500    0.700713083689

     17   L      34             3.6649800   -0.395895162119    0.236459946619
     17   L      35             0.7705450    1.215834355681    0.860618805716

     18   L      36             0.1958570    1.000000000000    1.000000000000

 H         

     19   S      37             5.4471780    0.156284978695
     19   S      38             0.8245472    0.904690876670

     20   S      39             0.1831916    1.000000000000

 H         

     21   S      40             5.4471780    0.156284978695
     21   S      41             0.8245472    0.904690876670

     22   S      42             0.1831916    1.000000000000

 H         

     23   S      43             5.4471780    0.156284978695
     23   S      44             0.8245472    0.904690876670

     24   S      45             0.1831916    1.000000000000

 H         

     25   S      46             5.4471780    0.156284978695
     25   S      47             0.8245472    0.904690876670

     26   S      48             0.1831916    1.000000000000

 H         

     27   S      49             5.4471780    0.156284978695
     27   S      50             0.8245472    0.904690876670

     28   S      51             0.1831916    1.000000000000

 O         

     29   S      52           322.0370000    0.059239393389
     29   S      53            48.4308000    0.351499960776
     29   S      54            10.4206000    0.707657921031

     30   L      55             7.4029400   -0.404453583190    0.244586106967
     30   L      56             1.5762000    1.221561761397    0.853955373466

     31   L      57             0.3736840    1.000000000000    1.000000000000

 O         

     32   S      58           322.0370000    0.059239393389
     32   S      59            48.4308000    0.351499960776
     32   S      60            10.4206000    0.707657921031

     33   L      61             7.4029400   -0.404453583190    0.244586106967
     33   L      62             1.5762000    1.221561761397    0.853955373466

     34   L      63             0.3736840    1.000000000000    1.000000000000

 O         

     35   S      64           322.0370000    0.059239393389
     35   S      65            48.4308000    0.351499960776
     35   S      66            10.4206000    0.707657921031

     36   L      67             7.4029400   -0.404453583190    0.244586106967
     36   L      68             1.5762000    1.221561761397    0.853955373466

     37   L      69             0.3736840    1.000000000000    1.000000000000

 O         

     38   S      70           322.0370000    0.059239393389
     38   S      71            48.4308000    0.351499960776
     38   S      72            10.4206000    0.707657921031

     39   L      73             7.4029400   -0.404453583190    0.244586106967
     39   L      74             1.5762000    1.221561761397    0.853955373466

     40   L      75             0.3736840    1.000000000000    1.000000000000

 O         

     41   S      76           322.0370000    0.059239393389
     41   S      77            48.4308000    0.351499960776
     41   S      78            10.4206000    0.707657921031

     42   L      79             7.4029400   -0.404453583190    0.244586106967
     42   L      80             1.5762000    1.221561761397    0.853955373466

     43   L      81             0.3736840    1.000000000000    1.000000000000

 C         

     44   S      82           172.2560000    0.061766907377
     44   S      83            25.9109000    0.358794042852
     44   S      84             5.5333500    0.700713083689

     45   L      85             3.6649800   -0.395895162119    0.236459946619
     45   L      86             0.7705450    1.215834355681    0.860618805716

     46   L      87             0.1958570    1.000000000000    1.000000000000

 C         

     47   S      88           172.2560000    0.061766907377
     47   S      89            25.9109000    0.358794042852
     47   S      90             5.5333500    0.700713083689

     48   L      91             3.6649800   -0.395895162119    0.236459946619
     48   L      92             0.7705450    1.215834355681    0.860618805716

     49   L      93             0.1958570    1.000000000000    1.000000000000

 O         

     50   S      94           322.0370000    0.059239393389
     50   S      95            48.4308000    0.351499960776
     50   S      96            10.4206000    0.707657921031

     51   L      97             7.4029400   -0.404453583190    0.244586106967
     51   L      98             1.5762000    1.221561761397    0.853955373466

     52   L      99             0.3736840    1.000000000000    1.000000000000

 N         

     53   S     100           242.7660000    0.059865700508
     53   S     101            36.4851000    0.352955002994
     53   S     102             7.8144900    0.706513005993

     54   L     103             5.4252200   -0.413300077430    0.237972016222
     54   L     104             1.1491500    1.224417266851    0.858953058551

     55   L     105             0.2832050    1.000000000000    1.000000000000

 H         

     56   S     106             5.4471780    0.156284978695
     56   S     107             0.8245472    0.904690876670

     57   S     108             0.1831916    1.000000000000

 H         

     58   S     109             5.4471780    0.156284978695
     58   S     110             0.8245472    0.904690876670

     59   S     111             0.1831916    1.000000000000

 H         

     60   S     112             5.4471780    0.156284978695
     60   S     113             0.8245472    0.904690876670

     61   S     114             0.1831916    1.000000000000

 H         

     62   S     115             5.4471780    0.156284978695
     62   S     116             0.8245472    0.904690876670

     63   S     117             0.1831916    1.000000000000

 H         

     64   S     118             5.4471780    0.156284978695
     64   S     119             0.8245472    0.904690876670

     65   S     120             0.1831916    1.000000000000

 H         

     66   S     121             5.4471780    0.156284978695
     66   S     122             0.8245472    0.904690876670

     67   S     123             0.1831916    1.000000000000

 H         

     68   S     124             5.4471780    0.156284978695
     68   S     125             0.8245472    0.904690876670

     69   S     126             0.1831916    1.000000000000

 H         

     70   S     127             5.4471780    0.156284978695
     70   S     128             0.8245472    0.904690876670

     71   S     129             0.1831916    1.000000000000

 H         

     72   S     130             5.4471780    0.156284978695
     72   S     131             0.8245472    0.904690876670

     73   S     132             0.1831916    1.000000000000

 H         

     74   S     133             5.4471780    0.156284978695
     74   S     134             0.8245472    0.904690876670

     75   S     135             0.1831916    1.000000000000

 TOTAL NUMBER OF BASIS SET SHELLS             =   75
 NUMBER OF CARTESIAN GAUSSIAN BASIS FUNCTIONS =  165
 NUMBER OF ELECTRONS                          =  118
 CHARGE OF MOLECULE                           =    0
 SPIN MULTIPLICITY                            =    1
 NUMBER OF OCCUPIED ORBITALS (ALPHA)          =   59
 NUMBER OF OCCUPIED ORBITALS (BETA )          =   59
 TOTAL NUMBER OF ATOMS                        =   30
 THE NUCLEAR REPULSION ENERGY IS     1129.9527667814

     $CONTRL OPTIONS
     ---------------
 SCFTYP=RHF          RUNTYP=ENERGY       EXETYP=RUN     
 MPLEVL=       0     CITYP =NONE         CCTYP =NONE         VBTYP =NONE    
 DFTTYP=NONE         TDDFT =NONE    
 MULT  =       1     ICHARG=       0     NZVAR =       0     COORD =UNIQUE  
 PP    =NONE         RELWFN=NONE         LOCAL =NONE         NUMGRD=       F
 ISPHER=      -1     NOSYM =       0     MAXIT =      60     UNITS =ANGS    
 PLTORB=       F     MOLPLT=       F     AIMPAC=       F     FRIEND=        
 NPRINT=       7     IREST =       0     GEOM  =INPUT   
 NORMF =       0     NORMP =       0     ITOL  =      20     ICUT  =       9
 INTTYP=BEST         GRDTYP=BEST         QMTTOL= 1.0E-06

     $SYSTEM OPTIONS
     ---------------
  REPLICATED MEMORY=    30000000 WORDS (ON EVERY NODE).
 DISTRIBUTED MEMDDI=        1000 MILLION WORDS IN AGGREGATE,
 MEMDDI DISTRIBUTED OVER   8 PROCESSORS IS   125000000 WORDS/PROCESSOR.
 TOTAL MEMORY REQUESTED ON EACH PROCESSOR=   155000000 WORDS.
 TIMLIM=      525600.00 MINUTES, OR     365.0 DAYS.
 PARALL= T  BALTYP=  DLB     KDIAG=    0  COREFL= F
 MXSEQ2=     300 MXSEQ3=     150  mem10=         0

          ----------------
          PROPERTIES INPUT
          ----------------

     MOMENTS            FIELD           POTENTIAL          DENSITY
 IEMOM =       1   IEFLD =       0   IEPOT =       0   IEDEN =       0
 WHERE =COMASS     WHERE =NUCLEI     WHERE =NUCLEI     WHERE =NUCLEI  
 OUTPUT=BOTH       OUTPUT=BOTH       OUTPUT=BOTH       OUTPUT=BOTH    
 IEMINT=       0   IEFINT=       0                     IEDINT=       0
                                                       MORB  =       0
          EXTRAPOLATION IN EFFECT
          SOSCF IN EFFECT
 ORBITAL PRINTING OPTION: NPREO=     1   165     2     1

     -------------------------------
     INTEGRAL TRANSFORMATION OPTIONS
     -------------------------------
     NWORD  =            0
     CUTOFF = 1.0E-09     MPTRAN =       0
     DIRTRF =       T     AOINTS =DUP     

          ----------------------
          INTEGRAL INPUT OPTIONS
          ----------------------
 NOPK  =       1 NORDER=       0 SCHWRZ=       T

     ------------------------------------------
     THE POINT GROUP IS C1 , NAXIS= 0, ORDER= 1
     ------------------------------------------

     DIMENSIONS OF THE SYMMETRY SUBSPACES ARE
 A   =  165

 ..... DONE SETTING UP THE RUN .....
 CPU     0: STEP CPU TIME=     0.04 TOTAL CPU TIME=          0.0 (      0.0 MIN)
 TOTAL WALL CLOCK TIME=          0.1 SECONDS, CPU UTILIZATION IS    50.00%

          ********************
          1 ELECTRON INTEGRALS
          ********************
 ...... END OF ONE-ELECTRON INTEGRALS ......
 CPU     0: STEP CPU TIME=     0.02 TOTAL CPU TIME=          0.1 (      0.0 MIN)
 TOTAL WALL CLOCK TIME=          0.1 SECONDS, CPU UTILIZATION IS    54.55%

          -------------
          GUESS OPTIONS
          -------------
          GUESS =HUCKEL            NORB  =       0          NORDER=       0
          MIX   =       F          PRTMO =       F          PUNMO =       F
          TOLZ  = 1.0E-08          TOLE  = 1.0E-05
          SYMDEN=       F          PURIFY=       F

 INITIAL GUESS ORBITALS GENERATED BY HUCKEL   ROUTINE.
 HUCKEL GUESS REQUIRES    252105 WORDS.

 SYMMETRIES FOR INITIAL GUESS ORBITALS FOLLOW.   BOTH SET(S).
    59 ORBITALS ARE OCCUPIED (   15 CORE ORBITALS).
    16=A       17=A       18=A       19=A       20=A       21=A       22=A   
    23=A       24=A       25=A       26=A       27=A       28=A       29=A   
    30=A       31=A       32=A       33=A       34=A       35=A       36=A   
    37=A       38=A       39=A       40=A       41=A       42=A       43=A   
    44=A       45=A       46=A       47=A       48=A       49=A       50=A   
    51=A       52=A       53=A       54=A       55=A       56=A       57=A   
    58=A       59=A       60=A       61=A       62=A       63=A       64=A   
    65=A       66=A       67=A       68=A       69=A   
 ...... END OF INITIAL ORBITAL SELECTION ......
 CPU     0: STEP CPU TIME=     0.05 TOTAL CPU TIME=          0.1 (      0.0 MIN)
 TOTAL WALL CLOCK TIME=          0.2 SECONDS, CPU UTILIZATION IS    44.00%

                    ----------------------
                    AO INTEGRAL TECHNOLOGY
                    ----------------------
     S,P,L SHELL ROTATED AXIS INTEGRALS, REPROGRAMMED BY
        KAZUYA ISHIMURA (IMS) AND JOSE SIERRA (SYNSTAR).
     S,P,D,L SHELL ROTATED AXIS INTEGRALS PROGRAMMED BY
        KAZUYA ISHIMURA (INSTITUTE FOR MOLECULAR SCIENCE).
     S,P,D,F,G SHELL TO TOTAL QUARTET ANGULAR MOMENTUM SUM 5,
        ERIC PROGRAM BY GRAHAM FLETCHER (ELORET AND NASA ADVANCED
        SUPERCOMPUTING DIVISION, AMES RESEARCH CENTER).
     S,P,D,F,G,L SHELL GENERAL RYS QUADRATURE PROGRAMMED BY
        MICHEL DUPUIS (PACIFIC NORTHWEST NATIONAL LABORATORY).

          --------------------
          2 ELECTRON INTEGRALS
          --------------------

 DIRECT SCF METHOD SKIPS INTEGRAL STORAGE ON DISK.
 DIRECT TRANSFORMATION SKIPS AO INTEGRAL STORAGE ON DISK.
  ...... END OF TWO-ELECTRON INTEGRALS .....
 CPU     0: STEP CPU TIME=     0.02 TOTAL CPU TIME=          0.1 (      0.0 MIN)
 TOTAL WALL CLOCK TIME=          0.3 SECONDS, CPU UTILIZATION IS    46.43%

          --------------------------
                 RHF SCF CALCULATION
          --------------------------

     NUCLEAR ENERGY =      1129.9527667814
     MAXIT =   60     NPUNCH=    2
     EXTRAP=T  DAMP=F  SHIFT=F  RSTRCT=F  DIIS=F  DEM=F  SOSCF=T
     DENSITY MATRIX CONV=  2.00E-05
     SOSCF WILL OPTIMIZE    6254 ORBITAL ROTATIONS, SOGTOL=   0.250
     MEMORY REQUIRED FOR RHF ITERS=    267957 WORDS.

 DIRECT SCF CALCULATION, SCHWRZ=T   FDIFF=T,  DIRTHR=  0.00E+00 NITDIR=10
 SCHWARZ INEQUALITY OVERHEAD:     11825 INTEGRALS, T=        0.01

                                                                                   NONZERO     BLOCKS
 ITER EX DEM     TOTAL ENERGY        E CHANGE  DENSITY CHANGE     ORB. GRAD      INTEGRALS    SKIPPED
   1  0  0     -808.5163422760  -808.5163422760   0.919720600   0.000000000       37665305    2667765
          ---------------START SECOND ORDER SCF---------------
   2  1  0     -810.5392441087    -2.0229018327   0.272394503   0.126394941       37619196    2692466
   3  2  0     -810.6360385687    -0.0967944600   0.160479473   0.105966225       37223166    2773692
   4  3  0     -810.7562910266    -0.1202524579   0.047310681   0.013867121       36615508    2842343
   5  4  0     -810.7591134634    -0.0028224368   0.003161133   0.001446039       35874125    2904801
   6  5  0     -810.7593470405    -0.0002335770   0.002685176   0.001046529       34143175    3002887
   7  6  0     -810.7593763255    -0.0000292850   0.000508901   0.000461915       32720624    3072436
   8  7  0     -810.7593797218    -0.0000033964   0.000230381   0.000116349       30215481    3177692
   9  8  0     -810.7593800200    -0.0000002982   0.000123128   0.000029960       28303240    3251486
  10  9  0     -810.7593800469    -0.0000000269   0.000033291   0.000012794       25909989    3339022
  11 10  0     -810.7593800526    -0.0000000057   0.000009914   0.000005302       23754966    3418352
  12 11  0     -810.7593800523     0.0000000003   0.000003256   0.000001508       21426393    3488850

          -----------------
          DENSITY CONVERGED
          -----------------
     TIME TO FORM FOCK OPERATORS=       5.6 SECONDS (       0.5 SEC/ITER)
     FOCK TIME ON FIRST ITERATION=       0.6, LAST ITERATION=       0.3
     TIME TO SOLVE SCF EQUATIONS=       0.2 SECONDS (       0.0 SEC/ITER)

 FINAL RHF ENERGY IS     -810.7593800523 AFTER  12 ITERATIONS

          ------------
          EIGENVECTORS
          ------------

                      1          2          3          4          5
                  -20.4792   -20.4755   -20.4746   -20.4584   -20.4385
                     A          A          A          A          A   
    1  C  1  S   -0.000095   0.000320   0.000155  -0.000033   0.000233
    2  C  1  S   -0.000747   0.001281   0.000537  -0.000188   0.000958
    3  C  1  X   -0.000717  -0.000323  -0.000188  -0.000015  -0.000351
    4  C  1  Y    0.000013   0.001141   0.000417  -0.000016  -0.000226
    5  C  1  Z   -0.000159   0.000186  -0.000079   0.000122   0.000486
    6  C  1  S    0.000896  -0.010562  -0.004153   0.001134  -0.006385
    7  C  1  X    0.004908  -0.002960  -0.002262   0.000479  -0.000488
    8  C  1  Y   -0.000529   0.000036  -0.000712  -0.000918  -0.005393
    9  C  1  Z    0.001474   0.004795  -0.000624  -0.001314  -0.003553
   10  C  2  S    0.000242   0.000107   0.000046  -0.000055  -0.000944
   11  C  2  S    0.000916   0.001076   0.000571  -0.000322  -0.003900
   12  C  2  X   -0.000495   0.000046   0.000199   0.000150  -0.000408
   13  C  2  Y   -0.000218  -0.000537  -0.000517  -0.000085   0.001067
   14  C  2  Z   -0.000242  -0.000007  -0.000468  -0.000157  -0.000281
   15  C  2  S   -0.008090  -0.000272   0.000234   0.002523   0.023351
   16  C  2  X   -0.005043  -0.003628  -0.002520   0.000601  -0.005525
   17  C  2  Y   -0.000732   0.000145   0.001633   0.001196   0.010617
   18  C  2  Z    0.000300   0.001112   0.003840   0.001909   0.010150
   19  C  3  S   -0.000950  -0.000082   0.000049  -0.000079   0.000213
   20  C  3  S   -0.004098  -0.000497  -0.000324  -0.000542   0.000710
   21  C  3  X    0.000379  -0.000197  -0.000261  -0.000556   0.000574
   22  C  3  Y    0.000950  -0.000087   0.000711   0.000203  -0.000102
   23  C  3  Z    0.000300  -0.000023   0.000420  -0.000098   0.000241
   24  C  3  S    0.022275   0.003578  -0.002025   0.000767  -0.006976
   25  C  3  X    0.004130  -0.000356   0.000581   0.004477   0.004298
   26  C  3  Y    0.010415   0.000178   0.001832  -0.001182  -0.001615
   27  C  3  Z   -0.009105  -0.001950  -0.003546   0.000261  -0.001373
   28  C  4  S    0.000105  -0.000079  -0.000750   0.000256  -0.000039
   29  C  4  S    0.000153   0.000290  -0.003083   0.001085  -0.000258
   30  C  4  X    0.000133  -0.000829  -0.000950  -0.000293   0.000597
   31  C  4  Y   -0.000508  -0.000525  -0.001128   0.000316  -0.000316
   32  C  4  Z   -0.000571  -0.000002  -0.000188  -0.000100   0.000098
   33  C  4  S   -0.002699   0.002115   0.015613  -0.009102  -0.000891
   34  C  4  X   -0.000282   0.002268  -0.003641  -0.004869  -0.003944
   35  C  4  Y   -0.004345  -0.002990  -0.006989  -0.000295   0.000441
   36  C  4  Z    0.004857   0.002482   0.006712  -0.000347  -0.000499
   37  C  5  S    0.000060   0.000101   0.000165  -0.000846  -0.000055
   38  C  5  S    0.000520   0.000535   0.000654  -0.003388  -0.000274
   39  C  5  X   -0.000245   0.000120   0.000536   0.001012  -0.000188
   40  C  5  Y    0.000051  -0.000046   0.000019  -0.001065   0.000087
   41  C  5  Z    0.000314   0.000073   0.000396  -0.000566   0.000029
   42  C  5  S   -0.001469  -0.003447  -0.005294   0.020395   0.002843
   43  C  5  X    0.002139   0.001779   0.003278   0.001231  -0.000631
   44  C  5  Y    0.000681   0.000821   0.001549  -0.006948  -0.000389
   45  C  5  Z   -0.002494   0.000227  -0.002074  -0.007160  -0.001209
   46  C  6  S   -0.000021   0.000029  -0.000003  -0.000005  -0.000035
   47  C  6  S   -0.000137   0.000143  -0.000037  -0.000021  -0.000195
   48  C  6  X   -0.000019  -0.000034  -0.000054   0.000017   0.000038
   49  C  6  Y    0.000004  -0.000024   0.000008   0.000002   0.000034
   50  C  6  Z    0.000015  -0.000036   0.000005   0.000001   0.000019
   51  C  6  S    0.000660  -0.001176  -0.000099   0.000224   0.001327
   52  C  6  X    0.000343  -0.000685   0.000010   0.000082   0.000589
   53  C  6  Y   -0.000034   0.000216  -0.000095  -0.000007  -0.000208
   54  C  6  Z    0.000107  -0.000218  -0.000007   0.000063   0.000292
   55  H  7  S   -0.000565  -0.000022   0.000012  -0.000004   0.003226
   56  H  7  S    0.001766  -0.000229  -0.000391  -0.000057   0.004910
   57  H  8  S    0.002910   0.000010  -0.000218   0.000015  -0.000269
   58  H  8  S    0.004866  -0.000012   0.000282   0.000156  -0.000343
   59  H  9  S    0.000095   0.003247  -0.000356  -0.000008   0.000119
   60  H  9  S   -0.000223   0.004015  -0.002114   0.000015  -0.000101
   61  H 10  S    0.000028  -0.000131  -0.000172   0.003030   0.000118
   62  H 10  S   -0.000226  -0.000099  -0.000276   0.005029  -0.000044
   63  H 11  S    0.000076  -0.000493  -0.000212   0.000055   0.000402
   64  H 11  S    0.000184   0.001123  -0.000326   0.000070   0.000076
   65  O 12  S   -0.000082  -0.000171  -0.000213   0.000075   0.000608
   66  O 12  S   -0.000027  -0.000091  -0.000079   0.000027   0.000153
   67  O 12  X   -0.000014   0.000045   0.000003  -0.000003   0.000002
   68  O 12  Y    0.000004  -0.000024   0.000021  -0.000006  -0.000005
   69  O 12  Z    0.000006   0.000008   0.000001   0.000003   0.000003
   70  O 12  S   -0.000061   0.000588   0.000223  -0.000113  -0.000528
   71  O 12  X   -0.000021  -0.000057  -0.000058  -0.000009  -0.000123
   72  O 12  Y   -0.000010   0.000090  -0.000095   0.000023   0.000005
   73  O 12  Z    0.000000  -0.000167  -0.000026   0.000012   0.000081
   74  O 13  S    0.002828   0.001866   0.003085   0.001484   0.983562
   75  O 13  S    0.000677   0.000485   0.000816   0.000317   0.098463
   76  O 13  X    0.000137  -0.000058   0.000019  -0.000012   0.003447
   77  O 13  Y    0.000065  -0.000127  -0.000165  -0.000026  -0.001158
   78  O 13  Z    0.000089  -0.000022   0.000033  -0.000012  -0.001620
   79  O 13  S   -0.001025  -0.001228  -0.002244  -0.001014  -0.047559
   80  O 13  X   -0.000170   0.000224  -0.000286  -0.000182  -0.008698
   81  O 13  Y   -0.000424   0.000792   0.001210   0.000415   0.006064
   82  O 13  Z   -0.000333   0.000146  -0.000072   0.000083   0.004167
   83  O 14  S    0.983502  -0.005358   0.002585  -0.002171  -0.002763
   84  O 14  S    0.098030  -0.000399   0.000276   0.000007   0.000115
   85  O 14  X    0.000184   0.000008  -0.000084   0.000038  -0.000392
   86  O 14  Y   -0.002111   0.000019   0.000122  -0.000013   0.000024
   87  O 14  Z    0.002954   0.000003   0.000006   0.000064  -0.000180
   88  O 14  S   -0.045991  -0.000557  -0.000844  -0.000812  -0.000256
   89  O 14  X    0.001775   0.000138   0.000474  -0.000279   0.001064
   90  O 14  Y    0.007501   0.000274  -0.000064   0.000416  -0.000176
   91  O 14  Z   -0.006515  -0.000068   0.000041  -0.000356   0.000750
   92  O 15  S    0.005902   0.943971  -0.276064   0.000869  -0.000899
   93  O 15  S    0.000711   0.094556  -0.026366  -0.000003   0.000105
   94  O 15  X   -0.000005   0.001534   0.000010  -0.000002   0.000118
   95  O 15  Y   -0.000035  -0.001873   0.000701  -0.000003  -0.000021
   96  O 15  Z    0.000046   0.002727  -0.000554  -0.000015   0.000049
   97  O 15  S   -0.000891  -0.045421   0.008880   0.000430  -0.000785
   98  O 15  X    0.000000  -0.003783  -0.001475   0.000052  -0.000479
   99  O 15  Y    0.000012   0.002896  -0.001578   0.000053  -0.000190
  100  O 15  Z   -0.000365  -0.009895   0.000077   0.000273  -0.000484
  101  O 16  S    0.002210  -0.000270   0.002313   0.983453  -0.001452
  102  O 16  S    0.000416  -0.000085   0.000326   0.097500   0.000012
  103  O 16  X   -0.000017  -0.000070  -0.000148   0.000747   0.000044
  104  O 16  Y    0.000100   0.000043   0.000154   0.001980   0.000011
  105  O 16  Z   -0.000030  -0.000072  -0.000108   0.003104   0.000031
  106  O 16  S   -0.000837   0.000455  -0.000076  -0.043637  -0.000684
  107  O 16  X    0.000104   0.000068   0.000283   0.000334  -0.000006
  108  O 16  Y   -0.000582  -0.000024  -0.000505  -0.005944  -0.000253
  109  O 16  Z    0.000114   0.000357   0.000544  -0.007229  -0.000232
  110  C 17  S   -0.000009  -0.000005   0.000001  -0.000001   0.000001
  111  C 17  S   -0.000123   0.000039   0.000030  -0.000024  -0.000059
  112  C 17  X   -0.000180   0.000299   0.000097  -0.000068  -0.000334
  113  C 17  Y    0.000017   0.000027  -0.000005  -0.000003  -0.000047
  114  C 17  Z   -0.000037  -0.000031  -0.000060   0.000006  -0.000006
  115  C 17  S   -0.000128   0.001105   0.000678  -0.000232  -0.001136
  116  C 17  X    0.000653  -0.000819   0.000341   0.000134   0.000890
  117  C 17  Y    0.000052  -0.000482   0.000185   0.000006   0.000329
  118  C 17  Z    0.000280  -0.001397  -0.000570   0.000256   0.001125
  119  C 18  S    0.000008  -0.001264  -0.000573   0.000085  -0.000120
  120  C 18  S   -0.000155  -0.005455  -0.002163   0.000420  -0.000795
  121  C 18  X   -0.000217   0.000368   0.001351  -0.000061   0.000012
  122  C 18  Y   -0.000429  -0.001038  -0.000030   0.000060  -0.000621
  123  C 18  Z    0.000057  -0.001224   0.000743  -0.000061   0.000144
  124  C 18  S   -0.001910   0.027779   0.012490  -0.002362   0.000555
  125  C 18  X    0.000089   0.004833   0.009445  -0.000265   0.002306
  126  C 18  Y    0.000238   0.006136   0.002186  -0.001078   0.002181
  127  C 18  Z   -0.001970  -0.011303   0.004852   0.000192  -0.000665
  128  O 19  S   -0.000960   0.276431   0.944056  -0.002155  -0.003336
  129  O 19  S   -0.000040   0.029153   0.095269  -0.000153   0.000255
  130  O 19  X    0.000222  -0.000442  -0.001474   0.000310  -0.000056
  131  O 19  Y   -0.000105   0.000767   0.002440   0.000006   0.000037
  132  O 19  Z   -0.000044  -0.001182  -0.002126   0.000075  -0.000168
  133  O 19  S   -0.000894  -0.018322  -0.048055   0.000350  -0.002245
  134  O 19  X   -0.001425   0.002938   0.003767  -0.000867   0.000697
  135  O 19  Y   -0.000119  -0.002092  -0.006684   0.000106  -0.000649
  136  O 19  Z    0.000214   0.005119   0.005351  -0.000319   0.000954
  137  N 20  S   -0.000060   0.000024  -0.000053   0.000006   0.000035
  138  N 20  S   -0.000334   0.000232  -0.000360   0.000030   0.000280
  139  N 20  X   -0.000003  -0.000180  -0.000312   0.000040   0.000346
  140  N 20  Y    0.000071  -0.000078   0.000326  -0.000041   0.000056
  141  N 20  Z   -0.000118   0.000075   0.000068  -0.000031  -0.000163
  142  N 20  S    0.002256   0.000100   0.000227  -0.000244  -0.000353
  143  N 20  X    0.000977   0.001945   0.001348  -0.000407  -0.001232
  144  N 20  Y   -0.000130   0.000439  -0.001140   0.000238   0.000400
  145  N 20  Z    0.000879  -0.000091  -0.000580   0.000187   0.000987
  146  H 21  S   -0.000432  -0.000249   0.000581   0.000104   0.001067
  147  H 21  S    0.000061   0.000091  -0.000207   0.000451   0.001701
  148  H 22  S    0.000747  -0.000070   0.000794   0.000155  -0.000564
  149  H 22  S    0.000452   0.001462   0.001358   0.000359   0.000791
  150  H 23  S   -0.000546   0.000007   0.000600  -0.000297   0.000724
  151  H 23  S   -0.000080   0.000333   0.001275   0.000234   0.000912
  152  H 24  S    0.000187  -0.001195  -0.000731   0.000055   0.000262
  153  H 24  S    0.000918   0.000773  -0.000227  -0.000189   0.001104
  154  H 25  S    0.000918  -0.000327  -0.000672   0.000471  -0.000252
  155  H 25  S    0.001799   0.001005   0.000347   0.000868   0.000276
  156  H 26  S   -0.000044   0.000009  -0.000178  -0.001184  -0.000017
  157  H 26  S   -0.001239  -0.000184  -0.000140  -0.001018  -0.000256
  158  H 27  S    0.000412   0.000314   0.000615  -0.001106   0.000006
  159  H 27  S    0.001501   0.000178   0.001564  -0.000760   0.000087
  160  H 28  S   -0.000032   0.000030  -0.000015  -0.000009  -0.000054
  161  H 28  S    0.000061  -0.000042   0.000095  -0.000024  -0.000029
  162  H 29  S   -0.000039   0.000071   0.000005  -0.000007  -0.000043
  163  H 29  S   -0.000024  -0.000129   0.000027   0.000004   0.000042
  164  H 30  S   -0.000045   0.000125  -0.000008  -0.000011  -0.000102
  165  H 30  S   -0.000049  -0.000019  -0.000045   0.000003  -0.000073

                      6          7          8          9         10
                  -20.4075   -15.4964   -11.2957   -11.2950   -11.2443
                     A          A          A          A          A   
    1  C  1  S   -0.000036  -0.000519  -0.000563  -0.003093  -0.008703
    2  C  1  S    0.000369  -0.002148  -0.000716  -0.003875  -0.003083
    3  C  1  X   -0.001203  -0.001216   0.000363   0.000027  -0.001136
    4  C  1  Y    0.000042   0.000109  -0.000140  -0.000498  -0.000678
    5  C  1  Z   -0.000026  -0.000259  -0.000776  -0.000057  -0.000273
    6  C  1  S    0.005249   0.018292   0.005202   0.026755   0.005351
    7  C  1  X   -0.000241  -0.011596  -0.007633   0.010495   0.005793
    8  C  1  Y   -0.000642  -0.000205   0.001047  -0.012462   0.001019
    9  C  1  Z   -0.003053  -0.003679   0.003516  -0.004057   0.001698
   10  C  2  S    0.000028   0.000063   0.000109  -0.003539  -0.007706
   11  C  2  S    0.000116  -0.000048   0.000141  -0.002302  -0.003773
   12  C  2  X    0.000034   0.000679  -0.000108   0.000479   0.000782
   13  C  2  Y    0.000041   0.000273  -0.000013   0.001167  -0.000027
   14  C  2  Z   -0.000040   0.000052   0.000126   0.000005   0.000207
   15  C  2  S   -0.001373  -0.002783   0.000317   0.004928   0.026237
   16  C  2  X    0.000343  -0.000948   0.000827   0.002771   0.016335
   17  C  2  Y    0.001099   0.001150  -0.001467  -0.001703   0.000358
   18  C  2  Z    0.000465  -0.000369  -0.001379  -0.000584   0.003563
   19  C  3  S   -0.000015  -0.000195  -0.000663   0.000962   0.985616
   20  C  3  S   -0.000097  -0.001238  -0.000405   0.001382   0.106244
   21  C  3  X    0.000011   0.000383   0.000236  -0.000123  -0.000490
   22  C  3  Y    0.000070   0.000350   0.000078   0.000540  -0.000554
   23  C  3  Z   -0.000004   0.000016  -0.000098  -0.000135  -0.000702
   24  C  3  S    0.000265   0.004329   0.000948  -0.009348  -0.101074
   25  C  3  X    0.000017  -0.002405  -0.001282   0.002673   0.005986
   26  C  3  Y   -0.000571  -0.002962  -0.000838   0.002983   0.011028
   27  C  3  Z    0.000016  -0.000262   0.000857   0.004770   0.009691
   28  C  4  S    0.000007   0.000070   0.000399  -0.006204  -0.063576
   29  C  4  S   -0.000007   0.000289   0.000261  -0.003820  -0.010646
   30  C  4  X    0.000131   0.000216  -0.000170   0.002076  -0.000009
   31  C  4  Y    0.000012  -0.000098  -0.000064   0.000579   0.000300
   32  C  4  Z    0.000056   0.000095  -0.000019   0.000643   0.000064
   33  C  4  S   -0.000610  -0.002866  -0.000416   0.008255   0.034251
   34  C  4  X   -0.000553   0.000251   0.001519  -0.014279  -0.010933
   35  C  4  Y   -0.000087  -0.000333   0.000402  -0.000346   0.015249
   36  C  4  Z   -0.000565  -0.001504  -0.000147  -0.004022   0.003140
   37  C  5  S   -0.000020  -0.000053   0.000084  -0.001221  -0.038208
   38  C  5  S   -0.000111  -0.000299   0.000080  -0.001018  -0.004709
   39  C  5  X   -0.000016   0.000008   0.000029  -0.000285   0.000731
   40  C  5  Y    0.000003  -0.000022  -0.000002  -0.000187  -0.000285
   41  C  5  Z   -0.000008  -0.000029  -0.000010   0.000164  -0.000058
   42  C  5  S    0.000744   0.001417  -0.000738   0.008095   0.003037
   43  C  5  X   -0.000358  -0.000884   0.000175  -0.002756  -0.000485
   44  C  5  Y    0.000033   0.000195  -0.000141   0.001608  -0.001274
   45  C  5  Z   -0.000090   0.000182   0.000438  -0.003076   0.000999
   46  C  6  S   -0.000067  -0.000036  -0.001560  -0.000081  -0.000269
   47  C  6  S   -0.000370  -0.000465  -0.002476  -0.000110  -0.000219
   48  C  6  X    0.000139  -0.000323  -0.000132   0.000043  -0.000016
   49  C  6  Y    0.000035  -0.000066   0.000058   0.000134  -0.000006
   50  C  6  Z    0.000373  -0.000212  -0.000273  -0.000036  -0.000011
   51  C  6  S    0.007678   0.001837   0.021308   0.000837   0.001074
   52  C  6  X    0.006910  -0.001326   0.013050   0.000015   0.000409
   53  C  6  Y   -0.001255   0.000927  -0.000723  -0.000903   0.000116
   54  C  6  Z   -0.004444   0.003770   0.006623   0.000573   0.000408
   55  H  7  S   -0.000056  -0.000288  -0.000153   0.000231  -0.000097
   56  H  7  S   -0.000148  -0.000166   0.000180   0.000549   0.000622
   57  H  8  S   -0.000036  -0.000142  -0.000027   0.000155  -0.000251
   58  H  8  S    0.000041   0.000361   0.000130  -0.000054   0.002219
   59  H  9  S   -0.000107  -0.000320   0.000056  -0.000376  -0.000112
   60  H  9  S   -0.000057  -0.000248  -0.000044   0.002868   0.000333
   61  H 10  S   -0.000006  -0.000052  -0.000009   0.000026   0.000351
   62  H 10  S    0.000020   0.000076  -0.000005   0.000228   0.000220
   63  H 11  S   -0.002024   0.000710  -0.002862  -0.000767  -0.000413
   64  H 11  S   -0.001352   0.006288  -0.001356   0.000930   0.000640
   65  O 12  S    0.983807   0.000051   0.000204   0.000003  -0.000000
   66  O 12  S    0.100342   0.000207   0.001914   0.000013  -0.000033
   67  O 12  X    0.000006   0.000606   0.000451   0.000034  -0.000033
   68  O 12  Y   -0.000652  -0.000017   0.000011   0.000022  -0.000013
   69  O 12  Z   -0.004640   0.000091   0.000249   0.000009  -0.000024
   70  O 12  S   -0.057913  -0.000829  -0.005508  -0.000227  -0.000154
   71  O 12  X   -0.000192  -0.003957  -0.002422  -0.000289  -0.000079
   72  O 12  Y    0.002202   0.000413   0.000882  -0.000229   0.000091
   73  O 12  Z    0.016087   0.001027   0.005305   0.000140   0.000161
   74  O 13  S   -0.000590   0.000012  -0.000018  -0.000037   0.000036
   75  O 13  S    0.000009   0.000278  -0.000123  -0.000426  -0.000008
   76  O 13  X   -0.000062  -0.000158  -0.000032   0.000157  -0.000077
   77  O 13  Y   -0.000044  -0.000244  -0.000060   0.000324   0.000263
   78  O 13  Z    0.000049   0.000052   0.000056  -0.000018  -0.000010
   79  O 13  S   -0.000182  -0.000611   0.000802   0.001227  -0.001205
   80  O 13  X    0.000097   0.000629   0.000323  -0.000640  -0.001294
   81  O 13  Y    0.000157   0.000886  -0.000075  -0.001420  -0.000217
   82  O 13  Z   -0.000115  -0.000071  -0.000230   0.000033   0.000041
   83  O 14  S    0.000079  -0.000017  -0.000015  -0.000032  -0.000272
   84  O 14  S   -0.000022  -0.000226  -0.000132  -0.000289  -0.000989
   85  O 14  X   -0.000008   0.000005   0.000005   0.000031  -0.000247
   86  O 14  Y    0.000001   0.000049   0.000037   0.000167  -0.000311
   87  O 14  Z   -0.000013  -0.000046   0.000000   0.000160   0.000569
   88  O 14  S    0.000150   0.000952   0.000602   0.000958   0.010057
   89  O 14  X    0.000001  -0.000066  -0.000067  -0.000406  -0.002161
   90  O 14  Y   -0.000031  -0.000337  -0.000304  -0.000999  -0.004645
   91  O 14  Z    0.000073   0.000308   0.000038  -0.000722  -0.000494
   92  O 15  S    0.000086   0.000023   0.000012  -0.000281  -0.000043
   93  O 15  S   -0.000046   0.000368   0.000094  -0.001180  -0.000223
   94  O 15  X   -0.000048  -0.000213   0.000062   0.000092   0.000090
   95  O 15  Y    0.000048   0.000240   0.000025  -0.000269   0.000144
   96  O 15  Z    0.000040   0.000070   0.000013   0.000402  -0.000026
   97  O 15  S    0.000406  -0.000764  -0.000537   0.011217   0.001672
   98  O 15  X    0.000205   0.000891  -0.000434  -0.000266  -0.000100
   99  O 15  Y   -0.000122  -0.000967  -0.000141   0.002084  -0.000087
  100  O 15  Z    0.000040  -0.000418  -0.000277   0.004834   0.000959
  101  O 16  S   -0.000069   0.000001  -0.000004   0.000019  -0.000021
  102  O 16  S    0.000012   0.000012  -0.000030   0.000143  -0.000295
  103  O 16  X   -0.000006  -0.000027  -0.000002   0.000043   0.000335
  104  O 16  Y   -0.000000  -0.000003  -0.000006   0.000051  -0.000088
  105  O 16  Z   -0.000001  -0.000013   0.000001  -0.000038   0.000089
  106  O 16  S   -0.000068  -0.000002   0.000136  -0.000750   0.000397
  107  O 16  X    0.000048   0.000138  -0.000016   0.000010  -0.001292
  108  O 16  Y   -0.000018   0.000014   0.000070  -0.000483   0.000371
  109  O 16  Z   -0.000008   0.000045   0.000008   0.000062  -0.000521
  110  C 17  S    0.000160  -0.000239   0.986761   0.006036   0.000612
  111  C 17  S    0.001643  -0.001087   0.095239   0.000449  -0.000160
  112  C 17  X   -0.000406   0.000880   0.000011  -0.000047  -0.000264
  113  C 17  Y    0.000256  -0.000037   0.000033  -0.000365  -0.000025
  114  C 17  Z    0.001780   0.000016   0.000103  -0.000061  -0.000111
  115  C 17  S    0.014868   0.019007  -0.049660   0.001189   0.000870
  116  C 17  X    0.004363   0.016311   0.012110   0.001977   0.001797
  117  C 17  Y    0.003825  -0.002493   0.001446   0.001294  -0.000330
  118  C 17  Z    0.029582  -0.008153   0.017606  -0.000257   0.000175
  119  C 18  S    0.000037  -0.000067  -0.006117   0.988008  -0.000932
  120  C 18  S    0.000135  -0.000826  -0.000828   0.102902   0.001053
  121  C 18  X    0.000178   0.000754  -0.000295   0.000852   0.000078
  122  C 18  Y   -0.000012  -0.000394  -0.000086   0.001673   0.000085
  123  C 18  Z   -0.000090  -0.000106   0.000051  -0.000405  -0.000596
  124  C 18  S   -0.001659   0.000473   0.002740  -0.081083  -0.004956
  125  C 18  X    0.000018   0.000552   0.001883   0.002660  -0.001827
  126  C 18  Y   -0.001473   0.000399   0.002473  -0.014269  -0.003520
  127  C 18  Z    0.000521   0.000229  -0.000591  -0.000260   0.002021
  128  O 19  S    0.000235  -0.000016   0.000012  -0.000158  -0.000010
  129  O 19  S   -0.000055  -0.000238   0.000079  -0.000291  -0.000556
  130  O 19  X   -0.000001   0.000086   0.000002  -0.000595  -0.000066
  131  O 19  Y   -0.000044  -0.000090  -0.000028   0.000035  -0.000430
  132  O 19  Z    0.000008  -0.000068  -0.000060  -0.000459   0.000132
  133  O 19  S    0.000278   0.000675  -0.000520   0.006722   0.000071
  134  O 19  X   -0.000063  -0.000038   0.000470  -0.003766  -0.000568
  135  O 19  Y    0.000228   0.000537   0.000192  -0.000819  -0.000430
  136  O 19  Z   -0.000067   0.000247   0.000358   0.000344  -0.000514
  137  N 20  S    0.000014   0.986183   0.000084  -0.000007  -0.000079
  138  N 20  S    0.000073   0.103505   0.000367  -0.000725  -0.000835
  139  N 20  X    0.001204   0.000069   0.000900  -0.000821  -0.000419
  140  N 20  Y    0.000073   0.000333   0.000151   0.000475  -0.000215
  141  N 20  Z    0.000902   0.001459   0.001091   0.000016  -0.000026
  142  N 20  S    0.001990  -0.072145   0.004092  -0.000413   0.002576
  143  N 20  X   -0.007714   0.000731  -0.006171   0.001774   0.002781
  144  N 20  Y   -0.000619  -0.002155  -0.001135  -0.000726   0.000712
  145  N 20  Z   -0.007255  -0.010184  -0.008601  -0.000512   0.000131
  146  H 21  S   -0.000462  -0.001464  -0.001326  -0.001629  -0.000349
  147  H 21  S    0.000740  -0.002002  -0.002639   0.001296  -0.002137
  148  H 22  S    0.000182   0.000286  -0.000148  -0.000557  -0.001889
  149  H 22  S    0.000149  -0.000579  -0.000527  -0.000952   0.000206
  150  H 23  S   -0.000050  -0.000628  -0.000325   0.000267   0.001229
  151  H 23  S    0.000030   0.000377  -0.000168  -0.001550   0.013470
  152  H 24  S    0.000007  -0.000011   0.000193  -0.000353  -0.000160
  153  H 24  S   -0.000646  -0.000210   0.001037   0.011575  -0.001326
  154  H 25  S   -0.000068  -0.000061   0.000065  -0.001602  -0.002201
  155  H 25  S   -0.000102  -0.000277  -0.000148  -0.001816  -0.000354
  156  H 26  S   -0.000034  -0.000109   0.000039  -0.000556  -0.000094
  157  H 26  S   -0.000005   0.000080   0.000129  -0.000725   0.000293
  158  H 27  S   -0.000043  -0.000109   0.000009  -0.000070   0.000033
  159  H 27  S   -0.000030  -0.000267  -0.000164   0.000734  -0.002199
  160  H 28  S    0.000700  -0.000794  -0.001068  -0.000117  -0.000084
  161  H 28  S    0.002210  -0.000253   0.001688  -0.000115   0.000022
  162  H 29  S   -0.000484   0.000255  -0.001615   0.000120  -0.000040
  163  H 29  S   -0.000889  -0.000252   0.002578   0.000300  -0.000082
  164  H 30  S   -0.000881   0.000470  -0.001592  -0.000064  -0.000032
  165  H 30  S   -0.001405   0.000261   0.001700  -0.000356   0.000030

                     11         12         13         14         15
                  -11.2407   -11.2402   -11.2272   -11.2141   -11.1746
                     A          A          A          A          A   
    1  C  1  S    0.001335   0.001258  -0.009911   0.988508   0.001638
    2  C  1  S    0.001156   0.001166  -0.003699   0.108434  -0.000881
    3  C  1  X    0.000026  -0.000113   0.000574   0.000368   0.000338
    4  C  1  Y    0.000543   0.000092   0.000547  -0.000119   0.000004
    5  C  1  Z   -0.000005  -0.000082  -0.000080  -0.001160  -0.000185
    6  C  1  S   -0.006710  -0.008283   0.023964  -0.107082   0.004507
    7  C  1  X   -0.004055  -0.003156   0.006527  -0.007353  -0.004105
    8  C  1  Y   -0.001114  -0.000010   0.015300   0.000601   0.000263
    9  C  1  Z    0.002488   0.003093  -0.002123   0.012161  -0.000338
   10  C  2  S   -0.007572  -0.011962   0.988201   0.008857  -0.000105
   11  C  2  S   -0.001441  -0.003111   0.106395  -0.002162   0.000186
   12  C  2  X   -0.000659  -0.000423   0.000819  -0.000335  -0.000103
   13  C  2  Y   -0.000116   0.000115  -0.001128  -0.000536   0.000007
   14  C  2  Z   -0.000133  -0.000038   0.000878   0.000291   0.000045
   15  C  2  S    0.002882   0.010747  -0.098347   0.025964  -0.000584
   16  C  2  X   -0.002085   0.002854  -0.006659  -0.011293   0.001239
   17  C  2  Y   -0.000137  -0.002883   0.011389  -0.014457  -0.000157
   18  C  2  Z    0.000695   0.001404  -0.009004   0.001290  -0.000399
   19  C  3  S    0.050549   0.052594   0.007549   0.008202   0.000227
   20  C  3  S    0.001729   0.003562  -0.002381  -0.001271  -0.000156
   21  C  3  X    0.000601  -0.000997  -0.000415   0.000970   0.000122
   22  C  3  Y   -0.000424   0.000370  -0.000191   0.000410   0.000076
   23  C  3  Z    0.000148  -0.000397  -0.000351  -0.000059  -0.000083
   24  C  3  S    0.024853   0.002626   0.027367   0.005498   0.000249
   25  C  3  X    0.007022   0.007308  -0.017034  -0.003102  -0.000482
   26  C  3  Y   -0.014189  -0.003940   0.001070  -0.002139  -0.000774
   27  C  3  Z   -0.005211   0.000667  -0.003244   0.000117   0.000776
   28  C  4  S    0.954592   0.248197   0.009681  -0.001676  -0.000070
   29  C  4  S    0.103486   0.024514   0.000053   0.000587   0.000087
   30  C  4  X   -0.000726  -0.000590   0.000836  -0.000427  -0.000034
   31  C  4  Y    0.000101   0.000021  -0.000842  -0.000103  -0.000027
   32  C  4  Z    0.000690  -0.000053   0.000550  -0.000399   0.000018
   33  C  4  S   -0.101087  -0.002558  -0.000559  -0.002029  -0.000364
   34  C  4  X   -0.003549   0.014841  -0.003767   0.005037   0.000544
   35  C  4  Y   -0.006401  -0.003786   0.001747  -0.000340   0.000213
   36  C  4  Z   -0.008455   0.004255  -0.003430   0.001578  -0.000399
   37  C  5  S   -0.251624   0.954338   0.008910  -0.000888  -0.000005
   38  C  5  S   -0.028723   0.097807  -0.000424   0.000290   0.000003
   39  C  5  X   -0.000237  -0.000602   0.000234   0.000058   0.000006
   40  C  5  Y    0.000129   0.000542  -0.000254  -0.000077   0.000007
   41  C  5  Z   -0.000028   0.000025  -0.000054   0.000032  -0.000008
   42  C  5  S    0.044022  -0.073340   0.004983  -0.003143  -0.000093
   43  C  5  X   -0.015796   0.006702  -0.003694   0.001320  -0.000051
   44  C  5  Y    0.002438  -0.003821   0.001489   0.000219  -0.000107
   45  C  5  Z   -0.004654   0.000720   0.000035   0.000800   0.000194
   46  C  6  S    0.000084   0.000024   0.000179  -0.001990   0.987559
   47  C  6  S    0.000100   0.000061   0.000127  -0.001246   0.102192
   48  C  6  X   -0.000037  -0.000053  -0.000016   0.000107   0.000252
   49  C  6  Y    0.000001  -0.000003  -0.000094  -0.000001   0.000025
   50  C  6  Z   -0.000012  -0.000013   0.000001   0.000054  -0.000065
   51  C  6  S   -0.000814  -0.000712  -0.000714   0.006797  -0.084107
   52  C  6  X   -0.000352  -0.000298  -0.000287   0.002268  -0.005526
   53  C  6  Y    0.000012   0.000062   0.000566   0.000170  -0.000421
   54  C  6  Z   -0.000187  -0.000141  -0.000106   0.002385  -0.004292
   55  H  7  S   -0.000485  -0.000142  -0.000041   0.000257  -0.000044
   56  H  7  S    0.001228   0.000515   0.002000   0.001433   0.000078
   57  H  8  S   -0.000128   0.000495   0.000427   0.000223  -0.000034
   58  H  8  S   -0.000094  -0.001628   0.000643   0.000726   0.000089
   59  H  9  S    0.000289   0.000170   0.000001   0.001053  -0.000011
   60  H  9  S   -0.000892  -0.000557  -0.000307   0.001441  -0.000055
   61  H 10  S    0.000227  -0.000159  -0.000087  -0.000045  -0.000005
   62  H 10  S    0.000622   0.002175   0.000536  -0.000045  -0.000001
   63  H 11  S   -0.000213  -0.000268  -0.000051  -0.001982  -0.000401
   64  H 11  S   -0.000101   0.000012  -0.000686   0.000242   0.000871
   65  O 12  S   -0.000007  -0.000009  -0.000007   0.000087   0.000029
   66  O 12  S   -0.000056  -0.000072  -0.000027   0.000778   0.000011
   67  O 12  X    0.000010   0.000016   0.000080   0.000464  -0.000170
   68  O 12  Y   -0.000005  -0.000007   0.000033  -0.000062   0.000023
   69  O 12  Z   -0.000001  -0.000001  -0.000001   0.000062   0.000187
   70  O 12  S    0.000371   0.000425   0.000379  -0.003147  -0.000793
   71  O 12  X    0.000026  -0.000020  -0.000146  -0.002876   0.002325
   72  O 12  Y   -0.000004   0.000014  -0.000018   0.000409  -0.000074
   73  O 12  Z   -0.000079  -0.000090  -0.000114   0.000625   0.000464
   74  O 13  S    0.000001   0.000001  -0.000228   0.000052  -0.000013
   75  O 13  S   -0.000067  -0.000074  -0.000735   0.000173  -0.000102
   76  O 13  X   -0.000279  -0.000077   0.000375  -0.000049   0.000001
   77  O 13  Y    0.000082   0.000048  -0.000325   0.000378  -0.000002
   78  O 13  Z   -0.000088   0.000020  -0.000454  -0.000058   0.000022
   79  O 13  S   -0.000592  -0.000041   0.009276  -0.001573   0.000513
   80  O 13  X    0.000962   0.000082   0.001387   0.000440   0.000043
   81  O 13  Y   -0.000010   0.000064  -0.004038   0.000163  -0.000194
   82  O 13  Z    0.000405  -0.000108   0.000413   0.000342  -0.000130
   83  O 14  S   -0.000004   0.000028   0.000044  -0.000047  -0.000011
   84  O 14  S   -0.000322   0.000264   0.000067  -0.000495  -0.000091
   85  O 14  X   -0.000026   0.000108   0.000280   0.000329  -0.000006
   86  O 14  Y    0.000256  -0.000248   0.000283   0.000157   0.000022
   87  O 14  Z   -0.000006   0.000024   0.000130   0.000117  -0.000004
   88  O 14  S    0.000252  -0.000409  -0.001414   0.001494   0.000459
   89  O 14  X   -0.000154  -0.000699   0.000351  -0.001385  -0.000043
   90  O 14  Y    0.000474   0.001388  -0.000339  -0.000814  -0.000216
   91  O 14  Z    0.000272  -0.000191  -0.000656  -0.000376   0.000048
   92  O 15  S    0.000123   0.000067   0.000102   0.000088   0.000006
   93  O 15  S    0.000959   0.000499   0.000836   0.000289   0.000054
   94  O 15  X    0.000172   0.000070  -0.000060   0.000464   0.000021
   95  O 15  Y    0.000150   0.000089   0.000116  -0.000666   0.000038
   96  O 15  Z    0.000114   0.000079   0.000101  -0.000493   0.000006
   97  O 15  S   -0.004089  -0.002334  -0.003329  -0.003534  -0.000182
   98  O 15  X   -0.001236  -0.000554   0.000157  -0.001664  -0.000117
   99  O 15  Y   -0.001078  -0.000633  -0.001085   0.001842  -0.000170
  100  O 15  Z   -0.002096  -0.001358  -0.001575  -0.000305  -0.000079
  101  O 16  S    0.000104  -0.000164  -0.000013  -0.000013  -0.000001
  102  O 16  S    0.000324  -0.000370  -0.000139  -0.000098  -0.000005
  103  O 16  X    0.000337  -0.000007   0.000045  -0.000003  -0.000005
  104  O 16  Y   -0.000281   0.000408  -0.000048   0.000004  -0.000003
  105  O 16  Z   -0.000174   0.000470  -0.000018  -0.000022   0.000002
  106  O 16  S   -0.003764   0.006830   0.000532   0.000465   0.000028
  107  O 16  X    0.000719  -0.002275  -0.000107  -0.000100   0.000018
  108  O 16  Y   -0.000619   0.001836   0.000258   0.000115   0.000027
  109  O 16  Z   -0.000224   0.000471   0.000158   0.000159  -0.000008
  110  C 17  S   -0.000266  -0.000110  -0.000061   0.000396   0.000902
  111  C 17  S    0.000072   0.000029   0.000041  -0.000278  -0.002019
  112  C 17  X    0.000223   0.000178   0.000139  -0.000879   0.000395
  113  C 17  Y   -0.000022  -0.000024   0.000237  -0.000054   0.000034
  114  C 17  Z   -0.000007  -0.000021   0.000106  -0.000506   0.000264
  115  C 17  S    0.000608   0.000808   0.000133   0.003761   0.020015
  116  C 17  X   -0.000601  -0.000342  -0.000510   0.010559  -0.015403
  117  C 17  Y   -0.000058  -0.000179  -0.000739  -0.000669   0.000450
  118  C 17  Z   -0.000834  -0.000968  -0.000666   0.001433  -0.005878
  119  C 18  S    0.004781   0.002041   0.003050   0.001819   0.000064
  120  C 18  S   -0.002722  -0.001902  -0.002068  -0.003925  -0.000017
  121  C 18  X   -0.001024  -0.000253   0.000301  -0.000802  -0.000048
  122  C 18  Y   -0.001041  -0.000506  -0.001595   0.000626  -0.000072
  123  C 18  Z    0.000448   0.000282   0.000401   0.000382   0.000055
  124  C 18  S    0.009680   0.008667   0.005614   0.031331   0.000280
  125  C 18  X    0.006136   0.003126  -0.000335  -0.006031   0.001048
  126  C 18  Y    0.007118   0.005269   0.005930   0.015121   0.000599
  127  C 18  Z   -0.003581  -0.001629  -0.002796   0.001427  -0.000183
  128  O 19  S   -0.000212   0.000014   0.000074   0.000043  -0.000001
  129  O 19  S   -0.000452   0.000102   0.000723   0.000056  -0.000016
  130  O 19  X    0.000155  -0.000626  -0.000175   0.000146   0.000009
  131  O 19  Y    0.000532   0.000033   0.000380  -0.000028  -0.000037
  132  O 19  Z   -0.000675  -0.000300  -0.000088   0.000045  -0.000036
  133  O 19  S    0.008084  -0.000341  -0.001795  -0.001268  -0.000047
  134  O 19  X    0.004914   0.002812   0.001304   0.001467   0.000159
  135  O 19  Y    0.003651   0.000679  -0.001896  -0.000402   0.000218
  136  O 19  Z    0.001335   0.000998   0.000886  -0.000003   0.000185
  137  N 20  S   -0.000007  -0.000033   0.000028  -0.000231   0.000018
  138  N 20  S   -0.000032  -0.000251  -0.000310  -0.000821  -0.000380
  139  N 20  X   -0.000134  -0.000210  -0.000327  -0.000366   0.000945
  140  N 20  Y    0.000064  -0.000016  -0.000199   0.000133  -0.000098
  141  N 20  Z    0.000103   0.000093   0.000017   0.000842   0.000067
  142  N 20  S   -0.000083   0.000837  -0.000546   0.011884  -0.000678
  143  N 20  X    0.000908   0.001746  -0.000547   0.012468  -0.003629
  144  N 20  Y   -0.000129   0.000061  -0.000979  -0.000712   0.000307
  145  N 20  Z   -0.000690  -0.000532  -0.000324  -0.003247   0.000271
  146  H 21  S    0.000193   0.000134  -0.001961   0.001184  -0.000612
  147  H 21  S   -0.000674  -0.000622   0.000556   0.012666   0.000331
  148  H 22  S    0.000108  -0.000683   0.001099  -0.002058   0.000007
  149  H 22  S   -0.000865  -0.000302   0.013938   0.000051  -0.000135
  150  H 23  S   -0.001799  -0.000832  -0.002030  -0.000591  -0.000168
  151  H 23  S    0.002341   0.000305  -0.000122  -0.000991  -0.000286
  152  H 24  S    0.000329   0.000040  -0.000049  -0.001407   0.000144
  153  H 24  S    0.003326   0.001724   0.003371   0.001196   0.000319
  154  H 25  S    0.001411  -0.000947  -0.000444   0.000622  -0.000009
  155  H 25  S    0.013844   0.005256  -0.002084   0.000341  -0.000174
  156  H 26  S   -0.001414   0.000084  -0.000615   0.000076   0.000016
  157  H 26  S   -0.003066   0.015155   0.000505  -0.000029   0.000076
  158  H 27  S   -0.001731   0.000097  -0.000493   0.000136  -0.000014
  159  H 27  S   -0.003034   0.014326  -0.000227  -0.000027  -0.000094
  160  H 28  S    0.000029   0.000018   0.000026  -0.000458   0.000441
  161  H 28  S    0.000030   0.000053   0.000009  -0.000149   0.014447
  162  H 29  S    0.000042   0.000034  -0.000050  -0.000230   0.000382
  163  H 29  S   -0.000010  -0.000038  -0.000109  -0.000265   0.014279
  164  H 30  S    0.000038   0.000035   0.000097  -0.000230   0.000290
  165  H 30  S    0.000011   0.000030   0.000241  -0.000038   0.013932

                     16         17         18         19         20
[...]
             47  C  6  S      0.35255     0.41973
             48  C  6  X      0.53663     0.51601
             49  C  6  Y      0.54756     0.51372
             50  C  6  Z      0.55276     0.52291
             51  C  6  S      1.15688     0.58919
             52  C  6  X      0.42284     0.56735
             53  C  6  Y      0.58129     0.61426
             54  C  6  Z      0.54040     0.59601
             55  H  7  S      0.40379     0.42097
             56  H  7  S      0.21191     0.32553
             57  H  8  S      0.41250     0.42838
             58  H  8  S      0.20485     0.31807
             59  H  9  S      0.40401     0.42176
             60  H  9  S      0.20166     0.31447
             61  H 10  S      0.41438     0.43080
             62  H 10  S      0.21184     0.32050
             63  H 11  S      0.42682     0.43952
             64  H 11  S      0.20088     0.34081
             65  O 12  S      1.98716     1.98160
             66  O 12  S      0.42519     0.58464
             67  O 12  X      0.82804     0.83001
             68  O 12  Y      0.60885     0.60541
             69  O 12  Z      0.62855     0.61888
             70  O 12  S      1.56227     1.05578
             71  O 12  X      0.97755     1.01862
             72  O 12  Y      0.84542     0.85534
             73  O 12  Z      0.77020     0.81432
             74  O 13  S      1.98621     1.98050
             75  O 13  S      0.41470     0.57476
             76  O 13  X      0.70453     0.70258
             77  O 13  Y      0.54511     0.52670
             78  O 13  Z      0.82668     0.83571
             79  O 13  S      1.52708     1.04746
             80  O 13  X      0.93260     0.93736
             81  O 13  Y      0.70176     0.74745
             82  O 13  Z      1.03229     1.04148
             83  O 14  S      1.98606     1.98040
             84  O 14  S      0.41374     0.57367
             85  O 14  X      0.69054     0.68450
             86  O 14  Y      0.65672     0.65369
             87  O 14  Z      0.72728     0.72563
             88  O 14  S      1.51885     1.05095
             89  O 14  X      0.86955     0.88107
             90  O 14  Y      0.86550     0.89182
             91  O 14  Z      0.94497     0.95680
             92  O 15  S      1.98608     1.98036
             93  O 15  S      0.41255     0.57299
             94  O 15  X      0.78947     0.79346
             95  O 15  Y      0.70533     0.69998
             96  O 15  Z      0.58776     0.58002
             97  O 15  S      1.51708     1.04869
             98  O 15  X      1.00334     0.99887
             99  O 15  Y      0.90658     0.90956
            100  O 15  Z      0.78437     0.82739
            101  O 16  S      1.98594     1.98046
            102  O 16  S      0.41622     0.57442
            103  O 16  X      0.63363     0.61999
            104  O 16  Y      0.71156     0.71180
            105  O 16  Z      0.72952     0.73093
            106  O 16  S      1.51224     1.05489
            107  O 16  X      0.79693     0.81532
            108  O 16  Y      0.90993     0.93270
            109  O 16  Z      0.95913     0.97004
            110  C 17  S      1.98706     1.97612
            111  C 17  S      0.42550     0.42796
            112  C 17  X      0.55626     0.53282
            113  C 17  Y      0.33194     0.31706
            114  C 17  Z      0.61149     0.58191
            115  C 17  S      0.56979     0.50603
            116  C 17  X      0.22796     0.45629
            117  C 17  Y      0.41922     0.46374
            118  C 17  Z      0.03361     0.41008
            119  C 18  S      1.98904     1.97519
            120  C 18  S      0.37273     0.42833
            121  C 18  X      0.45393     0.44338
            122  C 18  Y      0.59729     0.57517
            123  C 18  Z      0.42039     0.40539
            124  C 18  S      0.86499     0.55251
            125  C 18  X      0.24773     0.42251
            126  C 18  Y      0.45695     0.54357
            127  C 18  Z      0.19298     0.40867
            128  O 19  S      1.98662     1.98067
            129  O 19  S      0.41176     0.57618
            130  O 19  X      0.58131     0.57486
            131  O 19  Y      0.70188     0.70489
            132  O 19  Z      0.78313     0.78912
            133  O 19  S      1.52854     1.01849
            134  O 19  X      0.75666     0.79111
            135  O 19  Y      0.90456     0.92019
            136  O 19  Z      0.98703     0.99529
            137  N 20  S      1.98799     1.97749
            138  N 20  S      0.34965     0.46446
            139  N 20  X      0.55484     0.54899
            140  N 20  Y      0.73948     0.75742
            141  N 20  Z      0.57303     0.55808
            142  N 20  S      1.32591     0.72337
            143  N 20  X      0.60620     0.65563
            144  N 20  Y      1.02013     0.96785
            145  N 20  Z      0.72812     0.67715
            146  H 21  S      0.45890     0.47309
            147  H 21  S      0.24275     0.40163
            148  H 22  S      0.47382     0.48839
            149  H 22  S      0.29300     0.42958
            150  H 23  S      0.47246     0.48659
            151  H 23  S      0.29837     0.43278
            152  H 24  S      0.48616     0.49577
            153  H 24  S      0.27162     0.42302
            154  H 25  S      0.47101     0.48388
            155  H 25  S      0.26428     0.41610
            156  H 26  S      0.48079     0.48809
            157  H 26  S      0.34443     0.45315
            158  H 27  S      0.47650     0.48183
            159  H 27  S      0.31548     0.44022
            160  H 28  S      0.46156     0.46099
            161  H 28  S      0.28661     0.41986
            162  H 29  S      0.45736     0.45684
            163  H 29  S      0.30006     0.42440
            164  H 30  S      0.46131     0.46092
            165  H 30  S      0.31884     0.43345

          ----- MULLIKEN ATOMIC OVERLAP POPULATIONS -----
          (OFF-DIAGONAL ELEMENTS NEED TO BE MULTIPLIED BY 2)

             1           2           3           4           5

    1    5.6457487
    2    0.1848801   5.2904454
    3   -0.1003603   0.1752435   5.6244970
    4    0.0057669  -0.0679368   0.0358152   5.5539167
    5   -0.0004127   0.0030631  -0.0682873   0.2315785   5.0902973
    6    0.0034235  -0.0000654   0.0000006  -0.0000000  -0.0000000
    7    0.0069875  -0.0607386  -0.0072905   0.0006945  -0.0000073
    8   -0.0001683   0.0049087  -0.0441247   0.0003958   0.0011273
    9    0.0071076  -0.0003615   0.0000934   0.0005963  -0.0000287
   10   -0.0000001   0.0000010  -0.0001609   0.0058837  -0.0446272
   11   -0.0401981   0.0010083  -0.0000235   0.0000097   0.0000000
   12   -0.0048054  -0.0000105  -0.0000002  -0.0000001  -0.0000000
   13   -0.0375775   0.2432177  -0.0435065   0.0018503  -0.0000117
   14    0.0016876  -0.0425320   0.1959638  -0.0337895  -0.0015111
   15   -0.0698471   0.0026863  -0.0016702   0.0001447   0.0000668
   16    0.0000002  -0.0000096   0.0013543  -0.0426354   0.2384901
   17   -0.0571227   0.0014047   0.0000076  -0.0000050  -0.0000000
   18    0.1459657  -0.1011288   0.0171198  -0.0956247   0.0040287
   19   -0.0418659   0.0008309  -0.0412672   0.1916824  -0.0328318
   20    0.1543319  -0.0502193   0.0031517  -0.0001046   0.0000006
   21    0.3681428  -0.0347234  -0.0025526   0.0007752  -0.0000239
   22   -0.0538645   0.3683414  -0.0624760   0.0013577  -0.0001090
   23    0.0003220  -0.0497183   0.3628420  -0.0561661  -0.0036145
   24   -0.0542581   0.0040111  -0.0004512   0.0038979  -0.0000339
   25    0.0004030  -0.0028982  -0.0536623   0.3607334  -0.0414603
   26    0.0000045   0.0000948   0.0062397  -0.0722047   0.3509246
   27    0.0000328  -0.0001441   0.0009011  -0.0520967   0.3496899
   28   -0.0000660   0.0000004  -0.0000000   0.0000000  -0.0000000
   29   -0.0001317   0.0000164  -0.0000000   0.0000000   0.0000000
   30   -0.0000755  -0.0000008  -0.0000000   0.0000000   0.0000000

             6           7           8           9          10

    6    5.5831828
    7    0.0000002   0.3965925
    8    0.0000000  -0.0009310   0.3980328
    9    0.0000003  -0.0000001  -0.0000000   0.3799430
   10   -0.0000000  -0.0000000   0.0000009  -0.0000001   0.4082861
   11   -0.0021386   0.0000036   0.0000000  -0.0003267  -0.0000000
   12   -0.0753932   0.0000026  -0.0000000   0.0000000  -0.0000000
   13   -0.0000027   0.2628169  -0.0000133   0.0000001  -0.0000000
   14   -0.0000000   0.0190244   0.2625646  -0.0000002   0.0000008
   15   -0.0000038   0.0000014  -0.0000001   0.2625853  -0.0000000
   16    0.0000000   0.0000000  -0.0000039   0.0000027   0.2614065
   17    0.2088545  -0.0000254  -0.0000000  -0.0000006  -0.0000000
   18   -0.0000420  -0.0002392   0.0000067  -0.0423262   0.0000049
   19    0.0000000  -0.0000009  -0.0000084   0.0018863  -0.0000437
   20   -0.1171642  -0.0001263   0.0000003  -0.0001153   0.0000000
   21    0.0006608  -0.0000121   0.0000006  -0.0000763  -0.0000000
   22   -0.0000099  -0.0009271  -0.0001774  -0.0001184  -0.0000000
   23   -0.0000001  -0.0001251  -0.0054527   0.0000014   0.0000008
   24   -0.0000017   0.0000013  -0.0000001  -0.0027549   0.0000000
   25   -0.0000000   0.0000040  -0.0002357  -0.0004321  -0.0000919
   26   -0.0000000  -0.0000030   0.0014938   0.0000004  -0.0007253
   27    0.0000000   0.0000000  -0.0000638  -0.0000004  -0.0037124
   28    0.3598944   0.0000000  -0.0000000   0.0000000  -0.0000000
   29    0.3613166  -0.0000001  -0.0000000  -0.0000000  -0.0000000
   30    0.3568739   0.0000000  -0.0000000  -0.0000000   0.0000000

            11          12          13          14          15

   11    0.3415085
   12    0.0010760   8.2061577
   13   -0.0000195  -0.0000398   8.2708690
   14    0.0000000   0.0000000  -0.0029119   8.2925440
   15    0.0117624  -0.0000001   0.0000024   0.0000002   8.3289288
   16    0.0000000  -0.0000000   0.0000000   0.0000006  -0.0000001
   17   -0.0194656   0.5590316   0.0011711   0.0000000   0.0000893
   18   -0.0030229   0.0000804   0.0012579  -0.0000206   0.2049085
   19    0.0000483  -0.0000000  -0.0000009   0.0001960  -0.0335076
   20    0.3325502  -0.0751787   0.0002541  -0.0000015  -0.0003214
   21    0.0020022   0.0172411   0.0017674  -0.0000180   0.0011543
   22    0.0014474  -0.0000056  -0.0300837   0.0006295   0.0076874
   23   -0.0000001  -0.0000040   0.0019177  -0.0264519   0.0000014
   24    0.0002553   0.0000128  -0.0000082   0.0000004  -0.0309030
   25   -0.0000060  -0.0000000  -0.0000016   0.0021168   0.0087931
   26   -0.0000000  -0.0000000   0.0000001   0.0056723   0.0000008
   27   -0.0000000  -0.0000000   0.0000002   0.0000402   0.0000008
   28    0.0000590   0.0033389  -0.0000000   0.0000000  -0.0000000
   29    0.0003371   0.0006737   0.0000041   0.0000000   0.0000000
   30    0.0008314   0.0010522  -0.0000000   0.0000000  -0.0000012

            16          17          18          19          20

   16    8.2547649
   17   -0.0000000   4.4552850
   18   -0.0000269   0.0024405   4.9382130
   19    0.0004899  -0.0000024   0.2246351   8.4231851
   20   -0.0000000   0.1258477  -0.0469514   0.0006704   7.5806049
   21    0.0000000   0.0009863  -0.0304404   0.0007350  -0.0321490
   22    0.0000002  -0.0001040   0.0007587  -0.0001969  -0.0011971
   23   -0.0000089  -0.0000041   0.0009350   0.0023385  -0.0000271
   24    0.0000002   0.0002884   0.3818681  -0.0311675   0.0030063
   25    0.0020318   0.0000001  -0.0061007  -0.0280297   0.0000049
   26   -0.0322774   0.0000000  -0.0000937   0.0018362  -0.0000000
   27   -0.0284946   0.0000000  -0.0001865   0.0018576   0.0000000
   28    0.0000000  -0.0408530   0.0000006  -0.0000000   0.0032562
   29   -0.0000000  -0.0383231  -0.0000013  -0.0000000   0.0022537
   30   -0.0000000  -0.0366624   0.0000039  -0.0000000   0.0029736

            21          22          23          24          25

   21    0.4040295
   22    0.0027653   0.5260978
   23    0.0023391   0.0040402   0.5311603
   24   -0.0009597   0.0000310  -0.0000699   0.4849750
   25    0.0000408   0.0029197   0.0034486   0.0000497   0.4838433
   26    0.0000008   0.0000106   0.0006447   0.0000008  -0.0002744
   27    0.0000051  -0.0000007   0.0024851  -0.0000129   0.0040885
   28   -0.0000038   0.0000001   0.0000000  -0.0000002  -0.0000000
   29   -0.0000147   0.0000010   0.0000000   0.0000000   0.0000000
   30   -0.0000219   0.0000001   0.0000000  -0.0000001   0.0000000

            26          27          28          29          30

   26    0.6025874
   27   -0.0387097   0.5562929
   28    0.0000000   0.0000000   0.4574297
   29   -0.0000000   0.0000000  -0.0165456   0.4690098
   30    0.0000000  -0.0000000  -0.0183443  -0.0211749   0.4946959

          TOTAL MULLIKEN AND LOWDIN ATOMIC POPULATIONS
       ATOM         MULL.POP.    CHARGE          LOW.POP.     CHARGE
    1 C             6.064051   -0.064051         6.004950   -0.004950
    2 C             5.869666    0.130334         5.922003    0.077997
    3 C             5.997396    0.002604         5.963435    0.036565
    4 C             5.974535    0.025465         5.935212    0.064788
    5 C             6.076308   -0.076308         5.980376    0.019624
    6 C             6.679386   -0.679386         6.315633   -0.315633
    7 H             0.615702    0.384298         0.746502    0.253498
    8 H             0.617352    0.382648         0.746449    0.253551
    9 H             0.605675    0.394325         0.736225    0.263775
   10 H             0.626223    0.373777         0.751297    0.248703
   11 H             0.627698    0.372302         0.780329    0.219671
   12 O             8.633230   -0.633230         8.364613   -0.364613
   13 O             8.670952   -0.670952         8.394014   -0.394014
   14 O             8.673204   -0.673204         8.398514   -0.398514
   15 O             8.692559   -0.692559         8.411320   -0.411320
   16 O             8.655085   -0.655085         8.390563   -0.390563
   17 C             5.162839    0.837161         5.672015    0.327985
   18 C             5.596023    0.403977         5.754721    0.245279
   19 O             8.641469   -0.641469         8.350812   -0.350812
   20 N             7.885351   -0.885351         7.330446   -0.330446
   21 H             0.701650    0.298350         0.874715    0.125285
   22 H             0.766818    0.233182         0.917962    0.082038
   23 H             0.770834    0.229166         0.919372    0.080628
   24 H             0.757777    0.242223         0.918792    0.081208
   25 H             0.735285    0.264715         0.899974    0.100026
   26 H             0.825223    0.174777         0.941247    0.058753
   27 H             0.791972    0.208028         0.922053    0.077947
   28 H             0.748166    0.251834         0.880853    0.119147
   29 H             0.757421    0.242579         0.881235    0.118765
   30 H             0.780150    0.219850         0.894369    0.105631

          -------------------------------
          BOND ORDER AND VALENCE ANALYSIS     BOND ORDER THRESHOLD=0.050
          -------------------------------

                   BOND                       BOND                       BOND
  ATOM PAIR DIST  ORDER      ATOM PAIR DIST  ORDER      ATOM PAIR DIST  ORDER
    1   2  1.532  0.875        1  18  1.532  0.854        1  20  1.457  0.827
    1  21  1.092  0.872        2   3  1.529  0.875        2  13  1.448  0.888
    2  22  1.099  0.875        3   4  1.527  0.816        3  14  1.471  0.835
    3  23  1.099  0.886        4   5  1.517  0.913        4  19  1.477  0.805
    4  25  1.093  0.869        5  16  1.457  0.887        5  26  1.102  0.890
    5  27  1.099  0.888        6  17  1.528  0.872        6  28  1.091  0.909
    6  29  1.097  0.907        6  30  1.096  0.914        7  13  0.999  0.789
    8  14  0.993  0.809        9  15  0.995  0.803       10  16  0.995  0.817
   11  20  1.015  0.820       12  17  1.240  1.743       12  20  2.296  0.089
   15  18  1.450  0.848       17  20  1.376  0.918       18  19  1.446  0.853
   18  24  1.094  0.891

                       TOTAL       BONDED        FREE
      ATOM            VALENCE     VALENCE     VALENCE
    1 C                 3.393       3.393      -0.000
    2 C                 3.461       3.461      -0.000
    3 C                 3.420       3.420      -0.000
    4 C                 3.387       3.387      -0.000
    5 C                 3.560       3.560      -0.000
    6 C                 3.600       3.600      -0.000
    7 H                 0.839       0.839       0.000
    8 H                 0.828       0.828       0.000
    9 H                 0.823       0.823      -0.000
   10 H                 0.834       0.834       0.000
   11 H                 0.846       0.846       0.000
   12 O                 1.919       1.919      -0.000
   13 O                 1.749       1.749       0.000
   14 O                 1.752       1.752      -0.000
   15 O                 1.748       1.748      -0.000
   16 O                 1.748       1.748      -0.000
   17 C                 3.495       3.495       0.000
   18 C                 3.431       3.431      -0.000
   19 O                 1.771       1.771      -0.000
   20 N                 2.660       2.660      -0.000
   21 H                 0.897       0.897      -0.000
   22 H                 0.904       0.904       0.000
   23 H                 0.898       0.898       0.000
   24 H                 0.899       0.899       0.000
   25 H                 0.892       0.892       0.000
   26 H                 0.919       0.919       0.000
   27 H                 0.906       0.906       0.000
   28 H                 0.904       0.904       0.000
   29 H                 0.902       0.902       0.000
   30 H                 0.913       0.913       0.000

          ---------------------
          ELECTROSTATIC MOMENTS
          ---------------------

 POINT   1           X           Y           Z (BOHR)    CHARGE
                -0.020210    0.091722    0.005834       -0.00 (A.U.)
         DX          DY          DZ         /D/  (DEBYE)
     3.911633   -0.898002   -1.445037    4.265608
 ...... END OF PROPERTY EVALUATION ......
 CPU     0: STEP CPU TIME=     0.06 TOTAL CPU TIME=          6.1 (      0.1 MIN)
 TOTAL WALL CLOCK TIME=         19.5 SECONDS, CPU UTILIZATION IS    31.38%
               580000  WORDS OF DYNAMIC MEMORY USED
 EXECUTION OF GAMESS TERMINATED NORMALLY Thu May 21 23:10:59 2020
 DDI: 263640 bytes (0.3 MB / 0 MWords) used by master data server.
Note: The following floating-point exceptions are signalling: IEEE_DENORMALNote: The following floating-point exceptions are signalling: IEEE_DENORMALNote: The following floating-point exceptions are signalling: IEEE_DENORMAL
Note: The following floating-point exceptions are signalling: IEEE_DENORMALNote: The following floating-point exceptions are signalling: IEEE_DENORMAL


 ----------------------------------------
 CPU timing information for all processes
 ========================================
 0: 5.875 + 0.241 = 6.117
 1: 5.918 + 0.72 = 5.990
 2: 5.634 + 0.94 = 5.728
 3: 5.511 + 0.85 = 5.597
 4: 5.537 + 0.72 = 5.609
 5: 5.298 + 0.79 = 5.378
 6: 5.547 + 0.112 = 5.660
 7: 5.16 + 0.60 = 5.76
 ----------------------------------------
Note: The following floating-point exceptions are signalling:

 IEEE_DENORMAL
Note: The following floating-point exceptions are signalling: IEEE_DENORMAL
Note: The following floating-point exceptions are signalling: IEEE_DENORMAL
 ddikick.x: exited gracefully.
unset echo
----- accounting info -----
Files used on the master node pietdev were:
-rwxr-xr-x 1 piet piet     1737 mei 21 23:10 /home/piet/scr/beta-d-acetylglucosamine_fukui_neu.F05*
-rw-r--r-- 1 piet piet 49152000 mei 21 23:11 /home/piet/scr/beta-d-acetylglucosamine_fukui_neu.F10
ls: No match.
ls: No match.
ls: No match.
do 21 mei 2020 23:11:02 CEST
0.187u 0.039s 0:22.99 0.9%	0+0k 0+8io 0pf+0w
