----- GAMESS execution script 'rungms' -----
This job is running on host pietdev
under operating system Linux at do 21 mei 2020 23:10:39 CEST
Available scratch disk space (Kbyte units) at beginning of the job is
Filesystem     1K-blocks     Used Available Use% Mounted on
/dev/sda2      244568380 30781944 201293380  14% /
GAMESS temporary binary files will be written to /home/piet/scr
GAMESS supplementary output files will be written to /home/piet/gamess/scr
Copying input file beta-d-acetylglucosamine_fukui_acid.inp to your run's scratch directory...
cp beta-d-acetylglucosamine_fukui_acid.inp /home/piet/scr/beta-d-acetylglucosamine_fukui_acid.F05
unset echo
 
Assuming a single but multicore node.
 
/home/piet/gamess/ddikick.x /home/piet/gamess/gamess.03.x beta-d-acetylglucosamine_fukui_acid -ddi 1 8 pietdev:cpus=8 -scr /home/piet/scr

 Distributed Data Interface kickoff program.
 Initiating 8 compute processes on 1 nodes to run the following command:
 /home/piet/gamess/gamess.03.x beta-d-acetylglucosamine_fukui_acid 

          ******************************************************
          *         GAMESS VERSION = 30 SEP 2019 (R2)          *
          *             FROM IOWA STATE UNIVERSITY             *
          * M.W.SCHMIDT, K.K.BALDRIDGE, J.A.BOATZ, S.T.ELBERT, *
          *   M.S.GORDON, J.H.JENSEN, S.KOSEKI, N.MATSUNAGA,   *
          *          K.A.NGUYEN, S.J.SU, T.L.WINDUS,           *
          *       TOGETHER WITH M.DUPUIS, J.A.MONTGOMERY       *
          *         J.COMPUT.CHEM.  14, 1347-1363(1993)        *
          **************** 64 BIT LINUX VERSION ****************

  SINCE 1993, STUDENTS AND POSTDOCS WORKING AT IOWA STATE UNIVERSITY
  AND ALSO IN THEIR VARIOUS JOBS AFTER LEAVING ISU HAVE MADE IMPORTANT
  CONTRIBUTIONS TO THE CODE:
     IVANA ADAMOVIC, CHRISTINE AIKENS, YURI ALEXEEV, POOJA ARORA,
     ANDREY ASADCHEV, ROB BELL, PRADIPTA BANDYOPADHYAY, JONATHAN BENTZ,
     COLLEEN BERTONI, BRETT BODE, KURT BRORSEN, CALEB CARLIN, GALINA CHABAN,
     WEI CHEN, CHEOL HO CHOI, PAUL DAY, ALBERT DEFUSCO, NUWAN DESILVA,
     TIM DUDLEY, DMITRI FEDOROV, ALEX FINDLATER, GRAHAM FLETCHER, 
     MARK FREITAG, KURT GLAESEMANN, EMILIE B GUIDEZ, ANASTASIA GUNINA, 
     DAN KEMP, SAROM SOK LEANG, GRANT MERRILL,
     NORIYUKI MINEZAWA, JONATHAN MULLIN,
     TAKESHI NAGATA, SEAN NEDD, HEATHER NETZLOFF, BOSILJKA NJEGIC, RYAN OLSON,
     MIKE PAK, BUU PHAM, DAVID POOLE,
     SPENCER PRUITT, LUKE ROSKOP, TOSAPORN SATTASATHUCHANA,
     JIM SHOEMAKER, LYUDMILA SLIPCHENKO,
     TONY SMITH, JIE SONG, TETSUYA TAKETSUGU, SIMON WEBB,
     JORGE LUIS GALVEZ VALLEJO, PENG XU, SOOHAENG YOO,
     FEDERICO ZAHARIEV

  ADDITIONAL CODE HAS BEEN PROVIDED BY COLLABORATORS IN OTHER GROUPS:
     IOWA STATE UNIVERSITY:
          JOE IVANIC, AARON WEST, LAIMUTIS BYTAUTAS, KLAUS RUEDENBERG
     UNIVERSITY OF TOKYO: KIMIHIKO HIRAO, TAKAHITO NAKAJIMA,
          TAKAO TSUNEDA, MUNEAKI KAMIYA, SUSUMU YANAGISAWA,
          KIYOSHI YAGI, MAHITO CHIBA, SEIKEN TOKURA, NAOAKI KAWAKAMI
     UNIVERSITY OF AARHUS: FRANK JENSEN
     UNIVERSITY OF IOWA: VISVALDAS KAIRYS, HUI LI
     NATIONAL INST. OF STANDARDS AND TECHNOLOGY: WALT STEVENS, DAVID GARMER
     UNIVERSITY OF PISA: BENEDETTA MENNUCCI, JACOPO TOMASI
     UNIVERSITY OF MEMPHIS: HENRY KURTZ, PRAKASHAN KORAMBATH
     UNIVERSITY OF ALBERTA: TOBY ZENG, MARIUSZ KLOBUKOWSKI
     UNIVERSITY OF NEW ENGLAND: MARK SPACKMAN
     MIE UNIVERSITY: HIROAKI UMEDA
     NAT. INST. OF ADVANCED INDUSTRIAL SCIENCE AND TECHNOLOGY: KAZUO KITAURA
     MICHIGAN STATE UNIVERSITY:
          KAROL KOWALSKI, MARTA WLOCH, JEFFREY GOUR, JESSE LUTZ,
          WEI LI, JUN SHEN, J. EMILIANO DEUSTUA, PIOTR PIECUCH
     UNIVERSITY OF MINNESOTA:
          ANDREW SAND, PRACHI SHARMA, YINAN SHU
     UNIVERSITY OF SILESIA: MONIKA MUSIAL, STANISLAW KUCHARSKI
     FACULTES UNIVERSITAIRES NOTRE-DAME DE LA PAIX:
          OLIVIER QUINET, BENOIT CHAMPAGNE
     UNIVERSITY OF CALIFORNIA - SANTA BARBARA: BERNARD KIRTMAN
     INSTITUTE FOR MOLECULAR SCIENCE:
          KAZUYA ISHIMURA, MICHIO KATOUDA, AND SHIGERU NAGASE
     UNIVERSITY OF NOTRE DAME: ANNA POMOGAEVA, DAN CHIPMAN
     KYUSHU UNIVERSITY:
          HARUYUKI NAKANO,
          FENG LONG GU, JACEK KORCHOWIEC, MARCIN MAKOWSKI, AND YURIKO AOKI,
          HIROTOSHI MORI AND EISAKU MIYOSHI
     PENNSYLVANIA STATE UNIVERSITY:
          TZVETELIN IORDANOV, CHET SWALINA, JONATHAN SKONE,
          SHARON HAMMES-SCHIFFER
     WASEDA UNIVERSITY:
          MASATO KOBAYASHI, TOMOKO AKAMA, TSUGUKI TOUMA,
          TAKESHI YOSHIKAWA, YASUHIRO IKABATA, JUNJI SEINO,
          YUYA NAKAJIMA, HIROMI NAKAI
     NANJING UNIVERSITY: SHUHUA LI
     UNIVERSITY OF NEBRASKA:
          PEIFENG SU, DEJUN SI, NANDUN THELLAMUREGE, YALI WANG, HUI LI
     UNIVERSITY OF ZURICH: ROBERTO PEVERATI, KIM BALDRIDGE
     N. COPERNICUS UNIVERSITY AND JACKSON STATE UNIVERSITY:
          MARIA BARYSZ
     UNIVERSITY OF COPENHAGEN: Jimmy Kromann, CASPER STEINMANN
     TOKYO INSTITUTE OF TECHNOLOGY: HIROYA NAKATA
     NAGOYA UNIVERSITY: YOSHIO NISHIMOTO, STEPHAN IRLE
     MOSCOW STATE UNIVERSITY: VLADIMIR MIRONOV
     A.N.NESMEYANOV INSTITUTE OF ORGANOELEMENT COMPOUNDS OF RUSSIAN ACADEMY OF SCIENCES:
          IGOR S. GERASIMOV
     JOHANNES KEPLER UNIVERSITY LINZ:
          CHRISTIAN FRIEDL


 PARALLEL VERSION RUNNING ON        8 PROCESSORS IN        1 NODES.

 EXECUTION OF GAMESS BEGUN Thu May 21 23:10:39 2020

            ECHO OF THE FIRST FEW INPUT CARDS -
 INPUT CARD> $BASIS GBASIS=N21 NGAUSS=3 $END                                                
 INPUT CARD> $CONTRL SCFTYP=UHF MAXIT=60 MULT=2 ICHARG=-1 $END                              
 INPUT CARD> $SYSTEM MEMDDI=1000 MWORDS=30 $END                                             
 INPUT CARD> $SCF DIRSCF=.TRUE. $END                                                        
 INPUT CARD> $STATPT OPTTOL=0.0001 NSTEP=999 $END                                           
 INPUT CARD> $DATA                                                                          
 INPUT CARD>                                                                                
 INPUT CARD>C1                                                                              
 INPUT CARD>C 6.0000000 -0.8577780964 -0.1069705995 0.2278688227                            
 INPUT CARD>C 6.0000000 -0.0643917205 1.1166369399 -0.2413300936                            
 INPUT CARD>C 6.0000000 1.3501320201 1.0550303391 0.3356360167                              
 INPUT CARD>C 6.0000000 2.0622153950 -0.2145739024 -0.1268097748                            
 INPUT CARD>C 6.0000000 3.4551494779 -0.3667667873 0.4550931918                             
 INPUT CARD>C 6.0000000 -4.6068420346 0.0330228195 -0.4264701564                            
 INPUT CARD>H 1.0000000 -0.0416802315 3.0327972089 0.0606868139                             
 INPUT CARD>H 1.0000000 2.7002542464 2.5509502658 0.4814744185                              
 INPUT CARD>H 1.0000000 0.4088195839 -2.1931893358 -1.8994453756                            
 INPUT CARD>H 1.0000000 4.9645656303 -1.6445953051 0.1589139404                             
 INPUT CARD>H 1.0000000 -2.2259141515 -0.3424079778 -1.3668485591                           
 INPUT CARD>O 8.0000000 -3.2745445746 0.1968721851 1.6199047201                             
 INPUT CARD>O 8.0000000 -0.7189373572 2.3182354159 0.2322864007                             
 INPUT CARD>O 8.0000000 2.0006830099 2.2748552149 -0.1666969798                             
 INPUT CARD>O 8.0000000 -0.1007501980 -1.3928294253 -1.5983463964                           
 INPUT CARD>O 8.0000000 4.1134369471 -1.4209179205 -0.3045797677                            
 INPUT CARD>C 6.0000000 -3.3158620588 0.0319834003 0.3911374969                             
 INPUT CARD>C 6.0000000 -0.0778503868 -1.3709450869 -0.1491211316                           
 INPUT CARD>O 8.0000000 1.2737686565 -1.3624152994 0.3643971797                             
 INPUT CARD>N 7.0000000 -2.1860208727 -0.1679970603 -0.3682073831                           
 INPUT CARD>H 1.0000000 -1.0107465760 -0.0495444065 1.3079775161                            
 INPUT CARD>H 1.0000000 0.0162685434 1.0901601687 -1.3368652279                             
 INPUT CARD>H 1.0000000 1.2722409256 1.0578054892 1.4316997391                              
 INPUT CARD>H 1.0000000 -0.5373855018 -2.2623655952 0.2889687039                            
 INPUT CARD>H 1.0000000 2.1221966704 -0.2267089884 -1.2182502663                            
 INPUT CARD>H 1.0000000 3.9713247580 0.6010960596 0.3505729239                              
 INPUT CARD>H 1.0000000 3.3492342586 -0.6083437486 1.5221329456                             
 INPUT CARD>H 1.0000000 -5.4528299575 0.0394732909 0.2618173019                             
 INPUT CARD>H 1.0000000 -4.6468317105 0.9308532989 -1.0548388196                            
 INPUT CARD>H 1.0000000 -4.6637246944 -0.8479006579 -1.0758583000                           
 INPUT CARD> $END                                                                           
   30000000 WORDS OF MEMORY AVAILABLE

     BASIS OPTIONS
     -------------
     GBASIS=N21          IGAUSS=       3      POLAR=NONE    
     NDFUNC=       0     NFFUNC=       0     DIFFSP=       F
     NPFUNC=       0      DIFFS=       F     BASNAM=        


     RUN TITLE
     ---------
                                                                                 

 THE POINT GROUP OF THE MOLECULE IS C1      
 THE ORDER OF THE PRINCIPAL AXIS IS     0

 ATOM      ATOMIC                      COORDINATES (BOHR)
           CHARGE         X                   Y                   Z
 C           6.0    -1.6209655605       -0.2021451218        0.4306096360
 C           6.0    -0.1216827076        2.1101378442       -0.4560477495
 C           6.0     2.5513795652        1.9937182496        0.6342601032
 C           6.0     3.8970220242       -0.4054858797       -0.2396357269
 C           6.0     6.5292857599       -0.6930887294        0.8600014314
 C           6.0    -8.7056691141        0.0624040802       -0.8059117375
 H           1.0    -0.0787642166        5.7311557011        0.1146814493
 H           1.0     5.1027406229        4.8205970107        0.9098547211
 H           1.0     0.7725569920       -4.1445268839       -3.5894312885
 H           1.0     9.3816686893       -3.1078344873        0.3003038030
 H           1.0    -4.2063678185       -0.6470572541       -2.5829692434
 O           8.0    -6.1879919806        0.3720344844        3.0611760472
 O           8.0    -1.3585946074        4.3808297111        0.4389576480
 O           8.0     3.7807426770        4.2988530179       -0.3150116148
 O           8.0    -0.1903902674       -2.6320659615       -3.0204367227
 O           8.0     7.7732686978       -2.6851455208       -0.5755723024
 C           6.0    -6.2660707042        0.0604398627        0.7391426927
 C           6.0    -0.1471158991       -2.5907105585       -0.2817980777
 O           8.0     2.4070737325       -2.5745915973        0.6886108203
 N           7.0    -4.1309804528       -0.3174684107       -0.6958110607
 H           1.0    -1.9100340717       -0.0936253525        2.4717191035
 H           1.0     0.0307430892        2.0601040016       -2.5263089632
 H           1.0     2.4041867397        1.9989625229        2.7055202036
 H           1.0    -1.0155113482       -4.2752510590        0.5460716694
 H           1.0     4.0103701991       -0.4284178670       -2.3021591878
 H           1.0     7.5047156009        1.1359068449        0.6624867649
 H           1.0     6.3291350174       -1.1496029912        2.8764141841
 H           1.0   -10.3043544773        0.0745937036        0.4947629594
 H           1.0    -8.7812386439        1.7590576697       -1.9933563303
 H           1.0    -8.8131617546       -1.6022999082       -2.0330773886

          INTERNUCLEAR DISTANCES (ANGS.)
          ------------------------------

                1 C          2 C          3 C          4 C          5 C     

   1 C       0.0000000    1.5319350 *  2.4973440 *  2.9434227 *  4.3267158  
   2 C       1.5319350 *  0.0000000    1.5289090 *  2.5115125 *  3.8823527  
   3 C       2.4973440 *  1.5289090 *  0.0000000    1.5273552 *  2.5430052 *
   4 C       2.9434227 *  2.5115125 *  1.5273552 *  0.0000000    1.5172472 *
   5 C       4.3267158    3.8823527    2.5430052 *  1.5172472 *  0.0000000  
   6 C       3.8083117    4.6735801    6.0918671    6.6803763    8.1198949  
   7 H       3.2484008    1.9399485 *  2.4339885 *  3.8738806    4.8928938  
   8 H       4.4484214    3.1973377    2.0203651 *  2.9026242 *  3.0139070  
   9 H       3.2375985    3.7320538    4.0537130    3.1290372    4.2614313  
  10 H       6.0223526    5.7510878    4.5147912    3.2481127    1.9997262 *
  11 H       2.1143204 *  2.8403843 *  4.1999278    4.4656570    5.9661167  
  12 O       2.8055026 *  3.8229888    4.8757989    5.6303913    6.8529743  
  13 O       2.4291810 *  1.4479577 *  2.4263999 *  3.7787410    4.9680862  
  14 O       3.7416008    2.3688760 *  1.4708935 *  2.4905089 *  3.0790035  
  15 O       2.3583015 *  2.8531100 *  3.4405471    2.8691682 *  4.2324746  
  16 O       5.1694234    4.8885005    3.7651096    2.3862896 *  1.4565988 *
  17 C       2.4674160 *  3.4854767    4.7771546    5.4085836    6.7830442  
  18 C       1.5323316 *  2.4893268 *  2.8564804 *  2.4326064 *  3.7223027  
  19 O       2.4775538 *  2.8815410 *  2.4188224 *  1.4766423 *  2.3995758 *
  20 N       1.4571410 *  2.4834840 *  3.8073047    4.2553441    5.7043962  
  21 H       1.0923973 *  2.1577582 *  2.7819563 *  3.3954300    4.5576605  
  22 H       2.1553358 *  1.0988195 *  2.1395528 *  2.7115427 *  4.1424212  
  23 H       2.7097773 *  2.1422131 *  1.0988314 *  2.1614719 *  2.7835690 *
  24 H       2.1799340 *  3.4529115    3.8170690    3.3353032    4.4228077  
  25 H       3.3144905    2.7459279 *  2.1571977 *  1.0931548 *  2.1439351 *
  26 H       4.8822791    4.1113427    2.6602501 *  2.1302371 *  1.1018711 *
  27 H       4.4300618    4.2116746    2.8584958 *  2.1284934 *  1.0991594 *
  28 H       4.5975102    5.5180346    6.8787424    7.5293743    8.9193320  
  29 H       4.1327164    4.6577965    6.1573058    6.8691014    8.3430098  
  30 H       4.0907104    5.0704742    6.4637400    6.8220280    8.2759543  

                6 C          7 H          8 H          9 H         10 H     

   1 C       3.8083117    3.2484008    4.4484214    3.2375985    6.0223526  
   2 C       4.6735801    1.9399485 *  3.1973377    3.7320538    5.7510878  
   3 C       6.0918671    2.4339885 *  2.0203651 *  4.0537130    4.5147912  
   4 C       6.6803763    3.8738806    2.9026242 *  3.1290372    3.2481127  
   5 C       8.1198949    4.8928938    3.0139070    4.2614313    1.9997262 *
   6 C       0.0000000    5.4842201    7.7819007    5.6817724    9.7349331  
   7 H       5.4842201    0.0000000    2.8155716 *  5.5996432    6.8520177  
   8 H       7.7819007    2.8155716 *  0.0000000    5.7815493    4.7784677  
   9 H       5.6817724    5.5996432    5.7815493    0.0000000    5.0291769  
  10 H       9.7349331    6.8520177    4.7784677    5.0291769    0.0000000  
  11 H       2.5872915 *  4.2662331    6.0045778    3.2635675    7.4650280  
  12 O       2.4473482 *  4.5743899    6.5219574    5.6272010    8.5678722  
  13 O       4.5576265    0.9993609 *  3.4361493    5.1155713    6.9290416  
  14 O       6.9823121    2.1903030 *  0.9928517 *  5.0497394    4.9247046  
  15 O       4.8694160    4.7267379    5.2654229    0.9954386 *  5.3673806  
  16 O       8.8414968    6.1019666    4.2884383    4.1066031    0.9946246 *
  17 C       1.5281075 *  4.4535770    6.5228069    4.9062630    8.4516464  
  18 C       4.7497172    4.4088858    4.8473477    1.9941335 *  5.0592222  
  19 O       6.0954328    4.5978842    4.1668931    2.5618949 *  3.7072674  
  20 N       2.4298516 *  3.8764973    5.6559984    3.6303293    7.3204567  
  21 H       3.9933731    3.4634742    4.6062140    4.1107108    6.2903808  
  22 H       4.8290279    2.3938146 *  3.5558467    3.3542476    5.8482379  
  23 H       6.2503273    2.7398280 *  2.2741221 *  4.7340249    4.7493384  
  24 H       4.7266412    5.3232119    5.8040830    2.3852140 *  5.5380521  
  25 H       6.7804379    4.1161176    3.3073563    2.6956878 *  3.4620867  
  26 H       8.6320014    4.7012140    2.3312415 *  5.0558932    2.4630043 *
  27 H       8.2162981    5.1857529    3.3889945    4.7817332    2.3540346 *
  28 H       1.0906314 *  6.1871628    8.5339644    6.6343631   10.5531420  
  29 H       1.0966065 *  5.1836267    7.6788440    6.0027171   10.0242252  
  30 H       1.0958863 *  6.1412414    8.2586717    5.3121373    9.7397823  

               11 H         12 O         13 O         14 O         15 O     

   1 C       2.1143204 *  2.8055026 *  2.4291810 *  3.7416008    2.3583015 *
   2 C       2.8403843 *  3.8229888    1.4479577 *  2.3688760 *  2.8531100 *
   3 C       4.1999278    4.8757989    2.4263999 *  1.4708935 *  3.4405471  
   4 C       4.4656570    5.6303913    3.7787410    2.4905089 *  2.8691682 *
   5 C       5.9661167    6.8529743    4.9680862    3.0790035    4.2324746  
   6 C       2.5872915 *  2.4473482 *  4.5576265    6.9823121    4.8694160  
   7 H       4.2662331    4.5743899    0.9993609 *  2.1903030 *  4.7267379  
   8 H       6.0045778    6.5219574    3.4361493    0.9928517 *  5.2654229  
   9 H       3.2635675    5.6272010    5.1155713    5.0497394    0.9954386 *
  10 H       7.4650280    8.5678722    6.9290416    4.9247046    5.3673806  
  11 H       0.0000000    3.2110970    3.4506862    5.1141523    2.3818687 *
  12 O       3.2110970    0.0000000    3.5995548    5.9445761    4.7913737  
  13 O       3.4506862    3.5995548    0.0000000    2.7490734 *  4.1839424  
  14 O       5.1141523    5.9445761    2.7490734 *  0.0000000    4.4629085  
  15 O       2.3818687 *  4.7913737    4.1839424    4.4629085    0.0000000  
  16 O       6.5175894    7.8040474    6.1336233    4.2592816    4.4084004  
  17 C       2.1020633 *  1.2404694 *  3.4635531    5.7971808    4.0404309  
  18 C       2.6748695 *  3.9757210    3.7638434    4.1967213    1.4495714 *
  19 O       4.0355181    4.9693893    4.1875435    3.7470258    2.3963701 *
  20 N       1.0145417 *  2.2957794 *  2.9486062 *  4.8514558    2.7132656 *
  21 H       2.9524728 *  2.2984345 *  2.6169916 *  4.0799763    3.3285472  
  22 H       2.6609272 *  4.5133029    2.1238958 *  2.5905013 *  2.4994606 *
  23 H       4.6935657    4.6314021    2.6442517 *  2.1369862 *  4.1318151  
  24 H       3.0461610    3.9129632    4.5845479    5.2187925    2.1233704 *
  25 H       4.3521874    6.1122304    4.0807893    2.7163125 *  2.5388585 *
  26 H       6.4996543    7.3673077    4.9961103    2.6367531 *  4.9351616  
  27 H       6.2848402    6.6732584    5.1748034    3.6032726    4.7175419  
  28 H       3.6347450    2.5717899 *  5.2538908    7.7932928    5.8443526  
  29 H       2.7530685 *  3.0945360    4.3600315    6.8399261    5.1343704  
  30 H       2.5066149 *  3.2075707    5.2246538    7.4156934    4.6250057  

               16 O         17 C         18 C         19 O         20 N     

   1 C       5.1694234    2.4674160 *  1.5323316 *  2.4775538 *  1.4571410 *
   2 C       4.8885005    3.4854767    2.4893268 *  2.8815410 *  2.4834840 *
   3 C       3.7651096    4.7771546    2.8564804 *  2.4188224 *  3.8073047  
   4 C       2.3862896 *  5.4085836    2.4326064 *  1.4766423 *  4.2553441  
   5 C       1.4565988 *  6.7830442    3.7223027    2.3995758 *  5.7043962  
   6 C       8.8414968    1.5281075 *  4.7497172    6.0954328    2.4298516 *
   7 H       6.1019666    4.4535770    4.4088858    4.5978842    3.8764973  
   8 H       4.2884383    6.5228069    4.8473477    4.1668931    5.6559984  
   9 H       4.1066031    4.9062630    1.9941335 *  2.5618949 *  3.6303293  
  10 H       0.9946246 *  8.4516464    5.0592222    3.7072674    7.3204567  
  11 H       6.5175894    2.1020633 *  2.6748695 *  4.0355181    1.0145417 *
  12 O       7.8040474    1.2404694 *  3.9757210    4.9693893    2.2957794 *
  13 O       6.1336233    3.4635531    3.7638434    4.1875435    2.9486062 *
  14 O       4.2592816    5.7971808    4.1967213    3.7470258    4.8514558  
  15 O       4.4084004    4.0404309    1.4495714 *  2.3963701 *  2.7132656 *
  16 O       0.0000000    7.6019358    4.1944671    2.9179905 *  6.4231634  
  17 C       7.6019358    0.0000000    3.5699870    4.7968503    1.3759135 *
  18 C       4.1944671    3.5699870    0.0000000    1.4459073 *  2.4371019 *
  19 O       2.9179905 *  4.7968503    1.4459073 *  0.0000000    3.7327588  
  20 N       6.4231634    1.3759135 *  2.4371019 *  3.7327588    0.0000000  
  21 H       5.5442099    2.4820958 *  2.1770465 *  2.7987468 *  2.0505844 *
  22 H       4.9150702    3.8998495    2.7343433 *  3.2389391    2.7150205 *
  23 H       4.1510398    4.8151604    3.1969627    2.6451098 *  4.0867875  
  24 H       4.7634529    3.6047757    1.0944066 *  2.0238279 *  2.7452247 *
  25 H       2.4951887 *  5.6771061    2.7004667 *  2.1247192 *  4.3916692  
  26 H       2.1302492 *  7.3094888    4.5314964    3.3365217    6.2466835  
  27 H       2.1403649 *  6.7906317    3.8883879    2.4932977 *  5.8656919  
  28 H       9.6936583    2.1408904 *  5.5721231    6.8718952    3.3334692  
  29 H       9.1014297    2.1610865 *  5.1955934    6.5059066    2.7811014 *
  30 H       8.8295972    2.1778444 *  4.7077235    6.1313040    2.6649681 *

               21 H         22 H         23 H         24 H         25 H     

   1 C       1.0923973 *  2.1553358 *  2.7097773 *  2.1799340 *  3.3144905  
   2 C       2.1577582 *  1.0988195 *  2.1422131 *  3.4529115    2.7459279 *
   3 C       2.7819563 *  2.1395528 *  1.0988314 *  3.8170690    2.1571977 *
   4 C       3.3954300    2.7115427 *  2.1614719 *  3.3353032    1.0931548 *
   5 C       4.5576605    4.1424212    2.7835690 *  4.4228077    2.1439351 *
   6 C       3.9933731    4.8290279    6.2503273    4.7266412    6.7804379  
   7 H       3.4634742    2.3938146 *  2.7398280 *  5.3232119    4.1161176  
   8 H       4.6062140    3.5558467    2.2741221 *  5.8040830    3.3073563  
   9 H       4.1107108    3.3542476    4.7340249    2.3852140 *  2.6956878 *
  10 H       6.2903808    5.8482379    4.7493384    5.5380521    3.4620867  
  11 H       2.9524728 *  2.6609272 *  4.6935657    3.0461610    4.3521874  
  12 O       2.2984345 *  4.5133029    4.6314021    3.9129632    6.1122304  
  13 O       2.6169916 *  2.1238958 *  2.6442517 *  4.5845479    4.0807893  
  14 O       4.0799763    2.5905013 *  2.1369862 *  5.2187925    2.7163125 *
  15 O       3.3285472    2.4994606 *  4.1318151    2.1233704 *  2.5388585 *
  16 O       5.5442099    4.9150702    4.1510398    4.7634529    2.4951887 *
  17 C       2.4820958 *  3.8998495    4.8151604    3.6047757    5.6771061  
  18 C       2.1770465 *  2.7343433 *  3.1969627    1.0944066 *  2.7004667 *
  19 O       2.7987468 *  3.2389391    2.6451098 *  2.0238279 *  2.1247192 *
  20 N       2.0505844 *  2.7150205 *  4.0867875    2.7452247 *  4.3916692  
  21 H       0.0000000    3.0575938    2.5403864 *  2.4817388 *  4.0284671  
  22 H       3.0575938    0.0000000    3.0403068    3.7668684    2.4865935 *
  23 H       2.5403864 *  3.0403068    0.0000000    3.9502048    3.0650672  
  24 H       2.4817388 *  3.7668684    3.9502048    0.0000000    3.6727352  
  25 H       4.0284671    2.4865935 *  3.0650672    3.6727352    0.0000000  
  26 H       5.1147817    4.3277131    2.9432078 *  5.3415050    2.5623704 *
  27 H       4.4008581    4.7082318    2.6642321 *  4.4002608    3.0267089  
  28 H       4.5644803    5.7940286    6.9016088    5.4277798    7.7228545  
  29 H       4.4458065    4.6743365    6.4214026    5.3749431    6.8692357  
  30 H       4.4344442    5.0721338    6.7197657    4.5705732    6.8157819  

               26 H         27 H         28 H         29 H         30 H     

   1 C       4.8822791    4.4300618    4.5975102    4.1327164    4.0907104  
   2 C       4.1113427    4.2116746    5.5180346    4.6577965    5.0704742  
   3 C       2.6602501 *  2.8584958 *  6.8787424    6.1573058    6.4637400  
   4 C       2.1302371 *  2.1284934 *  7.5293743    6.8691014    6.8220280  
   5 C       1.1018711 *  1.0991594 *  8.9193320    8.3430098    8.2759543  
   6 C       8.6320014    8.2162981    1.0906314 *  1.0966065 *  1.0958863 *
   7 H       4.7012140    5.1857529    6.1871628    5.1836267    6.1412414  
   8 H       2.3312415 *  3.3889945    8.5339644    7.6788440    8.2586717  
   9 H       5.0558932    4.7817332    6.6343631    6.0027171    5.3121373  
  10 H       2.4630043 *  2.3540346 * 10.5531420   10.0242252    9.7397823  
  11 H       6.4996543    6.2848402    3.6347450    2.7530685 *  2.5066149 *
  12 O       7.3673077    6.6732584    2.5717899 *  3.0945360    3.2075707  
  13 O       4.9961103    5.1748034    5.2538908    4.3600315    5.2246538  
  14 O       2.6367531 *  3.6032726    7.7932928    6.8399261    7.4156934  
  15 O       4.9351616    4.7175419    5.8443526    5.1343704    4.6250057  
  16 O       2.1302492 *  2.1403649 *  9.6936583    9.1014297    8.8295972  
  17 C       7.3094888    6.7906317    2.1408904 *  2.1610865 *  2.1778444 *
  18 C       4.5314964    3.8883879    5.5721231    5.1955934    4.7077235  
  19 O       3.3365217    2.4932977 *  6.8718952    6.5059066    6.1313040  
  20 N       6.2466835    5.8656919    3.3334692    2.7811014 *  2.6649681 *
  21 H       5.1147817    4.4008581    4.5644803    4.4458065    4.4344442  
  22 H       4.3277131    4.7082318    5.7940286    4.6743365    5.0721338  
  23 H       2.9432078 *  2.6642321 *  6.9016088    6.4214026    6.7197657  
  24 H       5.3415050    4.4002608    5.4277798    5.3749431    4.5705732  
  25 H       2.5623704 *  3.0267089    7.7228545    6.8692357    6.8157819  
  26 H       0.0000000    1.7950750 *  9.4412917    8.7382231    8.8712105  
  27 H       1.7950750 *  0.0000000    8.9154022    8.5409005    8.4270076  
  28 H       9.4412917    8.9154022    0.0000000    1.7826314 *  1.7887134 *
  29 H       8.7382231    8.5409005    1.7826314 *  0.0000000    1.7789584 *
  30 H       8.8712105    8.4270076    1.7887134 *  1.7789584 *  0.0000000  

  * ... LESS THAN  3.000


     ATOMIC BASIS SET
     ----------------
 THE CONTRACTED PRIMITIVE FUNCTIONS HAVE BEEN UNNORMALIZED
 THE CONTRACTED BASIS FUNCTIONS ARE NOW NORMALIZED TO UNITY

  SHELL TYPE  PRIMITIVE        EXPONENT          CONTRACTION COEFFICIENT(S)

 C         

      1   S       1           172.2560000    0.061766907377
      1   S       2            25.9109000    0.358794042852
      1   S       3             5.5333500    0.700713083689

      2   L       4             3.6649800   -0.395895162119    0.236459946619
      2   L       5             0.7705450    1.215834355681    0.860618805716

      3   L       6             0.1958570    1.000000000000    1.000000000000

 C         

      4   S       7           172.2560000    0.061766907377
      4   S       8            25.9109000    0.358794042852
      4   S       9             5.5333500    0.700713083689

      5   L      10             3.6649800   -0.395895162119    0.236459946619
      5   L      11             0.7705450    1.215834355681    0.860618805716

      6   L      12             0.1958570    1.000000000000    1.000000000000

 C         

      7   S      13           172.2560000    0.061766907377
      7   S      14            25.9109000    0.358794042852
      7   S      15             5.5333500    0.700713083689

      8   L      16             3.6649800   -0.395895162119    0.236459946619
      8   L      17             0.7705450    1.215834355681    0.860618805716

      9   L      18             0.1958570    1.000000000000    1.000000000000

 C         

     10   S      19           172.2560000    0.061766907377
     10   S      20            25.9109000    0.358794042852
     10   S      21             5.5333500    0.700713083689

     11   L      22             3.6649800   -0.395895162119    0.236459946619
     11   L      23             0.7705450    1.215834355681    0.860618805716

     12   L      24             0.1958570    1.000000000000    1.000000000000

 C         

     13   S      25           172.2560000    0.061766907377
     13   S      26            25.9109000    0.358794042852
     13   S      27             5.5333500    0.700713083689

     14   L      28             3.6649800   -0.395895162119    0.236459946619
     14   L      29             0.7705450    1.215834355681    0.860618805716

     15   L      30             0.1958570    1.000000000000    1.000000000000

 C         

     16   S      31           172.2560000    0.061766907377
     16   S      32            25.9109000    0.358794042852
     16   S      33             5.5333500    0.700713083689

     17   L      34             3.6649800   -0.395895162119    0.236459946619
     17   L      35             0.7705450    1.215834355681    0.860618805716

     18   L      36             0.1958570    1.000000000000    1.000000000000

 H         

     19   S      37             5.4471780    0.156284978695
     19   S      38             0.8245472    0.904690876670

     20   S      39             0.1831916    1.000000000000

 H         

     21   S      40             5.4471780    0.156284978695
     21   S      41             0.8245472    0.904690876670

     22   S      42             0.1831916    1.000000000000

 H         

     23   S      43             5.4471780    0.156284978695
     23   S      44             0.8245472    0.904690876670

     24   S      45             0.1831916    1.000000000000

 H         

     25   S      46             5.4471780    0.156284978695
     25   S      47             0.8245472    0.904690876670

     26   S      48             0.1831916    1.000000000000

 H         

     27   S      49             5.4471780    0.156284978695
     27   S      50             0.8245472    0.904690876670

     28   S      51             0.1831916    1.000000000000

 O         

     29   S      52           322.0370000    0.059239393389
     29   S      53            48.4308000    0.351499960776
     29   S      54            10.4206000    0.707657921031

     30   L      55             7.4029400   -0.404453583190    0.244586106967
     30   L      56             1.5762000    1.221561761397    0.853955373466

     31   L      57             0.3736840    1.000000000000    1.000000000000

 O         

     32   S      58           322.0370000    0.059239393389
     32   S      59            48.4308000    0.351499960776
     32   S      60            10.4206000    0.707657921031

     33   L      61             7.4029400   -0.404453583190    0.244586106967
     33   L      62             1.5762000    1.221561761397    0.853955373466

     34   L      63             0.3736840    1.000000000000    1.000000000000

 O         

     35   S      64           322.0370000    0.059239393389
     35   S      65            48.4308000    0.351499960776
     35   S      66            10.4206000    0.707657921031

     36   L      67             7.4029400   -0.404453583190    0.244586106967
     36   L      68             1.5762000    1.221561761397    0.853955373466

     37   L      69             0.3736840    1.000000000000    1.000000000000

 O         

     38   S      70           322.0370000    0.059239393389
     38   S      71            48.4308000    0.351499960776
     38   S      72            10.4206000    0.707657921031

     39   L      73             7.4029400   -0.404453583190    0.244586106967
     39   L      74             1.5762000    1.221561761397    0.853955373466

     40   L      75             0.3736840    1.000000000000    1.000000000000

 O         

     41   S      76           322.0370000    0.059239393389
     41   S      77            48.4308000    0.351499960776
     41   S      78            10.4206000    0.707657921031

     42   L      79             7.4029400   -0.404453583190    0.244586106967
     42   L      80             1.5762000    1.221561761397    0.853955373466

     43   L      81             0.3736840    1.000000000000    1.000000000000

 C         

     44   S      82           172.2560000    0.061766907377
     44   S      83            25.9109000    0.358794042852
     44   S      84             5.5333500    0.700713083689

     45   L      85             3.6649800   -0.395895162119    0.236459946619
     45   L      86             0.7705450    1.215834355681    0.860618805716

     46   L      87             0.1958570    1.000000000000    1.000000000000

 C         

     47   S      88           172.2560000    0.061766907377
     47   S      89            25.9109000    0.358794042852
     47   S      90             5.5333500    0.700713083689

     48   L      91             3.6649800   -0.395895162119    0.236459946619
     48   L      92             0.7705450    1.215834355681    0.860618805716

     49   L      93             0.1958570    1.000000000000    1.000000000000

 O         

     50   S      94           322.0370000    0.059239393389
     50   S      95            48.4308000    0.351499960776
     50   S      96            10.4206000    0.707657921031

     51   L      97             7.4029400   -0.404453583190    0.244586106967
     51   L      98             1.5762000    1.221561761397    0.853955373466

     52   L      99             0.3736840    1.000000000000    1.000000000000

 N         

     53   S     100           242.7660000    0.059865700508
     53   S     101            36.4851000    0.352955002994
     53   S     102             7.8144900    0.706513005993

     54   L     103             5.4252200   -0.413300077430    0.237972016222
     54   L     104             1.1491500    1.224417266851    0.858953058551

     55   L     105             0.2832050    1.000000000000    1.000000000000

 H         

     56   S     106             5.4471780    0.156284978695
     56   S     107             0.8245472    0.904690876670

     57   S     108             0.1831916    1.000000000000

 H         

     58   S     109             5.4471780    0.156284978695
     58   S     110             0.8245472    0.904690876670

     59   S     111             0.1831916    1.000000000000

 H         

     60   S     112             5.4471780    0.156284978695
     60   S     113             0.8245472    0.904690876670

     61   S     114             0.1831916    1.000000000000

 H         

     62   S     115             5.4471780    0.156284978695
     62   S     116             0.8245472    0.904690876670

     63   S     117             0.1831916    1.000000000000

 H         

     64   S     118             5.4471780    0.156284978695
     64   S     119             0.8245472    0.904690876670

     65   S     120             0.1831916    1.000000000000

 H         

     66   S     121             5.4471780    0.156284978695
     66   S     122             0.8245472    0.904690876670

     67   S     123             0.1831916    1.000000000000

 H         

     68   S     124             5.4471780    0.156284978695
     68   S     125             0.8245472    0.904690876670

     69   S     126             0.1831916    1.000000000000

 H         

     70   S     127             5.4471780    0.156284978695
     70   S     128             0.8245472    0.904690876670

     71   S     129             0.1831916    1.000000000000

 H         

     72   S     130             5.4471780    0.156284978695
     72   S     131             0.8245472    0.904690876670

     73   S     132             0.1831916    1.000000000000

 H         

     74   S     133             5.4471780    0.156284978695
     74   S     134             0.8245472    0.904690876670

     75   S     135             0.1831916    1.000000000000

 TOTAL NUMBER OF BASIS SET SHELLS             =   75
 NUMBER OF CARTESIAN GAUSSIAN BASIS FUNCTIONS =  165
 NUMBER OF ELECTRONS                          =  119
 CHARGE OF MOLECULE                           =   -1
 SPIN MULTIPLICITY                            =    2
 NUMBER OF OCCUPIED ORBITALS (ALPHA)          =   60
 NUMBER OF OCCUPIED ORBITALS (BETA )          =   59
 TOTAL NUMBER OF ATOMS                        =   30
 THE NUCLEAR REPULSION ENERGY IS     1129.9527667814

     $CONTRL OPTIONS
     ---------------
 SCFTYP=UHF          RUNTYP=ENERGY       EXETYP=RUN     
 MPLEVL=       0     CITYP =NONE         CCTYP =NONE         VBTYP =NONE    
 DFTTYP=NONE         TDDFT =NONE    
 MULT  =       2     ICHARG=      -1     NZVAR =       0     COORD =UNIQUE  
 PP    =NONE         RELWFN=NONE         LOCAL =NONE         NUMGRD=       F
 ISPHER=      -1     NOSYM =       0     MAXIT =      60     UNITS =ANGS    
 PLTORB=       F     MOLPLT=       F     AIMPAC=       F     FRIEND=        
 NPRINT=       7     IREST =       0     GEOM  =INPUT   
 NORMF =       0     NORMP =       0     ITOL  =      20     ICUT  =       9
 INTTYP=BEST         GRDTYP=BEST         QMTTOL= 1.0E-06

     $SYSTEM OPTIONS
     ---------------
  REPLICATED MEMORY=    30000000 WORDS (ON EVERY NODE).
 DISTRIBUTED MEMDDI=        1000 MILLION WORDS IN AGGREGATE,
 MEMDDI DISTRIBUTED OVER   8 PROCESSORS IS   125000000 WORDS/PROCESSOR.
 TOTAL MEMORY REQUESTED ON EACH PROCESSOR=   155000000 WORDS.
 TIMLIM=      525600.00 MINUTES, OR     365.0 DAYS.
 PARALL= T  BALTYP=  DLB     KDIAG=    0  COREFL= F
 MXSEQ2=     300 MXSEQ3=     150  mem10=         0

          ----------------
          PROPERTIES INPUT
          ----------------

     MOMENTS            FIELD           POTENTIAL          DENSITY
 IEMOM =       1   IEFLD =       0   IEPOT =       0   IEDEN =       0
 WHERE =COMASS     WHERE =NUCLEI     WHERE =NUCLEI     WHERE =NUCLEI  
 OUTPUT=BOTH       OUTPUT=BOTH       OUTPUT=BOTH       OUTPUT=BOTH    
 IEMINT=       0   IEFINT=       0                     IEDINT=       0
                                                       MORB  =       0
          EXTRAPOLATION IN EFFECT
          SOSCF IN EFFECT
          DIIS or SOSCF will be reset if energy rises
 ORBITAL PRINTING OPTION: NPREO=     1   165     2     1

     -------------------------------
     INTEGRAL TRANSFORMATION OPTIONS
     -------------------------------
     NWORD  =            0
     CUTOFF = 1.0E-09     MPTRAN =       0
     DIRTRF =       T     AOINTS =DUP     

          ----------------------
          INTEGRAL INPUT OPTIONS
          ----------------------
 NOPK  =       1 NORDER=       0 SCHWRZ=       T

     ------------------------------------------
     THE POINT GROUP IS C1 , NAXIS= 0, ORDER= 1
     ------------------------------------------

     DIMENSIONS OF THE SYMMETRY SUBSPACES ARE
 A   =  165

 ..... DONE SETTING UP THE RUN .....
 CPU     0: STEP CPU TIME=     0.03 TOTAL CPU TIME=          0.0 (      0.0 MIN)
 TOTAL WALL CLOCK TIME=          0.1 SECONDS, CPU UTILIZATION IS    50.00%

          ********************
          1 ELECTRON INTEGRALS
          ********************
 ...... END OF ONE-ELECTRON INTEGRALS ......
 CPU     0: STEP CPU TIME=     0.02 TOTAL CPU TIME=          0.1 (      0.0 MIN)
 TOTAL WALL CLOCK TIME=          0.1 SECONDS, CPU UTILIZATION IS    62.50%

          -------------
          GUESS OPTIONS
          -------------
          GUESS =HUCKEL            NORB  =       0          NORDER=       0
          MIX   =       F          PRTMO =       F          PUNMO =       F
          TOLZ  = 1.0E-08          TOLE  = 1.0E-05
          SYMDEN=       F          PURIFY=       F

 INITIAL GUESS ORBITALS GENERATED BY HUCKEL   ROUTINE.
 HUCKEL GUESS REQUIRES    252105 WORDS.

 SYMMETRIES FOR INITIAL GUESS ORBITALS FOLLOW.  ALPHA SET(S).
    60 ORBITALS ARE OCCUPIED (   15 CORE ORBITALS).
    16=A       17=A       18=A       19=A       20=A       21=A       22=A   
    23=A       24=A       25=A       26=A       27=A       28=A       29=A   
    30=A       31=A       32=A       33=A       34=A       35=A       36=A   
    37=A       38=A       39=A       40=A       41=A       42=A       43=A   
    44=A       45=A       46=A       47=A       48=A       49=A       50=A   
    51=A       52=A       53=A       54=A       55=A       56=A       57=A   
    58=A       59=A       60=A       61=A       62=A       63=A       64=A   
    65=A       66=A       67=A       68=A       69=A       70=A   

 SYMMETRIES FOR INITIAL GUESS ORBITALS FOLLOW.   BETA SET(S).
    59 ORBITALS ARE OCCUPIED (   15 CORE ORBITALS).
    16=A       17=A       18=A       19=A       20=A       21=A       22=A   
    23=A       24=A       25=A       26=A       27=A       28=A       29=A   
    30=A       31=A       32=A       33=A       34=A       35=A       36=A   
    37=A       38=A       39=A       40=A       41=A       42=A       43=A   
    44=A       45=A       46=A       47=A       48=A       49=A       50=A   
    51=A       52=A       53=A       54=A       55=A       56=A       57=A   
    58=A       59=A       60=A       61=A       62=A       63=A       64=A   
    65=A       66=A       67=A       68=A       69=A   
 ...... END OF INITIAL ORBITAL SELECTION ......
 CPU     0: STEP CPU TIME=     0.08 TOTAL CPU TIME=          0.1 (      0.0 MIN)
 TOTAL WALL CLOCK TIME=          0.2 SECONDS, CPU UTILIZATION IS    59.09%

                    ----------------------
                    AO INTEGRAL TECHNOLOGY
                    ----------------------
     S,P,L SHELL ROTATED AXIS INTEGRALS, REPROGRAMMED BY
        KAZUYA ISHIMURA (IMS) AND JOSE SIERRA (SYNSTAR).
     S,P,D,L SHELL ROTATED AXIS INTEGRALS PROGRAMMED BY
        KAZUYA ISHIMURA (INSTITUTE FOR MOLECULAR SCIENCE).
     S,P,D,F,G SHELL TO TOTAL QUARTET ANGULAR MOMENTUM SUM 5,
        ERIC PROGRAM BY GRAHAM FLETCHER (ELORET AND NASA ADVANCED
        SUPERCOMPUTING DIVISION, AMES RESEARCH CENTER).
     S,P,D,F,G,L SHELL GENERAL RYS QUADRATURE PROGRAMMED BY
        MICHEL DUPUIS (PACIFIC NORTHWEST NATIONAL LABORATORY).

          --------------------
          2 ELECTRON INTEGRALS
          --------------------

 DIRECT SCF METHOD SKIPS INTEGRAL STORAGE ON DISK.
 DIRECT TRANSFORMATION SKIPS AO INTEGRAL STORAGE ON DISK.
  ...... END OF TWO-ELECTRON INTEGRALS .....
 CPU     0: STEP CPU TIME=     0.02 TOTAL CPU TIME=          0.2 (      0.0 MIN)
 TOTAL WALL CLOCK TIME=          0.2 SECONDS, CPU UTILIZATION IS    60.00%

          ---------------------------
                  UHF SCF CALCULATION
          ---------------------------

     NUCLEAR ENERGY =      1129.9527667814
     MAXIT = 60     NPUNCH=  2     MULT=  2
     EXTRAP=T  DAMP=F  SHIFT=F  RSTRCT=F  DIIS=F  SOSCF=T
     DENSITY MATRIX CONV=  2.00E-05
     SOSCF WILL OPTIMIZE    6300 ALPHA AND    6254 BETA ROTATION ANGLES.
     SOGTOL= 2.500E-01
     MEMORY REQUIRED FOR UHF/ROHF ITERS=    412824 WORDS.

 DIRECT SCF CALCULATION, SCHWRZ=T   FDIFF=T
 SCHWARZ INEQUALITY OVERHEAD:     11825 INTEGRALS, T=        0.00

                                                                                NONZERO     BLOCKS
 ITER EX      TOTAL ENERGY        E CHANGE  DENSITY CHANGE    ORB. GRAD       INTEGRALS    SKIPPED
   1  0     -808.3506772293  -808.3506772293   0.884448013   0.000000000       37522640    2712108
          ---------------START SECOND ORDER SCF---------------
   2  1     -810.4335675198    -2.0828902905   0.309622307   0.103502901       37484710    2728349
   3  2     -810.5331808904    -0.0996133706   0.385104767   0.059694258       37250912    2764432
   4  3     -810.5798825976    -0.0467017072   0.229972014   0.036557405       37029489    2789286
   5  4     -810.5894356454    -0.0095530478   0.154388131   0.030337796       36956083    2805283
   6  5     -810.6020821863    -0.0126465409   0.130573163   0.022076281       36611555    2844399
   7  6     -810.6010168573     0.0010653290   0.096138041   0.020891478       36241586    2868344
   8  7     -810.6054101711    -0.0043933138   0.014380268   0.003887059       35942833    2889924
   9  8     -810.6055400792    -0.0001299081   0.006255808   0.003211456       34610835    2990410
  10  9     -810.6056117442    -0.0000716651   0.004897026   0.001012470       33266987    3056904
  11 10     -810.6056189665    -0.0000072223   0.003082272   0.000900420       32405727    3096493
  12 11     -810.6056294810    -0.0000105145   0.001976529   0.000402496       31770824    3129519
  13 12     -810.6056304342    -0.0000009532   0.001111354   0.000353753       31419024    3148646
  14 13     -810.6056320384    -0.0000016042   0.000473702   0.000077316       30202473    3196928
  15 14     -810.6056321510    -0.0000001126   0.000229884   0.000062583       28268640    3278399
  16 15     -810.6056322238    -0.0000000728   0.000085212   0.000014285       26534795    3335171
  17 16     -810.6056322315    -0.0000000077   0.000047662   0.000009397       24826021    3390311
  18 17     -810.6056322344    -0.0000000029   0.000024434   0.000004183       22855319    3450521
  19 18     -810.6056322350    -0.0000000006   0.000014165   0.000002677       21415540    3496191
  20 19     -810.6056322355    -0.0000000005   0.000008426   0.000001077       19643021    3551995

          -----------------
          DENSITY CONVERGED
          -----------------
     TIME TO FORM FOCK OPERATORS=      10.5 SECONDS (       0.5 SEC/ITER)
     FOCK TIME ON FIRST ITERATION=       0.5, LAST ITERATION=       0.3
     TIME TO SOLVE SCF EQUATIONS=       0.4 SECONDS (       0.0 SEC/ITER)

 FINAL UHF ENERGY IS     -810.6056322355 AFTER  20 ITERATIONS

          --------------------
          SPIN SZ   =    0.500
          S-SQUARED =    0.762
          --------------------

  ----- ALPHA SET ----- 

          ------------
          EIGENVECTORS
          ------------

                      1          2          3          4          5
                  -20.3743   -20.3709   -20.3516   -20.3458   -20.3057
                     A          A          A          A          A   
    1  C  1  S   -0.000035  -0.000095   0.000248   0.000254   0.000232
    2  C  1  S   -0.000199  -0.000748   0.000920   0.001042   0.000957
    3  C  1  X   -0.000026  -0.000714  -0.000280  -0.000248  -0.000351
    4  C  1  Y   -0.000015   0.000009   0.000759   0.000946  -0.000222
    5  C  1  Z    0.000118  -0.000162  -0.000016   0.000197   0.000486
    6  C  1  S    0.001141   0.000917  -0.007308  -0.008675  -0.006374
    7  C  1  X    0.000548   0.004898  -0.003095  -0.002059  -0.000479
    8  C  1  Y   -0.000921  -0.000515  -0.000667   0.000251  -0.005397
    9  C  1  Z   -0.001288   0.001475   0.000951   0.004762  -0.003555
   10  C  2  S   -0.000050   0.000243   0.000079   0.000087  -0.000944
   11  C  2  S   -0.000301   0.000921   0.000887   0.000838  -0.003896
   12  C  2  X    0.000143  -0.000494   0.000203  -0.000022  -0.000410
   13  C  2  Y   -0.000092  -0.000215  -0.000662  -0.000345   0.001066
   14  C  2  Z   -0.000162  -0.000241  -0.000445   0.000141  -0.000281
   15  C  2  S    0.002369  -0.008139   0.000116  -0.000355   0.023340
   16  C  2  X    0.000519  -0.005035  -0.003549  -0.002662  -0.005508
   17  C  2  Y    0.001177  -0.000767   0.001574  -0.000392   0.010621
   18  C  2  Z    0.001914   0.000267   0.003985  -0.000172   0.010149
   19  C  3  S   -0.000093  -0.000948   0.000021  -0.000098   0.000212
   20  C  3  S   -0.000607  -0.004088  -0.000464  -0.000388   0.000707
   21  C  3  X   -0.000551   0.000387  -0.000309  -0.000102   0.000575
   22  C  3  Y    0.000221   0.000947   0.000643  -0.000305  -0.000100
   23  C  3  Z   -0.000092   0.000303   0.000392  -0.000155   0.000240
   24  C  3  S    0.001109   0.022227  -0.000769   0.004151  -0.006969
   25  C  3  X    0.004533   0.004056   0.000420  -0.000494   0.004307
   26  C  3  Y   -0.001004   0.010418   0.001797  -0.000363  -0.001600
   27  C  3  Z    0.000107  -0.009094  -0.003997  -0.000758  -0.001372
   28  C  4  S    0.000254   0.000099  -0.000737   0.000165  -0.000039
   29  C  4  S    0.001075   0.000130  -0.002833   0.001263  -0.000260
   30  C  4  X   -0.000293   0.000139  -0.001167  -0.000481   0.000595
   31  C  4  Y    0.000303  -0.000512  -0.001236  -0.000138  -0.000317
   32  C  4  Z   -0.000110  -0.000570  -0.000179   0.000055   0.000098
   33  C  4  S   -0.009073  -0.002536   0.015515  -0.003020  -0.000882
   34  C  4  X   -0.004885  -0.000217  -0.002692   0.003301  -0.003952
   35  C  4  Y   -0.000384  -0.004338  -0.007601  -0.000619   0.000437
   36  C  4  Z   -0.000240   0.004858   0.007167   0.000230  -0.000490
   37  C  5  S   -0.000844   0.000074   0.000192   0.000042  -0.000055
   38  C  5  S   -0.003376   0.000572   0.000800   0.000295  -0.000276
   39  C  5  X    0.001010  -0.000260   0.000547  -0.000058  -0.000187
   40  C  5  Y   -0.001063   0.000068   0.000010  -0.000052   0.000086
   41  C  5  Z   -0.000559   0.000323   0.000401  -0.000057   0.000030
   42  C  5  S    0.020334  -0.001786  -0.006205  -0.001546   0.002858
   43  C  5  X    0.001277   0.002118   0.003669   0.000649  -0.000624
   44  C  5  Y   -0.006922   0.000789   0.001747   0.000277  -0.000396
   45  C  5  Z   -0.007200  -0.002384  -0.001863   0.000854  -0.001220
   46  C  6  S   -0.000005  -0.000021   0.000007   0.000028  -0.000035
   47  C  6  S   -0.000023  -0.000137   0.000011   0.000147  -0.000195
   48  C  6  X    0.000016  -0.000019  -0.000062  -0.000015   0.000038
   49  C  6  Y    0.000002   0.000004  -0.000000  -0.000025   0.000033
   50  C  6  Z    0.000001   0.000015  -0.000006  -0.000036   0.000019
   51  C  6  S    0.000232   0.000659  -0.000471  -0.001078   0.001320
   52  C  6  X    0.000086   0.000344  -0.000209  -0.000648   0.000584
   53  C  6  Y   -0.000008  -0.000035  -0.000021   0.000235  -0.000206
   54  C  6  Z    0.000065   0.000106  -0.000078  -0.000205   0.000293
   55  H  7  S   -0.000016  -0.000568   0.000002  -0.000027   0.003229
   56  H  7  S   -0.000036   0.001760  -0.000447  -0.000083   0.004933
   57  H  8  S    0.000060   0.002906  -0.000205   0.000094  -0.000266
   58  H  8  S    0.000234   0.004881   0.000259  -0.000076  -0.000339
   59  H  9  S   -0.000009   0.000079   0.000700   0.003193   0.000120
   60  H  9  S    0.000002  -0.000246  -0.000719   0.004499  -0.000102
   61  H 10  S    0.003028  -0.000019  -0.000217  -0.000064   0.000121
   62  H 10  S    0.005035  -0.000305  -0.000313   0.000001  -0.000039
   63  H 11  S    0.000055   0.000076  -0.000359  -0.000397   0.000402
   64  H 11  S    0.000071   0.000177   0.000048   0.001159   0.000079
   65  O 12  S    0.000014  -0.000021  -0.000070  -0.000031   0.000092
   66  O 12  S    0.000020  -0.000021  -0.000085  -0.000055   0.000099
   67  O 12  X   -0.000003  -0.000014   0.000017   0.000042   0.000002
   68  O 12  Y   -0.000006   0.000004   0.000011  -0.000029  -0.000005
   69  O 12  Z    0.000003   0.000005   0.000002   0.000007   0.000006
   70  O 12  S   -0.000109  -0.000064   0.000388   0.000482  -0.000495
   71  O 12  X   -0.000009  -0.000020  -0.000072  -0.000035  -0.000121
   72  O 12  Y    0.000022  -0.000011  -0.000061   0.000116   0.000005
   73  O 12  Z    0.000011   0.000002  -0.000075  -0.000149   0.000071
   74  O 13  S    0.000481   0.001769   0.002792   0.000761   0.983573
   75  O 13  S    0.000224   0.000566   0.000854   0.000199   0.098449
   76  O 13  X   -0.000013   0.000133  -0.000003  -0.000060   0.003515
   77  O 13  Y   -0.000024   0.000067  -0.000196  -0.000067  -0.001101
   78  O 13  Z   -0.000008   0.000091   0.000026  -0.000031  -0.001620
   79  O 13  S   -0.000986  -0.000954  -0.002479  -0.000452  -0.047571
   80  O 13  X   -0.000176  -0.000157  -0.000192   0.000303  -0.008731
   81  O 13  Y    0.000406  -0.000437   0.001395   0.000363   0.006032
   82  O 13  Z    0.000073  -0.000341  -0.000026   0.000160   0.004168
   83  O 14  S    0.013353   0.983432   0.000268  -0.000893  -0.001716
   84  O 14  S    0.001554   0.098017   0.000088   0.000033   0.000220
   85  O 14  X    0.000041   0.000243  -0.000077   0.000036  -0.000393
   86  O 14  Y   -0.000045  -0.002074   0.000123  -0.000032   0.000022
   87  O 14  Z    0.000111   0.002936   0.000005   0.000016  -0.000177
   88  O 14  S   -0.001539  -0.045959  -0.000959  -0.000494  -0.000306
   89  O 14  X   -0.000250   0.001747   0.000496  -0.000013   0.001069
   90  O 14  Y    0.000533   0.007470   0.000026   0.000319  -0.000170
   91  O 14  Z   -0.000459  -0.006502   0.000022  -0.000112   0.000742
   92  O 15  S   -0.000499   0.000921   0.040285   0.982706  -0.000832
   93  O 15  S   -0.000134   0.000216   0.005255   0.098014   0.000113
   94  O 15  X   -0.000002  -0.000012   0.000503   0.001528   0.000118
   95  O 15  Y   -0.000000  -0.000025   0.000064  -0.002031  -0.000021
   96  O 15  Z   -0.000018   0.000032   0.000346   0.002719   0.000049
   97  O 15  S    0.000469  -0.000667  -0.006114  -0.045880  -0.000790
   98  O 15  X    0.000048   0.000014  -0.002606  -0.003149  -0.000481
   99  O 15  Y    0.000046  -0.000006  -0.000569   0.003269  -0.000190
  100  O 15  Z    0.000272  -0.000323  -0.003091  -0.009377  -0.000486
  101  O 16  S    0.983368  -0.013301  -0.001515   0.000548  -0.000407
  102  O 16  S    0.097493  -0.001121  -0.000076  -0.000030   0.000115
  103  O 16  X    0.000783  -0.000030  -0.000167  -0.000018   0.000045
  104  O 16  Y    0.001965   0.000069   0.000152  -0.000005   0.000014
  105  O 16  Z    0.003092  -0.000079  -0.000137  -0.000029   0.000035
  106  O 16  S   -0.043640  -0.000151   0.000231   0.000384  -0.000731
  107  O 16  X    0.000316   0.000099   0.000294  -0.000026  -0.000005
  108  O 16  Y   -0.005943  -0.000489  -0.000465   0.000127  -0.000260
  109  O 16  Z   -0.007219   0.000227   0.000656   0.000154  -0.000239
  110  C 17  S   -0.000001  -0.000009  -0.000001  -0.000005   0.000001
  111  C 17  S   -0.000025  -0.000122   0.000042   0.000027  -0.000059
  112  C 17  X   -0.000070  -0.000179   0.000188   0.000251  -0.000333
  113  C 17  Y   -0.000002   0.000017   0.000004   0.000027  -0.000047
  114  C 17  Z    0.000005  -0.000037  -0.000066  -0.000010  -0.000007
  115  C 17  S   -0.000230  -0.000126   0.000996   0.000828  -0.001144
  116  C 17  X    0.000144   0.000652   0.000058  -0.000881   0.000882
  117  C 17  Y    0.000007   0.000054   0.000023  -0.000515   0.000324
  118  C 17  Z    0.000254   0.000281  -0.000981  -0.001137   0.001107
  119  C 18  S    0.000083   0.000011  -0.000945  -0.001014  -0.000120
  120  C 18  S    0.000412  -0.000139  -0.003795  -0.004475  -0.000795
  121  C 18  X   -0.000059  -0.000214   0.001392  -0.000084   0.000012
  122  C 18  Y    0.000054  -0.000424  -0.000363  -0.000976  -0.000622
  123  C 18  Z   -0.000057   0.000065   0.000310  -0.001395   0.000144
  124  C 18  S   -0.002348  -0.001973   0.020688   0.022301   0.000555
  125  C 18  X   -0.000229   0.000089   0.010479   0.001574   0.002317
  126  C 18  Y   -0.001068   0.000230   0.004034   0.005110   0.002178
  127  C 18  Z    0.000186  -0.001908   0.000964  -0.012261  -0.000667
  128  O 19  S    0.001525  -0.000300   0.982882  -0.039968  -0.002616
  129  O 19  S    0.000218   0.000020   0.099600  -0.002841   0.000328
  130  O 19  X    0.000307   0.000215  -0.001440   0.000050  -0.000057
  131  O 19  Y    0.000014  -0.000103   0.002535  -0.000053   0.000039
  132  O 19  Z    0.000067  -0.000044  -0.002389  -0.000440  -0.000169
  133  O 19  S    0.000152  -0.000908  -0.051375  -0.002006  -0.002282
  134  O 19  X   -0.000873  -0.001416   0.004451   0.001577   0.000699
  135  O 19  Y    0.000079  -0.000124  -0.006998   0.000157  -0.000654
  136  O 19  Z   -0.000298   0.000205   0.006704   0.003140   0.000959
  137  N 20  S    0.000005  -0.000060  -0.000042   0.000039   0.000035
  138  N 20  S    0.000023  -0.000336  -0.000267   0.000331   0.000278
  139  N 20  X    0.000038  -0.000004  -0.000352  -0.000070   0.000344
  140  N 20  Y   -0.000039   0.000072   0.000282  -0.000178   0.000056
  141  N 20  Z   -0.000032  -0.000117   0.000089   0.000049  -0.000163
  142  N 20  S   -0.000207   0.002256   0.000247   0.000046  -0.000349
  143  N 20  X   -0.000384   0.000976   0.001892   0.001416  -0.001224
  144  N 20  Y    0.000230  -0.000138  -0.000936   0.000779   0.000403
  145  N 20  Z    0.000197   0.000872  -0.000581   0.000100   0.000993
  146  H 21  S    0.000098  -0.000432   0.000469  -0.000424   0.001068
  147  H 21  S    0.000448   0.000051  -0.000170   0.000144   0.001703
  148  H 22  S    0.000170   0.000747   0.000729  -0.000316  -0.000563
  149  H 22  S    0.000369   0.000444   0.001755   0.000951   0.000790
  150  H 23  S   -0.000304  -0.000541   0.000573  -0.000189   0.000723
  151  H 23  S    0.000236  -0.000086   0.001319  -0.000092   0.000909
  152  H 24  S    0.000055   0.000190  -0.001071  -0.000896   0.000262
  153  H 24  S   -0.000177   0.000915   0.000037   0.000809   0.001105
  154  H 25  S    0.000484   0.000911  -0.000743  -0.000090  -0.000252
  155  H 25  S    0.000897   0.001779   0.000649   0.000856   0.000278
  156  H 26  S   -0.001185  -0.000026  -0.000161   0.000064  -0.000018
  157  H 26  S   -0.001038  -0.001223  -0.000179  -0.000138  -0.000257
  158  H 27  S   -0.001096   0.000429   0.000685   0.000102   0.000006
  159  H 27  S   -0.000731   0.001514   0.001541  -0.000325   0.000089
  160  H 28  S   -0.000009  -0.000032  -0.000004   0.000033  -0.000054
  161  H 28  S   -0.000023   0.000061   0.000077  -0.000069  -0.000030
  162  H 29  S   -0.000008  -0.000039   0.000027   0.000066  -0.000042
  163  H 29  S    0.000003  -0.000024  -0.000016  -0.000131   0.000041
  164  H 30  S   -0.000012  -0.000045   0.000032   0.000120  -0.000101
  165  H 30  S    0.000002  -0.000049  -0.000048  -0.000003  -0.000072

                      6          7          8          9         10
                  -20.0753   -15.2497   -11.1535   -11.1481   -11.1319
                     A          A          A          A          A   
    1  C  1  S   -0.000037  -0.000522  -0.002439   0.000414   0.000920
    2  C  1  S    0.000367  -0.002159  -0.003861   0.000814   0.001487
    3  C  1  X   -0.001205  -0.001218   0.000019  -0.000061   0.000112
    4  C  1  Y    0.000043   0.000114  -0.000505  -0.000024   0.000610
    5  C  1  Z   -0.000024  -0.000243  -0.000045  -0.000067   0.000006
    6  C  1  S    0.005262   0.018418   0.026883  -0.005953  -0.008471
    7  C  1  X   -0.000234  -0.011607   0.010637  -0.002084  -0.005101
    8  C  1  Y   -0.000649  -0.000242  -0.012396   0.000227  -0.001188
    9  C  1  Z   -0.003082  -0.003861  -0.004196   0.002199   0.002890
   10  C  2  S    0.000028   0.000062  -0.003466  -0.002097  -0.002796
   11  C  2  S    0.000113  -0.000059  -0.002247  -0.001699  -0.001082
   12  C  2  X    0.000035   0.000697   0.000494  -0.000261  -0.000803
   13  C  2  Y    0.000042   0.000280   0.001161   0.000147  -0.000078
   14  C  2  Z   -0.000041   0.000049   0.000001  -0.000004  -0.000155
   15  C  2  S   -0.001369  -0.002830   0.004711   0.007704   0.002220
   16  C  2  X    0.000340  -0.001025   0.002773   0.002531  -0.002904
   17  C  2  Y    0.001114   0.001205  -0.001567  -0.002690  -0.000781
   18  C  2  Z    0.000475  -0.000334  -0.000573   0.000924   0.000630
   19  C  3  S   -0.000015  -0.000199   0.001653  -0.007139  -0.035764
   20  C  3  S   -0.000097  -0.001255   0.001503  -0.001832  -0.007983
   21  C  3  X    0.000011   0.000383  -0.000122  -0.001098   0.000358
   22  C  3  Y    0.000070   0.000354   0.000538   0.000494  -0.000255
   23  C  3  Z   -0.000004   0.000019  -0.000133  -0.000392   0.000103
   24  C  3  S    0.000264   0.004413  -0.009673   0.000705   0.034693
   25  C  3  X    0.000020  -0.002423   0.002568   0.004805   0.007976
   26  C  3  Y   -0.000576  -0.002992   0.003123  -0.000529  -0.015697
   27  C  3  Z    0.000015  -0.000306   0.004795   0.001579  -0.005778
   28  C  4  S    0.000007   0.000071  -0.014871  -0.007460   0.987705
   29  C  4  S   -0.000007   0.000289  -0.004740  -0.003000   0.106796
   30  C  4  X    0.000133   0.000223   0.002091  -0.000350  -0.000656
   31  C  4  Y    0.000012  -0.000098   0.000577  -0.000020   0.000078
   32  C  4  Z    0.000056   0.000095   0.000645  -0.000222   0.000629
   33  C  4  S   -0.000619  -0.002911   0.008933   0.022534  -0.101234
   34  C  4  X   -0.000561   0.000226  -0.014496   0.015560   0.001164
   35  C  4  Y   -0.000087  -0.000357  -0.000253  -0.002654  -0.008619
   36  C  4  Z   -0.000570  -0.001518  -0.004038   0.006115  -0.007411
   37  C  5  S   -0.000020  -0.000055  -0.010884   0.987627   0.006217
   38  C  5  S   -0.000113  -0.000305  -0.001993   0.101997  -0.002120
   39  C  5  X   -0.000016   0.000007  -0.000281  -0.000416  -0.000453
   40  C  5  Y    0.000003  -0.000023  -0.000197   0.000477   0.000288
   41  C  5  Z   -0.000008  -0.000029   0.000165   0.000060  -0.000008
   42  C  5  S    0.000754   0.001454   0.008723  -0.082250   0.023418
   43  C  5  X   -0.000362  -0.000901  -0.002746   0.010497  -0.013500
   44  C  5  Y    0.000033   0.000205   0.001659  -0.004237   0.001521
   45  C  5  Z   -0.000093   0.000174  -0.003069   0.001824  -0.004458
   46  C  6  S   -0.000069  -0.000035  -0.000049   0.000012   0.000058
   47  C  6  S   -0.000380  -0.000454  -0.000096   0.000043   0.000127
   48  C  6  X    0.000143  -0.000302   0.000047  -0.000041  -0.000047
   49  C  6  Y    0.000036  -0.000066   0.000133  -0.000002   0.000001
   50  C  6  Z    0.000381  -0.000214  -0.000033  -0.000009  -0.000014
   51  C  6  S    0.007761   0.001881   0.000746  -0.000523  -0.001053
   52  C  6  X    0.006954  -0.001331  -0.000047  -0.000216  -0.000449
   53  C  6  Y   -0.001261   0.000914  -0.000895   0.000046   0.000010
   54  C  6  Z   -0.004437   0.003786   0.000540  -0.000103  -0.000249
   55  H  7  S   -0.000054  -0.000287   0.000239  -0.000003  -0.000492
   56  H  7  S   -0.000147  -0.000173   0.000527   0.000166   0.001264
   57  H  8  S   -0.000036  -0.000143   0.000148   0.000526   0.000033
   58  H  8  S    0.000041   0.000365  -0.000031  -0.001644  -0.000729
   59  H  9  S   -0.000107  -0.000323  -0.000386   0.000088   0.000328
   60  H  9  S   -0.000057  -0.000248   0.002909  -0.000292  -0.001011
   61  H 10  S   -0.000006  -0.000053   0.000026  -0.000230   0.000147
   62  H 10  S    0.000020   0.000077   0.000202   0.001942   0.001144
   63  H 11  S   -0.002028   0.000689  -0.000735  -0.000190  -0.000234
   64  H 11  S   -0.001354   0.006393   0.000939   0.000012  -0.000153
   65  O 12  S    0.983642   0.000048   0.000002  -0.000007  -0.000009
   66  O 12  S    0.100881   0.000209   0.000006  -0.000053  -0.000068
   67  O 12  X    0.000042   0.000605   0.000029   0.000014   0.000018
   68  O 12  Y   -0.000632  -0.000018   0.000023  -0.000004  -0.000005
   69  O 12  Z   -0.004456   0.000089   0.000008   0.000001   0.000001
   70  O 12  S   -0.057820  -0.000832  -0.000218   0.000322   0.000477
   71  O 12  X   -0.000209  -0.003932  -0.000271  -0.000024   0.000027
   72  O 12  Y    0.002192   0.000407  -0.000230   0.000008  -0.000011
   73  O 12  Z    0.015997   0.001017   0.000113  -0.000073  -0.000112
   74  O 13  S   -0.000075   0.000013  -0.000037  -0.000003  -0.000004
   75  O 13  S    0.000061   0.000288  -0.000420  -0.000064  -0.000089
   76  O 13  X   -0.000060  -0.000158   0.000161   0.000006  -0.000277
   77  O 13  Y   -0.000044  -0.000246   0.000324   0.000014   0.000065
   78  O 13  Z    0.000048   0.000051  -0.000019   0.000040  -0.000082
   79  O 13  S   -0.000210  -0.000655   0.001204   0.000257  -0.000399
   80  O 13  X    0.000091   0.000626  -0.000658  -0.000109   0.001074
   81  O 13  Y    0.000161   0.000908  -0.001418   0.000028  -0.000005
   82  O 13  Z   -0.000112  -0.000062   0.000038  -0.000209   0.000361
   83  O 14  S    0.000016  -0.000017  -0.000033   0.000040   0.000031
   84  O 14  S   -0.000028  -0.000225  -0.000289   0.000381  -0.000144
   85  O 14  X   -0.000009   0.000005   0.000028   0.000124   0.000029
   86  O 14  Y    0.000001   0.000049   0.000168  -0.000288   0.000217
   87  O 14  Z   -0.000013  -0.000047   0.000161   0.000001  -0.000054
   88  O 14  S    0.000152   0.000947   0.000970  -0.000914  -0.000876
   89  O 14  X    0.000002  -0.000066  -0.000396  -0.000532  -0.000110
   90  O 14  Y   -0.000031  -0.000332  -0.001021   0.001410   0.001269
   91  O 14  Z    0.000074   0.000312  -0.000721  -0.000242   0.000248
   92  O 15  S    0.000015   0.000024  -0.000281   0.000032   0.000137
   93  O 15  S   -0.000054   0.000370  -0.001174   0.000235   0.001062
   94  O 15  X   -0.000048  -0.000214   0.000090   0.000018   0.000175
   95  O 15  Y    0.000048   0.000241  -0.000270   0.000039   0.000152
   96  O 15  Z    0.000039   0.000069   0.000402   0.000053   0.000137
   97  O 15  S    0.000412  -0.000772   0.011239  -0.001169  -0.004585
   98  O 15  X    0.000207   0.000907  -0.000242  -0.000205  -0.001317
   99  O 15  Y   -0.000123  -0.000972   0.002082  -0.000313  -0.001177
  100  O 15  Z    0.000042  -0.000420   0.004840  -0.000769  -0.002411
  101  O 16  S   -0.000010   0.000001   0.000020  -0.000184   0.000060
  102  O 16  S    0.000018   0.000012   0.000144  -0.000419   0.000245
  103  O 16  X   -0.000006  -0.000027   0.000042  -0.000110   0.000294
  104  O 16  Y   -0.000000  -0.000003   0.000048   0.000472  -0.000157
  105  O 16  Z   -0.000001  -0.000013  -0.000043   0.000496  -0.000056
  106  O 16  S   -0.000071  -0.000005  -0.000804   0.007537  -0.001918
  107  O 16  X    0.000048   0.000141   0.000028  -0.002314   0.000223
  108  O 16  Y   -0.000019   0.000012  -0.000502   0.001907  -0.000165
  109  O 16  Z   -0.000009   0.000046   0.000060   0.000532  -0.000045
  110  C 17  S    0.000158  -0.000246  -0.000046   0.000019   0.000106
  111  C 17  S    0.001610  -0.001088  -0.000140   0.000024   0.000135
  112  C 17  X   -0.000416   0.000841  -0.000059   0.000126   0.000284
  113  C 17  Y    0.000247  -0.000032  -0.000363  -0.000018  -0.000026
  114  C 17  Z    0.001705   0.000023  -0.000061  -0.000013  -0.000000
  115  C 17  S    0.014682   0.018664   0.001445   0.000588   0.000678
  116  C 17  X    0.004390   0.016180   0.001918  -0.000246  -0.000831
  117  C 17  Y    0.003831  -0.002453   0.001279  -0.000134  -0.000060
  118  C 17  Z    0.029634  -0.008000  -0.000306  -0.000729  -0.001053
  119  C 18  S    0.000037  -0.000069   0.987887   0.010393   0.013982
  120  C 18  S    0.000136  -0.000846   0.102905  -0.000179  -0.002286
  121  C 18  X    0.000180   0.000775   0.001096   0.000032  -0.001035
  122  C 18  Y   -0.000012  -0.000402   0.001460  -0.000218  -0.001134
  123  C 18  Z   -0.000090  -0.000108  -0.000503   0.000179   0.000556
  124  C 18  S   -0.001676   0.000445  -0.081174   0.005263   0.011220
  125  C 18  X    0.000014   0.000496   0.002467   0.001511   0.006888
  126  C 18  Y   -0.001482   0.000360  -0.014249   0.003275   0.008369
  127  C 18  Z    0.000524   0.000237  -0.000159  -0.000756  -0.004047
  128  O 19  S    0.000049  -0.000017  -0.000155   0.000068  -0.000201
  129  O 19  S   -0.000074  -0.000245  -0.000267   0.000248  -0.000365
  130  O 19  X   -0.000000   0.000088  -0.000597  -0.000643  -0.000014
  131  O 19  Y   -0.000045  -0.000090   0.000036  -0.000082   0.000561
  132  O 19  Z    0.000008  -0.000067  -0.000454  -0.000123  -0.000739
  133  O 19  S    0.000289   0.000705   0.006643  -0.002401   0.007745
  134  O 19  X   -0.000065  -0.000056  -0.003778   0.001401   0.005490
  135  O 19  Y    0.000230   0.000539  -0.000880  -0.000312   0.003724
  136  O 19  Z   -0.000069   0.000242   0.000336   0.000642   0.001585
  137  N 20  S    0.000013   0.986152  -0.000005  -0.000026  -0.000006
  138  N 20  S    0.000062   0.103594  -0.000714  -0.000204  -0.000018
  139  N 20  X    0.001207   0.000542  -0.000811  -0.000158  -0.000147
  140  N 20  Y    0.000074   0.000279   0.000469  -0.000020   0.000082
  141  N 20  Z    0.000905   0.001217   0.000005   0.000063   0.000123
  142  N 20  S    0.002047  -0.072045  -0.000458   0.000698  -0.000153
  143  N 20  X   -0.007757   0.000319   0.001724   0.001322   0.001013
  144  N 20  Y   -0.000615  -0.002103  -0.000694   0.000046  -0.000190
  145  N 20  Z   -0.007247  -0.009972  -0.000430  -0.000344  -0.000807
  146  H 21  S   -0.000460  -0.001447  -0.001617   0.000062   0.000227
  147  H 21  S    0.000758  -0.001940   0.001328  -0.000324  -0.000582
  148  H 22  S    0.000183   0.000291  -0.000538  -0.000597   0.000131
  149  H 22  S    0.000152  -0.000568  -0.000927   0.000015  -0.000835
  150  H 23  S   -0.000050  -0.000630   0.000291  -0.000395  -0.002075
  151  H 23  S    0.000030   0.000390  -0.001543  -0.000942   0.000970
  152  H 24  S    0.000007  -0.000020  -0.000375  -0.000042   0.000336
  153  H 24  S   -0.000648  -0.000235   0.011553   0.000991   0.003871
  154  H 25  S   -0.000068  -0.000062  -0.001608  -0.001203   0.001308
  155  H 25  S   -0.000102  -0.000274  -0.001965   0.001421   0.014683
  156  H 26  S   -0.000035  -0.000112  -0.000552   0.000435  -0.001341
  157  H 26  S   -0.000005   0.000078  -0.000895   0.015421   0.000904
  158  H 27  S   -0.000044  -0.000111  -0.000059   0.000535  -0.001645
  159  H 27  S   -0.000030  -0.000266   0.000586   0.014716   0.000990
  160  H 28  S    0.000699  -0.000795  -0.000111   0.000013   0.000040
  161  H 28  S    0.002213  -0.000283  -0.000128   0.000041   0.000039
  162  H 29  S   -0.000488   0.000257   0.000128   0.000024   0.000053
  163  H 29  S   -0.000888  -0.000239   0.000284  -0.000028  -0.000008
  164  H 30  S   -0.000886   0.000473  -0.000056   0.000025   0.000048
  165  H 30  S   -0.001410   0.000252  -0.000365   0.000023   0.000014

                     11         12         13         14         15
                  -11.1253   -11.0858   -11.0422   -10.9496   -10.9328
                     A          A          A          A          A   
    1  C  1  S   -0.003219  -0.003322   0.988608   0.000599   0.000146
    2  C  1  S   -0.002312  -0.003019   0.108445  -0.000982  -0.000636
    3  C  1  X   -0.001124   0.000576   0.000897   0.000357   0.000342
    4  C  1  Y   -0.000618   0.000547  -0.000110   0.000004  -0.000149
    5  C  1  Z   -0.000282  -0.000088  -0.001113  -0.000176  -0.000812
    6  C  1  S    0.003688   0.023403  -0.107490   0.004444   0.005292
    7  C  1  X    0.005128   0.006567  -0.007794  -0.004035  -0.007736
    8  C  1  Y    0.000993   0.015231   0.000543   0.000271   0.001009
    9  C  1  Z    0.002151  -0.002108   0.012206  -0.000332   0.003818
   10  C  2  S   -0.004102   0.988354   0.002304  -0.000017  -0.000004
   11  C  2  S   -0.003583   0.106418  -0.002828   0.000196   0.000108
   12  C  2  X    0.000694   0.001051  -0.000351  -0.000105  -0.000117
   13  C  2  Y   -0.000033  -0.000920  -0.000529   0.000007  -0.000009
   14  C  2  Z    0.000201   0.000828   0.000283   0.000046   0.000135
   15  C  2  S    0.026707  -0.098375   0.026492  -0.000597   0.000503
   16  C  2  X    0.016145  -0.006957  -0.011280   0.001239   0.000884
   17  C  2  Y    0.000116   0.011189  -0.014597  -0.000155  -0.001599
   18  C  2  Z    0.003647  -0.008949   0.001307  -0.000402  -0.001456
   19  C  3  S    0.987692   0.002893   0.002847   0.000073   0.000119
   20  C  3  S    0.105961  -0.002831  -0.001862  -0.000168  -0.000304
   21  C  3  X   -0.000297  -0.000401   0.000993   0.000119   0.000241
   22  C  3  Y   -0.000555  -0.000191   0.000425   0.000074   0.000080
   23  C  3  Z   -0.000662  -0.000339  -0.000060  -0.000083  -0.000102
   24  C  3  S   -0.097971   0.027593   0.005957   0.000252   0.000756
   25  C  3  X    0.006808  -0.017155  -0.003084  -0.000473  -0.001288
   26  C  3  Y    0.009479   0.001184  -0.002321  -0.000759  -0.000787
   27  C  3  Z    0.009168  -0.003296   0.000152   0.000773   0.000935
   28  C  4  S    0.034412   0.002734  -0.000421  -0.000015  -0.000066
   29  C  4  S   -0.000155  -0.000673   0.000759   0.000092   0.000191
   30  C  4  X   -0.000105   0.000850  -0.000434  -0.000035  -0.000167
   31  C  4  Y    0.000303  -0.000842  -0.000101  -0.000026  -0.000061
   32  C  4  Z    0.000114   0.000543  -0.000400   0.000018  -0.000017
   33  C  4  S    0.025306  -0.000110  -0.002359  -0.000357  -0.000263
   34  C  4  X   -0.010085  -0.003873   0.005187   0.000543   0.001475
   35  C  4  Y    0.014362   0.001755  -0.000423   0.000210   0.000442
   36  C  4  Z    0.002706  -0.003409   0.001527  -0.000392  -0.000147
   37  C  5  S    0.007249   0.001687  -0.000181  -0.000002  -0.000004
   38  C  5  S   -0.000308  -0.001146   0.000371   0.000004   0.000072
   39  C  5  X    0.000674   0.000238   0.000052   0.000006   0.000029
   40  C  5  Y   -0.000242  -0.000258  -0.000073   0.000007  -0.000004
   41  C  5  Z   -0.000059  -0.000053   0.000032  -0.000008  -0.000009
   42  C  5  S    0.001638   0.005414  -0.003212  -0.000099  -0.000741
   43  C  5  X   -0.001379  -0.003668   0.001327  -0.000047   0.000183
   44  C  5  Y   -0.001286   0.001518   0.000207  -0.000107  -0.000140
   45  C  5  Z    0.000675   0.000035   0.000811   0.000193   0.000436
   46  C  6  S   -0.000119   0.000075  -0.000945   0.987608   0.008717
   47  C  6  S   -0.000192   0.000107  -0.001117   0.101928  -0.001333
   48  C  6  X   -0.000022  -0.000013   0.000092  -0.000359  -0.000252
   49  C  6  Y   -0.000006  -0.000093  -0.000001   0.000005   0.000063
   50  C  6  Z   -0.000012   0.000003   0.000052  -0.000396  -0.000347
   51  C  6  S    0.000943  -0.000628   0.006468  -0.084593   0.019911
   52  C  6  X    0.000351  -0.000254   0.002179  -0.005428   0.012876
   53  C  6  Y    0.000125   0.000558   0.000171  -0.000387  -0.000735
   54  C  6  Z    0.000383  -0.000085   0.002302  -0.004246   0.006479
   55  H  7  S   -0.000141  -0.000039   0.000254  -0.000043  -0.000159
   56  H  7  S    0.000771   0.002017   0.001431   0.000078   0.000192
   57  H  8  S   -0.000226   0.000437   0.000219  -0.000033  -0.000025
   58  H  8  S    0.002107   0.000657   0.000721   0.000086   0.000133
   59  H  9  S   -0.000070   0.000002   0.001058  -0.000010   0.000057
   60  H  9  S    0.000223  -0.000291   0.001449  -0.000056  -0.000027
   61  H 10  S    0.000353  -0.000087  -0.000047  -0.000005  -0.000009
   62  H 10  S    0.000432   0.000513  -0.000046  -0.000001  -0.000005
   63  H 11  S   -0.000456  -0.000048  -0.001969  -0.000335  -0.002912
   64  H 11  S    0.000624  -0.000691   0.000252   0.000879  -0.001417
   65  O 12  S   -0.000001  -0.000006   0.000084   0.000025   0.000283
   66  O 12  S   -0.000040  -0.000019   0.000750  -0.000020   0.002115
   67  O 12  X   -0.000028   0.000082   0.000460  -0.000189   0.000462
   68  O 12  Y   -0.000013   0.000032  -0.000061   0.000023   0.000013
   69  O 12  Z   -0.000024  -0.000001   0.000063   0.000181   0.000281
   70  O 12  S   -0.000101   0.000337  -0.002997  -0.000644  -0.006492
   71  O 12  X   -0.000090  -0.000161  -0.002836   0.002396  -0.002458
   72  O 12  Y    0.000093  -0.000021   0.000401  -0.000090   0.000954
   73  O 12  Z    0.000145  -0.000104   0.000576   0.000392   0.005784
   74  O 13  S    0.000036  -0.000228   0.000052  -0.000013  -0.000019
   75  O 13  S   -0.000015  -0.000724   0.000169  -0.000103  -0.000132
   76  O 13  X   -0.000100   0.000376  -0.000054   0.000002  -0.000035
   77  O 13  Y    0.000270  -0.000326   0.000379  -0.000002  -0.000060
   78  O 13  Z   -0.000017  -0.000453  -0.000054   0.000021   0.000057
   79  O 13  S   -0.001226   0.009257  -0.001586   0.000516   0.000850
   80  O 13  X   -0.001203   0.001399   0.000448   0.000042   0.000341
   81  O 13  Y   -0.000224  -0.004018   0.000170  -0.000196  -0.000090
   82  O 13  Z    0.000069   0.000408   0.000331  -0.000128  -0.000239
   83  O 14  S   -0.000268   0.000045  -0.000047  -0.000011  -0.000016
   84  O 14  S   -0.000984   0.000062  -0.000501  -0.000089  -0.000138
   85  O 14  X   -0.000239   0.000292   0.000330  -0.000006   0.000005
   86  O 14  Y   -0.000304   0.000290   0.000160   0.000022   0.000039
   87  O 14  Z    0.000568   0.000132   0.000113  -0.000004   0.000003
   88  O 14  S    0.009978  -0.001448   0.001504   0.000450   0.000631
   89  O 14  X   -0.002195   0.000327  -0.001387  -0.000041  -0.000076
   90  O 14  Y   -0.004478  -0.000345  -0.000812  -0.000212  -0.000324
   91  O 14  Z   -0.000485  -0.000673  -0.000363   0.000047   0.000029
   92  O 15  S   -0.000027   0.000101   0.000087   0.000006   0.000011
   93  O 15  S   -0.000101   0.000824   0.000282   0.000054   0.000090
   94  O 15  X    0.000111  -0.000061   0.000467   0.000021   0.000062
   95  O 15  Y    0.000159   0.000112  -0.000670   0.000038   0.000022
   96  O 15  Z   -0.000013   0.000097  -0.000497   0.000006   0.000016
   97  O 15  S    0.001118  -0.003286  -0.003526  -0.000186  -0.000481
   98  O 15  X   -0.000251   0.000165  -0.001686  -0.000117  -0.000449
   99  O 15  Y   -0.000217  -0.001064   0.001856  -0.000169  -0.000124
  100  O 15  Z    0.000672  -0.001543  -0.000290  -0.000081  -0.000253
  101  O 16  S   -0.000024  -0.000012  -0.000012  -0.000001  -0.000004
  102  O 16  S   -0.000296  -0.000136  -0.000096  -0.000005  -0.000031
  103  O 16  X    0.000361   0.000043  -0.000006  -0.000004  -0.000001
  104  O 16  Y   -0.000084  -0.000050   0.000004  -0.000003  -0.000006
  105  O 16  Z    0.000105  -0.000021  -0.000022   0.000002   0.000001
  106  O 16  S    0.000577   0.000485   0.000464   0.000028   0.000138
  107  O 16  X   -0.001386  -0.000086  -0.000092   0.000017  -0.000020
  108  O 16  Y    0.000452   0.000241   0.000115   0.000027   0.000070
  109  O 16  Z   -0.000495   0.000156   0.000160  -0.000008   0.000007
  110  C 17  S   -0.000174   0.000030  -0.000327  -0.009347   0.986251
  111  C 17  S   -0.000223   0.000046  -0.000339  -0.003053   0.096750
  112  C 17  X   -0.000231   0.000125  -0.000839   0.000404   0.000109
  113  C 17  Y   -0.000028   0.000240  -0.000058   0.000041   0.000011
  114  C 17  Z   -0.000113   0.000102  -0.000498   0.000260  -0.000190
  115  C 17  S    0.001029   0.000112   0.003824   0.020559  -0.047690
  116  C 17  X    0.001737  -0.000425   0.010262  -0.015617   0.012267
  117  C 17  Y   -0.000354  -0.000719  -0.000679   0.000414   0.001424
  118  C 17  Z    0.000024  -0.000607   0.001205  -0.006232   0.017658
  119  C 18  S   -0.000657   0.003006   0.001138   0.000038  -0.000032
  120  C 18  S    0.000619  -0.002039  -0.003988  -0.000019  -0.000192
  121  C 18  X   -0.000032   0.000311  -0.000812  -0.000048  -0.000309
  122  C 18  Y   -0.000041  -0.001580   0.000632  -0.000071  -0.000067
  123  C 18  Z   -0.000531   0.000395   0.000384   0.000056   0.000047
  124  C 18  S   -0.003263   0.005565   0.031520   0.000280   0.002360
  125  C 18  X   -0.001107  -0.000446  -0.005947   0.001038   0.001954
  126  C 18  Y   -0.002409   0.005877   0.015206   0.000593   0.002475
  127  C 18  Z    0.001597  -0.002753   0.001467  -0.000189  -0.000615
  128  O 19  S   -0.000027   0.000075   0.000043  -0.000001   0.000012
  129  O 19  S   -0.000582   0.000724   0.000050  -0.000015   0.000084
  130  O 19  X   -0.000096  -0.000168   0.000150   0.000008  -0.000003
  131  O 19  Y   -0.000379   0.000378  -0.000034  -0.000036  -0.000028
  132  O 19  Z    0.000054  -0.000081   0.000043  -0.000036  -0.000064
  133  O 19  S    0.000718  -0.001831  -0.001261  -0.000048  -0.000514
  134  O 19  X    0.000066   0.001241   0.001494   0.000157   0.000465
  135  O 19  Y   -0.000073  -0.001926  -0.000355   0.000214   0.000184
  136  O 19  Z   -0.000329   0.000866   0.000007   0.000184   0.000371
  137  N 20  S   -0.000081   0.000029  -0.000238   0.000019   0.000155
  138  N 20  S   -0.000851  -0.000301  -0.000869  -0.000369   0.000565
  139  N 20  X   -0.000445  -0.000314  -0.000382   0.000909   0.000936
  140  N 20  Y   -0.000210  -0.000195   0.000137  -0.000101   0.000153
  141  N 20  Z   -0.000007   0.000020   0.000826   0.000042   0.001107
[...]
             92  O 15  S      1.98615     1.98047
             93  O 15  S      0.41391     0.57540
             94  O 15  X      0.78822     0.79184
             95  O 15  Y      0.69803     0.69185
             96  O 15  Z      0.59283     0.58560
             97  O 15  S      1.51807     1.05078
             98  O 15  X      0.99848     0.99471
             99  O 15  Y      0.89449     0.90221
            100  O 15  Z      0.79159     0.83192
            101  O 16  S      1.98596     1.98048
            102  O 16  S      0.41616     0.57481
            103  O 16  X      0.63018     0.61626
            104  O 16  Y      0.71415     0.71487
            105  O 16  Z      0.73001     0.73173
            106  O 16  S      1.51240     1.05571
            107  O 16  X      0.79212     0.81223
            108  O 16  Y      0.91491     0.93588
            109  O 16  Z      0.96150     0.97138
            110  C 17  S      1.98585     1.97428
            111  C 17  S      0.38156     0.39222
            112  C 17  X      0.46622     0.45127
            113  C 17  Y      0.59584     0.60572
            114  C 17  Z      0.56125     0.54068
            115  C 17  S      0.52327     0.49536
            116  C 17  X      0.20180     0.45794
            117  C 17  Y      0.66063     0.67159
            118  C 17  Z      0.03765     0.42102
            119  C 18  S      1.98915     1.97535
            120  C 18  S      0.37459     0.43316
            121  C 18  X      0.44058     0.43016
            122  C 18  Y      0.61190     0.59168
            123  C 18  Z      0.41272     0.39891
            124  C 18  S      0.86999     0.55490
            125  C 18  X      0.23433     0.41517
            126  C 18  Y      0.49045     0.55570
            127  C 18  Z      0.19542     0.41004
            128  O 19  S      1.98658     1.98062
            129  O 19  S      0.41009     0.57494
            130  O 19  X      0.59361     0.58914
            131  O 19  Y      0.69570     0.69896
            132  O 19  Z      0.78030     0.78674
            133  O 19  S      1.52722     1.01901
            134  O 19  X      0.77325     0.80109
            135  O 19  Y      0.90120     0.91827
            136  O 19  Z      0.99103     0.99838
            137  N 20  S      1.98789     1.97735
            138  N 20  S      0.34650     0.46191
            139  N 20  X      0.53625     0.52881
            140  N 20  Y      0.78572     0.81167
            141  N 20  Z      0.55085     0.53350
            142  N 20  S      1.31434     0.72293
            143  N 20  X      0.59506     0.65357
            144  N 20  Y      1.05893     1.01157
            145  N 20  Z      0.69727     0.66936
            146  H 21  S      0.45629     0.47005
            147  H 21  S      0.26999     0.41252
            148  H 22  S      0.47653     0.49203
            149  H 22  S      0.31680     0.44022
            150  H 23  S      0.47324     0.48762
            151  H 23  S      0.30925     0.43763
            152  H 24  S      0.48704     0.49667
            153  H 24  S      0.28330     0.42843
            154  H 25  S      0.47284     0.48604
            155  H 25  S      0.27903     0.42255
            156  H 26  S      0.48231     0.49041
            157  H 26  S      0.35881     0.46022
            158  H 27  S      0.47714     0.48291
            159  H 27  S      0.32314     0.44403
            160  H 28  S      0.47082     0.47436
            161  H 28  S      0.36815     0.45680
            162  H 29  S      0.47432     0.48544
            163  H 29  S      0.41618     0.49005
            164  H 30  S      0.47622     0.48552
            165  H 30  S      0.42922     0.49367

          ----- MULLIKEN ATOMIC OVERLAP POPULATIONS -----
          (OFF-DIAGONAL ELEMENTS NEED TO BE MULTIPLIED BY 2)

             1           2           3           4           5

    1    5.5450428
    2    0.1669229   5.4022983
    3   -0.0977313   0.1100121   5.7208014
    4    0.0057688  -0.0595796   0.0383534   5.5085641
    5   -0.0004802   0.0030177  -0.0711569   0.2348087   5.1160280
    6    0.0042910  -0.0000538   0.0000002  -0.0000000  -0.0000000
    7    0.0066581  -0.0630599  -0.0095051   0.0006826  -0.0000076
    8   -0.0001618   0.0047225  -0.0455445   0.0003981   0.0010096
    9    0.0071581  -0.0004412   0.0001194   0.0005073  -0.0000338
   10   -0.0000001   0.0000009  -0.0001678   0.0059494  -0.0460854
   11   -0.0551995   0.0012941  -0.0000488   0.0000106  -0.0000000
   12   -0.0076862  -0.0002040   0.0000035  -0.0000001  -0.0000000
   13   -0.0337381   0.2453819  -0.0445529   0.0018697  -0.0000121
   14    0.0015336  -0.0404099   0.1794746  -0.0340447  -0.0014241
   15   -0.0663075   0.0023271  -0.0016294   0.0002668   0.0000770
   16    0.0000003  -0.0000088   0.0013378  -0.0416725   0.2341223
   17   -0.0677745   0.0037212  -0.0000942  -0.0000058  -0.0000000
   18    0.1462273  -0.1347425   0.0248652  -0.0967395   0.0040276
   19   -0.0397403   0.0036570  -0.0426110   0.2059129  -0.0348715
   20    0.2639939  -0.0587550   0.0036093  -0.0000456   0.0000006
   21    0.3489500  -0.0413288  -0.0017843   0.0008088  -0.0000224
   22   -0.0515933   0.3695266  -0.0695624   0.0015380  -0.0001064
   23    0.0014886  -0.0480503   0.3613804  -0.0573766  -0.0040679
   24   -0.0481581   0.0046727  -0.0005257   0.0039899  -0.0000387
   25    0.0002357  -0.0017771  -0.0554590   0.3612551  -0.0457565
   26    0.0000072   0.0000603   0.0058411  -0.0711186   0.3454160
   27    0.0000329  -0.0001317   0.0010914  -0.0501137   0.3475858
   28   -0.0000876   0.0000010  -0.0000000   0.0000000  -0.0000000
   29    0.0000407  -0.0000069   0.0000004  -0.0000000  -0.0000000
   30   -0.0001462   0.0000115  -0.0000001   0.0000000   0.0000000

             6           7           8           9          10

    6    5.5964768
    7    0.0000006   0.4384257
    8   -0.0000000  -0.0011134   0.4276513
    9    0.0000006  -0.0000002   0.0000000   0.4207930
   10   -0.0000000  -0.0000000   0.0000012  -0.0000001   0.4293340
   11   -0.0021806   0.0000038  -0.0000000  -0.0002592  -0.0000000
   12   -0.0881558   0.0000015   0.0000000   0.0000000  -0.0000000
   13   -0.0000030   0.2581856  -0.0000170   0.0000001  -0.0000000
   14   -0.0000000   0.0184500   0.2582147  -0.0000003   0.0000009
   15   -0.0000040   0.0000014  -0.0000001   0.2569317  -0.0000000
   16    0.0000000   0.0000000  -0.0000038   0.0000024   0.2587952
   17    0.2758924   0.0000150  -0.0000000   0.0000034   0.0000000
   18   -0.0000452  -0.0002727   0.0000143  -0.0447041   0.0000050
   19    0.0000000  -0.0000004  -0.0000104   0.0019465  -0.0000494
   20   -0.1394329  -0.0001639   0.0000004  -0.0001145   0.0000000
   21    0.0013420  -0.0000593   0.0000032  -0.0000705  -0.0000000
   22   -0.0000153  -0.0011953  -0.0001802  -0.0001604  -0.0000000
   23   -0.0000001  -0.0001963  -0.0055373   0.0000010   0.0000011
   24   -0.0000023   0.0000015  -0.0000001  -0.0030057   0.0000000
   25    0.0000000   0.0000076  -0.0002606  -0.0005660  -0.0001060
   26   -0.0000000  -0.0000034   0.0015564   0.0000004  -0.0008640
   27    0.0000000   0.0000001  -0.0000587  -0.0000006  -0.0039036
   28    0.3543694   0.0000000  -0.0000000  -0.0000000  -0.0000000
   29    0.3101419  -0.0000009   0.0000000  -0.0000000   0.0000000
   30    0.3120239   0.0000000  -0.0000000  -0.0000002  -0.0000000

            11          12          13          14          15

   11    0.4218360
   12    0.0014838   8.4932944
   13   -0.0000060  -0.0000204   8.2517306
   14    0.0000001  -0.0000000  -0.0028187   8.3202994
   15    0.0094493  -0.0000001   0.0000022   0.0000002   8.3287461
   16    0.0000000  -0.0000000   0.0000000   0.0000005  -0.0000001
   17   -0.0154950   0.4515487   0.0009227   0.0000001   0.0000770
   18   -0.0034795   0.0000283   0.0012895  -0.0000542   0.1996658
   19    0.0000381   0.0000000  -0.0000009   0.0001976  -0.0335201
   20    0.3398510  -0.0694351  -0.0001010  -0.0000016  -0.0009557
   21    0.0025346   0.0305888   0.0016364  -0.0000224   0.0010684
   22    0.0017153  -0.0000063  -0.0312730   0.0004271   0.0077543
   23    0.0000002  -0.0000050   0.0019713  -0.0276703   0.0000039
   24    0.0002842   0.0000463  -0.0000079   0.0000005  -0.0317055
   25   -0.0000042  -0.0000000  -0.0000012   0.0021822   0.0095125
   26   -0.0000000   0.0000000   0.0000002   0.0060185   0.0000009
   27   -0.0000000  -0.0000000   0.0000002   0.0000410   0.0000009
   28    0.0000030   0.0045370  -0.0000000   0.0000000  -0.0000000
   29   -0.0001047   0.0023674   0.0000029  -0.0000000   0.0000002
   30    0.0018829   0.0020544  -0.0000000   0.0000000  -0.0000024

            16          17          18          19          20

   16    8.2643662
   17   -0.0000000   4.9717370
   18   -0.0000234   0.0034664   5.0472457
   19    0.0004544  -0.0000069   0.1859540   8.4638271
   20   -0.0000000  -0.0455073  -0.0563924   0.0007183   7.6528785
   21    0.0000000   0.0081802  -0.0300731   0.0005534  -0.0383312
   22    0.0000003  -0.0001765  -0.0000358  -0.0001760  -0.0005625
   23   -0.0000085  -0.0000123   0.0011000   0.0023939  -0.0000146
   24    0.0000002   0.0002338   0.3783386  -0.0312410   0.0035850
   25    0.0018892   0.0000001  -0.0062697  -0.0286415   0.0000047
   26   -0.0330553  -0.0000000  -0.0000840   0.0019264  -0.0000000
   27   -0.0288137   0.0000000  -0.0001811   0.0022711   0.0000000
   28    0.0000000  -0.0357434   0.0000006  -0.0000000   0.0036142
   29   -0.0000000  -0.0735183   0.0000025  -0.0000000   0.0074859
   30    0.0000000  -0.0633922   0.0000026   0.0000000   0.0068825

            21          22          23          24          25

   21    0.4384284
   22    0.0027308   0.5572729
   23    0.0021928   0.0043232   0.5438333
   24   -0.0009976   0.0000165  -0.0000762   0.4948642
   25    0.0000351   0.0030549   0.0035925   0.0000760   0.5046030
   26    0.0000008   0.0000092   0.0006791   0.0000008   0.0000187
   27    0.0000043  -0.0000009   0.0025496  -0.0000134   0.0042491
   28   -0.0000148   0.0000001   0.0000000  -0.0000001   0.0000000
   29   -0.0000122   0.0000022   0.0000000  -0.0000004  -0.0000000
   30   -0.0000552   0.0000002  -0.0000000   0.0000046   0.0000000

            26          27          28          29          30

   26    0.6247801
   27   -0.0400740   0.5657420
   28    0.0000000   0.0000000   0.5646955
   29    0.0000000  -0.0000000  -0.0328615   0.7536456
   30   -0.0000000   0.0000000  -0.0195513  -0.0766892   0.7424062

          TOTAL MULLIKEN AND LOWDIN ATOMIC POPULATIONS
       ATOM         MULL.POP.    CHARGE          LOW.POP.     CHARGE
    1 C             6.029547   -0.029547         5.994945    0.005055
    2 C             5.869078    0.130922         5.925044    0.074956
    3 C             6.006517   -0.006517         5.969858    0.030142
    4 C             5.959987    0.040013         5.932995    0.067005
    5 C             6.082030   -0.082030         5.983599    0.016401
    6 C             6.624646   -0.624646         6.296850   -0.296850
    7 H             0.646855    0.353145         0.769810    0.230190
    8 H             0.640684    0.359316         0.764446    0.235554
    9 H             0.638107    0.361893         0.760753    0.239247
   10 H             0.642911    0.357089         0.764054    0.235946
   11 H             0.703609    0.296391         0.829518    0.170482
   12 O             8.820441   -0.820441         8.574909   -0.574909
   13 O             8.650441   -0.650441         8.378133   -0.378133
   14 O             8.680395   -0.680395         8.406768   -0.406768
   15 O             8.681761   -0.681761         8.404787   -0.404787
   16 O             8.657383   -0.657383         8.393355   -0.393355
   17 C             5.414071    0.585929         6.010077   -0.010077
   18 C             5.619136    0.380864         5.765072    0.234928
   19 O             8.658981   -0.658981         8.367155   -0.367155
   20 N             7.872811   -0.872811         7.370684   -0.370684
   21 H             0.726286    0.273714         0.882577    0.117423
   22 H             0.793327    0.206673         0.932254    0.067746
   23 H             0.782496    0.217504         0.925250    0.074750
   24 H             0.770342    0.229658         0.925105    0.074895
   25 H             0.751875    0.248125         0.908592    0.091408
   26 H             0.841117    0.158883         0.950624    0.049376
   27 H             0.800277    0.199723         0.926936    0.073064
   28 H             0.838962    0.161038         0.931164    0.068836
   29 H             0.890495    0.109505         0.975491    0.024509
   30 H             0.905432    0.094568         0.979196    0.020804

          -------------------------------
          BOND ORDER AND VALENCE ANALYSIS     BOND ORDER THRESHOLD=0.050
          -------------------------------

                   BOND                       BOND                       BOND
  ATOM PAIR DIST  ORDER      ATOM PAIR DIST  ORDER      ATOM PAIR DIST  ORDER
    1   2  1.532  0.855        1  18  1.532  0.839        1  20  1.457  0.946
    1  21  1.092  0.864        2   3  1.529  0.857        2  13  1.448  0.878
    2  22  1.099  0.885        3   4  1.527  0.818        3  14  1.471  0.805
    3  23  1.099  0.890        4   5  1.517  0.912        4  19  1.477  0.835
    4  25  1.093  0.874        5  16  1.457  0.872        5  26  1.102  0.894
    5  27  1.099  0.892        6  17  1.528  0.916        6  28  1.091  0.946
    6  29  1.097  0.897        6  30  1.096  0.909        7  13  0.999  0.810
    8  14  0.993  0.825        9  15  0.995  0.824       10  16  0.995  0.828
   11  20  1.015  0.863       12  17  1.240  1.496       12  21  2.298  0.066
   15  18  1.450  0.833       17  20  1.376  0.645       18  19  1.446  0.801
   18  24  1.094  0.898

                       TOTAL       BONDED        FREE
      ATOM            VALENCE     VALENCE     VALENCE
    1 C                 3.465       3.465       0.000
    2 C                 3.437       3.437       0.000
    3 C                 3.383       3.383       0.000
    4 C                 3.420       3.420       0.000
    5 C                 3.553       3.553       0.000
    6 C                 3.694       3.680       0.014
    7 H                 0.859       0.859       0.000
    8 H                 0.844       0.844       0.000
    9 H                 0.845       0.845       0.000
   10 H                 0.844       0.844       0.000
   11 H                 0.890       0.890       0.000
   12 O                 1.727       1.640       0.087
   13 O                 1.761       1.761       0.000
   14 O                 1.736       1.736       0.000
   15 O                 1.747       1.747       0.000
   16 O                 1.742       1.742       0.000
   17 C                 3.436       3.032       0.404
   18 C                 3.380       3.380       0.000
   19 O                 1.748       1.748       0.000
   20 N                 2.532       2.528       0.004
   21 H                 0.925       0.925       0.000
   22 H                 0.914       0.914       0.000
   23 H                 0.904       0.904       0.000
   24 H                 0.906       0.906       0.000
   25 H                 0.900       0.900       0.000
   26 H                 0.923       0.923       0.000
   27 H                 0.910       0.910       0.000
   28 H                 0.937       0.937       0.000
   29 H                 0.921       0.913       0.007
   30 H                 0.929       0.925       0.004

          -----------------------------------------
          ATOMIC SPIN DENSITY AT THE NUCLEUS (A.U.)
          -----------------------------------------
                            SPIN DENS    ALPHA DENS     BETA DENS
    1  C            6.0    -0.0054941      47.07690      47.08239
    2  C            6.0     0.0111042      47.07900      47.06790
    3  C            6.0     0.0027466      47.09051      47.08777
    4  C            6.0    -0.0001163      47.07923      47.07934
    5  C            6.0    -0.0000203      46.99413      46.99415
    6  C            6.0    -0.0696444      46.97367      47.04331
    7  H            1.0     0.0000198       0.16791       0.16789
    8  H            1.0     0.0001925       0.16964       0.16944
    9  H            1.0    -0.0000256       0.16756       0.16759
   10  H            1.0    -0.0000008       0.16952       0.16952
   11  H            1.0    -0.0023450       0.17485       0.17719
   12  O            8.0     0.1335633     116.84869     116.71513
   13  O            8.0    -0.0005370     116.78819     116.78873
   14  O            8.0     0.0031618     116.75840     116.75524
   15  O            8.0    -0.0000452     116.76684     116.76689
   16  O            8.0     0.0000399     116.74917     116.74913
   17  C            6.0     0.1536621      46.94515      46.79148
   18  C            6.0     0.0072607      47.03343      47.02617
   19  O            8.0     0.0026701     116.81751     116.81484
   20  N            7.0    -0.0092239      76.58853      76.59775
   21  H            1.0     0.0001715       0.17955       0.17937
   22  H            1.0    -0.0001625       0.18720       0.18737
   23  H            1.0    -0.0000355       0.18587       0.18590
   24  H            1.0    -0.0001642       0.19018       0.19035
   25  H            1.0     0.0000299       0.18577       0.18574
   26  H            1.0     0.0000093       0.18883       0.18882
   27  H            1.0    -0.0000026       0.18656       0.18656
   28  H            1.0     0.0028717       0.18635       0.18347
   29  H            1.0     0.0214764       0.19769       0.17622
   30  H            1.0     0.0155546       0.19527       0.17972

          ---------------------
          ELECTROSTATIC MOMENTS
          ---------------------

 POINT   1           X           Y           Z (BOHR)    CHARGE
                -0.020210    0.091722    0.005834       -1.00 (A.U.)
         DX          DY          DZ         /D/  (DEBYE)
    17.026304   -0.957329   -2.289276   17.206170
 ...... END OF PROPERTY EVALUATION ......
 CPU     0: STEP CPU TIME=     0.09 TOTAL CPU TIME=         11.4 (      0.2 MIN)
 TOTAL WALL CLOCK TIME=         29.8 SECONDS, CPU UTILIZATION IS    38.33%
               580000  WORDS OF DYNAMIC MEMORY USED
 EXECUTION OF GAMESS TERMINATED NORMALLY Thu May 21 23:11:09 2020
 DDI: 263640 bytes (0.3 MB / 0 MWords) used by master data server.
Note: The following floating-point exceptions are signalling:Note: The following floating-point exceptions are signalling:Note: The following floating-point exceptions are signalling: IEEE_DENORMAL IEEE_DENORMAL
 IEEE_DENORMAL
Note: The following floating-point exceptions are signalling: IEEE_DENORMALNote: The following floating-point exceptions are signalling: IEEE_DENORMALNote: The following floating-point exceptions are signalling: IEEE_DENORMAL
 ----------------------------------------
 CPU timing information for all processes
 ========================================
 0: 10.997 + 0.447 = 11.445
 1: 11.143 + 0.174 = 11.317
 2: 10.290 + 0.124 = 10.415
 3: 10.803 + 0.167 = 10.971
 4: 10.678 + 0.192 = 10.871
 5: 10.649 + 0.174 = 10.823
 6: 11.65 + 0.209 = 11.275
 7: 11.12 + 0.156 = 11.169
 ----------------------------------------




Note: The following floating-point exceptions are signalling:Note: The following floating-point exceptions are signalling: IEEE_DENORMAL
 IEEE_DENORMAL
 ddikick.x: exited gracefully.
unset echo
----- accounting info -----
Files used on the master node pietdev were:
-rwxr-xr-x 1 piet piet     1776 mei 21 23:10 /home/piet/scr/beta-d-acetylglucosamine_fukui_acid.F05*
-rw-r--r-- 1 piet piet 68812800 mei 21 23:11 /home/piet/scr/beta-d-acetylglucosamine_fukui_acid.F10
ls: No match.
ls: No match.
ls: No match.
do 21 mei 2020 23:11:12 CEST
0.159u 0.035s 0:33.04 0.5%	0+0k 0+8io 0pf+0w
