----- GAMESS execution script 'rungms' -----
This job is running on host pietdev
under operating system Linux at zo 24 mei 2020 19:59:52 CEST
Available scratch disk space (Kbyte units) at beginning of the job is
Filesystem     1K-blocks     Used Available Use% Mounted on
/dev/sda2      244568380 31203396 200871928  14% /
GAMESS temporary binary files will be written to /home/piet/scr
GAMESS supplementary output files will be written to /home/piet/gamess/scr
Copying input file sucrose_fukui_neu.inp to your run's scratch directory...
cp sucrose_fukui_neu.inp /home/piet/scr/sucrose_fukui_neu.F05
unset echo
 
Assuming a single but multicore node.
 
/home/piet/gamess/ddikick.x /home/piet/gamess/gamess.03.x sucrose_fukui_neu -ddi 1 6 pietdev:cpus=6 -scr /home/piet/scr

 Distributed Data Interface kickoff program.
 Initiating 6 compute processes on 1 nodes to run the following command:
 /home/piet/gamess/gamess.03.x sucrose_fukui_neu 

          ******************************************************
          *         GAMESS VERSION = 30 SEP 2019 (R2)          *
          *             FROM IOWA STATE UNIVERSITY             *
          * M.W.SCHMIDT, K.K.BALDRIDGE, J.A.BOATZ, S.T.ELBERT, *
          *   M.S.GORDON, J.H.JENSEN, S.KOSEKI, N.MATSUNAGA,   *
          *          K.A.NGUYEN, S.J.SU, T.L.WINDUS,           *
          *       TOGETHER WITH M.DUPUIS, J.A.MONTGOMERY       *
          *         J.COMPUT.CHEM.  14, 1347-1363(1993)        *
          **************** 64 BIT LINUX VERSION ****************

  SINCE 1993, STUDENTS AND POSTDOCS WORKING AT IOWA STATE UNIVERSITY
  AND ALSO IN THEIR VARIOUS JOBS AFTER LEAVING ISU HAVE MADE IMPORTANT
  CONTRIBUTIONS TO THE CODE:
     IVANA ADAMOVIC, CHRISTINE AIKENS, YURI ALEXEEV, POOJA ARORA,
     ANDREY ASADCHEV, ROB BELL, PRADIPTA BANDYOPADHYAY, JONATHAN BENTZ,
     COLLEEN BERTONI, BRETT BODE, KURT BRORSEN, CALEB CARLIN, GALINA CHABAN,
     WEI CHEN, CHEOL HO CHOI, PAUL DAY, ALBERT DEFUSCO, NUWAN DESILVA,
     TIM DUDLEY, DMITRI FEDOROV, ALEX FINDLATER, GRAHAM FLETCHER, 
     MARK FREITAG, KURT GLAESEMANN, EMILIE B GUIDEZ, ANASTASIA GUNINA, 
     DAN KEMP, SAROM SOK LEANG, GRANT MERRILL,
     NORIYUKI MINEZAWA, JONATHAN MULLIN,
     TAKESHI NAGATA, SEAN NEDD, HEATHER NETZLOFF, BOSILJKA NJEGIC, RYAN OLSON,
     MIKE PAK, BUU PHAM, DAVID POOLE,
     SPENCER PRUITT, LUKE ROSKOP, TOSAPORN SATTASATHUCHANA,
     JIM SHOEMAKER, LYUDMILA SLIPCHENKO,
     TONY SMITH, JIE SONG, TETSUYA TAKETSUGU, SIMON WEBB,
     JORGE LUIS GALVEZ VALLEJO, PENG XU, SOOHAENG YOO,
     FEDERICO ZAHARIEV

  ADDITIONAL CODE HAS BEEN PROVIDED BY COLLABORATORS IN OTHER GROUPS:
     IOWA STATE UNIVERSITY:
          JOE IVANIC, AARON WEST, LAIMUTIS BYTAUTAS, KLAUS RUEDENBERG
     UNIVERSITY OF TOKYO: KIMIHIKO HIRAO, TAKAHITO NAKAJIMA,
          TAKAO TSUNEDA, MUNEAKI KAMIYA, SUSUMU YANAGISAWA,
          KIYOSHI YAGI, MAHITO CHIBA, SEIKEN TOKURA, NAOAKI KAWAKAMI
     UNIVERSITY OF AARHUS: FRANK JENSEN
     UNIVERSITY OF IOWA: VISVALDAS KAIRYS, HUI LI
     NATIONAL INST. OF STANDARDS AND TECHNOLOGY: WALT STEVENS, DAVID GARMER
     UNIVERSITY OF PISA: BENEDETTA MENNUCCI, JACOPO TOMASI
     UNIVERSITY OF MEMPHIS: HENRY KURTZ, PRAKASHAN KORAMBATH
     UNIVERSITY OF ALBERTA: TOBY ZENG, MARIUSZ KLOBUKOWSKI
     UNIVERSITY OF NEW ENGLAND: MARK SPACKMAN
     MIE UNIVERSITY: HIROAKI UMEDA
     NAT. INST. OF ADVANCED INDUSTRIAL SCIENCE AND TECHNOLOGY: KAZUO KITAURA
     MICHIGAN STATE UNIVERSITY:
          KAROL KOWALSKI, MARTA WLOCH, JEFFREY GOUR, JESSE LUTZ,
          WEI LI, JUN SHEN, J. EMILIANO DEUSTUA, PIOTR PIECUCH
     UNIVERSITY OF MINNESOTA:
          ANDREW SAND, PRACHI SHARMA, YINAN SHU
     UNIVERSITY OF SILESIA: MONIKA MUSIAL, STANISLAW KUCHARSKI
     FACULTES UNIVERSITAIRES NOTRE-DAME DE LA PAIX:
          OLIVIER QUINET, BENOIT CHAMPAGNE
     UNIVERSITY OF CALIFORNIA - SANTA BARBARA: BERNARD KIRTMAN
     INSTITUTE FOR MOLECULAR SCIENCE:
          KAZUYA ISHIMURA, MICHIO KATOUDA, AND SHIGERU NAGASE
     UNIVERSITY OF NOTRE DAME: ANNA POMOGAEVA, DAN CHIPMAN
     KYUSHU UNIVERSITY:
          HARUYUKI NAKANO,
          FENG LONG GU, JACEK KORCHOWIEC, MARCIN MAKOWSKI, AND YURIKO AOKI,
          HIROTOSHI MORI AND EISAKU MIYOSHI
     PENNSYLVANIA STATE UNIVERSITY:
          TZVETELIN IORDANOV, CHET SWALINA, JONATHAN SKONE,
          SHARON HAMMES-SCHIFFER
     WASEDA UNIVERSITY:
          MASATO KOBAYASHI, TOMOKO AKAMA, TSUGUKI TOUMA,
          TAKESHI YOSHIKAWA, YASUHIRO IKABATA, JUNJI SEINO,
          YUYA NAKAJIMA, HIROMI NAKAI
     NANJING UNIVERSITY: SHUHUA LI
     UNIVERSITY OF NEBRASKA:
          PEIFENG SU, DEJUN SI, NANDUN THELLAMUREGE, YALI WANG, HUI LI
     UNIVERSITY OF ZURICH: ROBERTO PEVERATI, KIM BALDRIDGE
     N. COPERNICUS UNIVERSITY AND JACKSON STATE UNIVERSITY:
          MARIA BARYSZ
     UNIVERSITY OF COPENHAGEN: Jimmy Kromann, CASPER STEINMANN
     TOKYO INSTITUTE OF TECHNOLOGY: HIROYA NAKATA
     NAGOYA UNIVERSITY: YOSHIO NISHIMOTO, STEPHAN IRLE
     MOSCOW STATE UNIVERSITY: VLADIMIR MIRONOV
     A.N.NESMEYANOV INSTITUTE OF ORGANOELEMENT COMPOUNDS OF RUSSIAN ACADEMY OF SCIENCES:
          IGOR S. GERASIMOV
     JOHANNES KEPLER UNIVERSITY LINZ:
          CHRISTIAN FRIEDL


 PARALLEL VERSION RUNNING ON        6 PROCESSORS IN        1 NODES.

 EXECUTION OF GAMESS BEGUN Sun May 24 19:59:52 2020

            ECHO OF THE FIRST FEW INPUT CARDS -
 INPUT CARD> $BASIS GBASIS=N21 NGAUSS=3 $END                                                
 INPUT CARD> $CONTRL SCFTYP=RHF MAXIT=60 MULT=1 ICHARG=0 $END                               
 INPUT CARD> $SYSTEM MEMDDI=1000 MWORDS=30 $END                                             
 INPUT CARD> $SCF DIRSCF=.TRUE. $END                                                        
 INPUT CARD> $DATA                                                                          
 INPUT CARD>                                                                                
 INPUT CARD>C1                                                                              
 INPUT CARD>C 6.0000000 1.1218649249 -1.3917683923 0.0656547234                             
 INPUT CARD>C 6.0000000 1.7857701736 -0.7055700545 -1.1504038108                            
 INPUT CARD>C 6.0000000 -0.6367799843 0.1458953275 1.0262127297                             
 INPUT CARD>C 6.0000000 2.8992970795 0.0846430041 0.7992779179                              
 INPUT CARD>C 6.0000000 2.2866178737 0.6027637475 -0.4958578778                             
 INPUT CARD>C 6.0000000 -2.0862173566 -0.1960132628 1.3845427953                            
 INPUT CARD>C 6.0000000 -1.2795394510 1.2542708777 -1.0046857864                            
 INPUT CARD>C 6.0000000 -2.9339453958 -0.1591916855 0.1098523629                            
 INPUT CARD>C 6.0000000 -2.7586965127 1.1548819218 -0.6471315529                            
 INPUT CARD>C 6.0000000 1.0065057748 -2.9094149277 0.0744883831                             
 INPUT CARD>C 6.0000000 2.9683152070 1.0665806627 1.9523817684                              
 INPUT CARD>C 6.0000000 -0.9065852871 2.4166448102 -1.8952098327                            
 INPUT CARD>H 1.0000000 0.7923692125 0.4350279177 -2.4566160105                             
 INPUT CARD>H 1.0000000 0.8357031605 -2.9754684181 2.0454029923                             
 INPUT CARD>H 1.0000000 2.6800642616 1.9730065855 -1.8259148631                             
 INPUT CARD>H 1.0000000 -1.4652086194 -2.0785334588 1.5452459645                            
 INPUT CARD>H 1.0000000 2.7639964586 -0.3888433606 3.2535624017                             
 INPUT CARD>H 1.0000000 -4.4356854714 -1.0805970188 0.9926924537                            
 INPUT CARD>H 1.0000000 -4.4011912835 0.7337848862 -1.6333887736                            
 INPUT CARD>H 1.0000000 0.5245385951 2.5922412086 -3.3403299088                             
 INPUT CARD>O 8.0000000 0.8992059809 -0.5534174638 -2.2702313478                            
 INPUT CARD>O 8.0000000 0.2883647712 -3.3235371316 1.2866428858                             
 INPUT CARD>O 8.0000000 3.2392934396 1.3502818977 -1.2840534014                             
 INPUT CARD>O 8.0000000 -2.1712022078 -1.5129342448 1.9924961577                            
 INPUT CARD>O 8.0000000 3.3896407208 0.3831990428 3.1675796278                              
 INPUT CARD>O 8.0000000 -4.3530083393 -0.2746742723 0.4107111299                            
 INPUT CARD>O 8.0000000 -3.5234176322 1.1384779464 -1.8824624074                            
 INPUT CARD>O 8.0000000 0.4546803816 2.1335494211 -2.4619046286                             
 INPUT CARD>O 8.0000000 -0.2601689160 -0.9748360028 0.2095788321                            
 INPUT CARD>O 8.0000000 1.9269381221 -0.9924895204 1.2202848173                             
 INPUT CARD>O 8.0000000 -0.5513673238 1.3959452303 0.2839022652                             
 INPUT CARD>H 1.0000000 2.6704950371 -1.2919351145 -1.4387228144                            
 INPUT CARD>H 1.0000000 0.3957058735 -3.2252540334 -0.7706512212                            
 INPUT CARD>H 1.0000000 2.0060127108 -3.3543385389 0.0131539824                             
 INPUT CARD>H 1.0000000 0.0196800907 0.2491229742 1.8871659364                              
 INPUT CARD>H 1.0000000 3.8771324837 -0.3724383708 0.6229508761                             
 INPUT CARD>H 1.0000000 1.4071054348 1.2031846833 -0.2502616933                             
 INPUT CARD>H 1.0000000 -2.4822435778 0.5339141231 2.0956914257                             
 INPUT CARD>H 1.0000000 3.7216919903 1.8262993934 1.7335719506                              
 INPUT CARD>H 1.0000000 1.9886244715 1.5567420271 2.0601594162                              
 INPUT CARD>H 1.0000000 -0.9496221411 0.3314356390 -1.4821651488                            
 INPUT CARD>H 1.0000000 -2.5937384029 -0.9747289261 -0.5404539079                           
 INPUT CARD>H 1.0000000 -3.0449233916 1.9899949996 0.0086426302                             
   30000000 WORDS OF MEMORY AVAILABLE

     BASIS OPTIONS
     -------------
     GBASIS=N21          IGAUSS=       3      POLAR=NONE    
     NDFUNC=       0     NFFUNC=       0     DIFFSP=       F
     NPFUNC=       0      DIFFS=       F     BASNAM=        


     RUN TITLE
     ---------
                                                                                 

 THE POINT GROUP OF THE MOLECULE IS C1      
 THE ORDER OF THE PRINCIPAL AXIS IS     0

 ATOM      ATOMIC                      COORDINATES (BOHR)
           CHARGE         X                   Y                   Z
 C           6.0     2.1200173033       -2.6300608998        0.1240694370
 C           6.0     3.3746163052       -1.3333340681       -2.1739479776
 C           6.0    -1.2033396848        0.2757021919        1.9392608642
 C           6.0     5.4788770373        0.1599520845        1.5104162529
 C           6.0     4.3210812199        1.1390583181       -0.9370355179
 C           6.0    -3.9423791548       -0.3704113567        2.6164065014
 C           6.0    -2.4179789529        2.3702282732       -1.8985808401
 C           6.0    -5.5443528610       -0.3008286651        0.2075908650
 C           6.0    -5.2131804923        2.1824103804       -1.2229013130
 C           6.0     1.9020201194       -5.4979969979        0.1407626333
 C           6.0     5.6093023864        2.0155451963        3.6894665657
 C           6.0    -1.7131977771        4.5667965009       -3.5814272730
 H           1.0     1.4973606927        0.8220835615       -4.6423311169
 H           1.0     1.5792499804       -5.6228199953        3.8652511899
 H           1.0     5.0645870839        3.7284418186       -3.4504787682
 H           1.0    -2.7688428055       -3.9278586934        2.9200914565
 H           1.0     5.2231959378       -0.7348074037        6.1483414232
 H           1.0    -8.3822301087       -2.0420322687        1.8759167276
 H           1.0    -8.3170455454        1.3866523688       -3.0866572135
 H           1.0     0.9912342147        4.8986255783       -6.3123082362
 O           8.0     1.6992529104       -1.0458073634       -4.2901151761
 O           8.0     0.5449304021       -6.2805744887        2.4314024982
 O           8.0     6.1213769947        2.5516627928       -2.4265090822
 O           8.0    -4.1029772367       -2.8590311601        3.7652717696
 O           8.0     6.4054921591        0.7241411896        5.9858575408
 O           8.0    -8.2259929835       -0.5190591105        0.7761314956
 O           8.0    -6.6582938652        2.1514113618       -3.5573381322
 O           8.0     0.8592213332        4.0318237871       -4.6523251560
 O           8.0    -0.4916479618       -1.8421729283        0.3960465655
 O           8.0     3.6413850461       -1.8755332392        2.3060039317
 O           8.0    -1.0419331606        2.6379539791        0.5364974885
 H           1.0     5.0465038717       -2.4414033603       -2.7187918915
 H           1.0     0.7477756726       -6.0948463639       -1.4563196402
 H           1.0     3.7908143513       -6.3387807086        0.0248574224
 H           1.0     0.0371899788        0.4707741585        3.5662265132
 H           1.0     7.3267180123       -0.7038064681        1.1772064596
 H           1.0     2.6590437076        2.2736893641       -0.4729260256
 H           1.0    -4.6907601968        1.0089513936        3.9602825494
 H           1.0     7.0329780724        3.4512054251        3.2759759666
 H           1.0     3.7579553436        2.9418158648        3.8931367876
 H           1.0    -1.7945256386        0.6263225403       -2.8008859998
 H           1.0    -4.9014548653       -1.8419705826       -1.0213097949
 H           1.0    -5.7540708637        3.7605452662        0.0163322029
 H           1.0    -3.1231658407        4.6487698104       -5.0917845351
 H           1.0    -1.6655378306        6.3326085073       -2.5100192924

          INTERNUCLEAR DISTANCES (ANGS.)
          ------------------------------

                1 C          2 C          3 C          4 C          5 C     

   1 C       0.0000000    1.5461037 *  2.5258490 *  2.4243058 *  2.3769948 *
   2 C       1.5461037 *  0.0000000    3.3662148    2.3802600 *  1.5462911 *
   3 C       2.5258490 *  3.3662148    0.0000000    3.5438810    3.3274138  
   4 C       2.4243058 *  2.3802600 *  3.5438810    0.0000000    1.5235490 *
   5 C       2.3769948 *  1.5462911 *  3.3274138    1.5235490 *  0.0000000  
   6 C       3.6689355    4.6559521    1.5317215 *  5.0275896    4.8265556  
   7 C       3.7301335    3.6411994    2.4012882 *  4.6994669    3.6607165  
   8 C       4.2391976    4.9155356    2.4919397 *  5.8789013    5.3105312  
   9 C       4.6959822    4.9362680    2.8845563 *  5.9372050    5.0776880  
  10 C       1.5220502 *  2.6390427 *  3.5973724    3.6155721    3.7814522  
  11 C       3.6072978    3.7638025    3.8343398    1.5161179 *  2.5833534 *
  12 C       4.7395792    4.1894796    3.7099606    5.2137546    3.9299996  
  13 H       3.1317091    1.9984993 *  3.7757332    3.8939389    2.4709283 *
  14 H       2.5513521 *  4.0333915    3.5985924    3.8955782    4.6224350  
  15 H       4.1626592    2.9035926 *  4.7407197    3.2412370    1.9497223 *
  16 H       3.0583960    4.4407679    2.4297681 *  4.9279520    5.0429814  
  17 H       3.7236017    4.5224065    4.1002820    2.5031995 *  3.9075987  
  18 H       5.6429242    6.5909041    3.9921285    7.4294793    7.0879368  
  19 H       6.1570184    6.3705188    4.6464919    7.7224596    6.7851260  
  20 H       5.2754016    4.1547612    5.1380895    5.3910926    3.8928094  
  21 O       2.4917410 *  1.4363705 *  3.7033545    3.7187865    2.5318112 *
  22 O       2.4325429 *  3.8775213    3.6000942    4.3209008    4.7524902  
  23 O       3.7180715    2.5213329 *  4.6703128    2.4612413 *  1.4448620 *
  24 O       3.8172883    5.1173516    2.4576149 *  5.4484847    5.5263228  
  25 O       4.2326416    4.7331596    4.5665993    2.4368885 *  3.8321851  
  26 O       5.5983212    6.3488072    3.7902604    7.2715904    6.7584319  
  27 O       5.6370167    5.6677948    4.2164307    7.0394292    5.9971805  
  28 O       4.3887991    3.3988871    4.1604107    4.5617409    3.0926751  
  29 O       1.4507117 *  2.4714214 *  1.4369292 *  3.3841493    3.0777565  
  30 O       1.4631258 *  2.3921571 *  2.8118027 *  1.5109412 *  2.3705165 *
  31 O       3.2586324    3.4548245    1.4563464 *  3.7272256    3.0481671  
  32 H       2.1613361 *  1.0998590 *  4.3682184    2.6374163 *  2.1508695 *
  33 H       2.1420514 *  2.9026364 *  3.9571954    4.4371235    4.2784085  
  34 H       2.1531733 *  2.9014390 *  4.5013641    3.6390303    3.9995613  
  35 H       2.6879805 *  3.6410634    1.0875827 *  3.0826528    3.3080011  
  36 H       2.9901692 *  2.7621658 *  4.5614357    1.0936986 *  2.1754284 *
  37 H       2.6296286 *  2.1440586 *  2.6314854 *  2.1399310 *  1.0928700 *
  38 H       4.5627733    5.5035804    2.1679666 *  5.5536936    5.4279745  
  39 H       4.4606063    4.2983104    4.7244463    2.1407022 *  2.9200744 *
  40 H       3.6637460    3.9328008    3.1547239    2.1415467 *  2.7444670 *
  41 H       3.1074487    2.9441157 *  2.5346114 *  4.4810789    3.3940640  
  42 H       3.7877431    4.4299640    2.7458932 *  5.7524420    5.1291665  
  43 H       5.3667214    5.6519961    3.1992667    6.2919971    5.5321120  
  44 H       5.4911537    4.9222164    4.4978526    6.2104239    4.8786822  
  45 H       5.3338939    4.8581461    3.9845267    5.4304069    4.2757669  

                6 C          7 C          8 C          9 C         10 C     

   1 C       3.6689355    3.7301335    4.2391976    4.6959822    1.5220502 *
   2 C       4.6559521    3.6411994    4.9155356    4.9362680    2.6390427 *
   3 C       1.5317215 *  2.4012882 *  2.4919397 *  2.8845563 *  3.5973724  
   4 C       5.0275896    4.6994669    5.8789013    5.9372050    3.6155721  
   5 C       4.8265556    3.6607165    5.3105312    5.0776880    3.7814522  
   6 C       0.0000000    2.9090319 *  1.5312852 *  2.5307799 *  4.3178383  
   7 C       2.9090319 *  0.0000000    2.4448171 *  1.5250012 *  4.8710265  
   8 C       1.5312852 *  2.4448171 *  0.0000000    1.5266061 *  4.8054275  
   9 C       2.5307799 *  1.5250012 *  1.5266061 *  0.0000000    5.5871274  
  10 C       4.3178383    4.8710265    4.8054275    5.5871274    0.0000000  
  11 C       5.2406950    5.1791645    6.3035000    6.2899865    4.8149476  
  12 C       4.3559490    1.5110397 *  3.8425769    2.5651630 *  5.9922067  
  13 H       4.8413815    2.6593356 *  4.5634721    4.0499990    4.1997193  
  14 H       4.0865299    5.6274317    5.0880272    6.1015773    1.9794042 *
  15 H       6.1424039    4.1072448    6.3095617    5.6248535    5.5000337  
  16 H       1.9888086 *  4.2005011    2.8109456 *  4.1151677    2.9938043 *
  17 H       5.2014413    6.0977606    6.5116967    6.9353182    4.4213760  
  18 H       2.5408730 *  4.4048139    1.9706896 *  3.2401668    5.8142170  
  19 H       3.9155510    3.2265900    2.4472653 *  1.9615848 *  6.7403959  
  20 H       6.0757577    3.2403851    5.6067149    4.4831855    6.4931885  
  21 O       4.7326382    3.1010118    4.5291569    4.3512056    3.3256500  
  22 O       3.9280568    5.3539553    4.6670334    5.7515479    1.4685170 *
  23 O       6.1541449    4.5284782    6.5061787    6.0348765    4.9975988  
  24 O       1.4529661 *  4.1755941    2.4410538 *  3.7986876    3.9656954  
  25 O       5.7878950    6.3220098    7.0449716    7.2766453    5.1076269  
  26 O       2.4683754 *  3.7131163    1.4551948 *  2.3884079 *  5.9815797  
  27 O       3.8104769    2.4122374 *  2.4496412 *  1.4529659 *  6.3824211  
  28 O       5.1650926    2.4298428 *  4.8325335    3.8179815    5.6717978  
  29 O       2.3068503 *  2.7354108 *  2.7971953 *  3.3929768    2.3163138 *
  30 O       4.0947249    4.5033238    5.0552581    5.4821182    2.4155016 *
  31 O       2.4701227 *  1.4868643 *  2.8505127 *  2.4077453 *  4.5833338  
  32 H       5.6389880    4.7195684    5.9237611    6.0074663    2.7703627 *
  33 H       4.4700228    4.7882526    4.6111390    5.3991761    1.0895374 *
  34 H       5.3480906    5.7506636    5.8840037    6.5932921    1.0957797 *
  35 H       2.2103349 *  3.3258232    3.4712344    3.8681313    3.7730606  
  36 H       6.0143736    5.6468265    6.8337052    6.9267628    3.8700851  
  37 H       4.1028825    2.7910260 *  4.5640414    4.1849426    4.1448062  
  38 H       1.0933266 *  3.4026093    2.1512757 *  2.8257928 *  5.3021834  
  39 H       6.1598199    5.7304091    7.1327519    6.9364246    5.7054171  
  40 H       4.4869750    4.4906191    5.5659519    5.4797785    4.9853791  
  41 H       3.1285884    1.0901637 *  2.5909021 *  2.1559441 *  4.0930086  
  42 H       2.1376595 *  2.6288914 *  1.0971509 *  2.1386523 *  4.1331492  
  43 H       2.7551498 *  2.1644179 *  2.1544287 *  1.0997179 *  6.3578795  
  44 H       4.8867878    2.1091275 *  4.0454918    2.6679849 *  6.6007077  
  45 H       4.6252248    2.1586593 *  4.3131387    2.9684243 *  6.6877064  

               11 C         12 C         13 H         14 H         15 H     

   1 C       3.6072978    4.7395792    3.1317091    2.5513521 *  4.1626592  
   2 C       3.7638025    4.1894796    1.9984993 *  4.0333915    2.9035926 *
   3 C       3.8343398    3.7099606    3.7757332    3.5985924    4.7407197  
   4 C       1.5161179 *  5.2137546    3.8939389    3.8955782    3.2412370  
   5 C       2.5833534 *  3.9299996    2.4709283 *  4.6224350    1.9497223 *
   6 C       5.2406950    4.3559490    4.8413815    4.0865299    6.1424039  
   7 C       5.1791645    1.5110397 *  2.6593356 *  5.6274317    4.1072448  
   8 C       6.3035000    3.8425769    4.5634721    5.0880272    6.3095617  
   9 C       6.2899865    2.5651630 *  4.0499990    6.1015773    5.6248535  
  10 C       4.8149476    5.9922067    4.1997193    1.9794042 *  5.5000337  
  11 C       0.0000000    5.6250767    4.9571021    4.5710883    3.8961804  
  12 C       5.6250767    0.0000000    2.6699118 *  6.9020927    3.6146468  
  13 H       4.9571021    2.6699118 *  0.0000000    5.6481447    2.5152644 *
  14 H       4.5710883    6.9020927    5.6481447    0.0000000    6.5479901  
  15 H       3.8961804    3.6146468    2.5152644 *  6.5479901    0.0000000  
  16 H       5.4510215    5.6881828    5.2373226    2.5196913 *  6.7054448  
  17 H       1.9629254 *  6.9176434    6.0969021    3.4450825    5.6023628  
  18 H       7.7685650    5.7467581    6.4441759    5.6996733    8.2403238  
  19 H       8.2023246    3.8875235    5.2668804    7.3971030    7.1914475  
  20 H       6.0259838    2.0414019 *  2.3465406 *  7.7525694    2.7061403 *
  21 O       4.9735368    3.4961111    1.0115224 *  4.9492488    3.1227699  
  22 O       5.1863742    6.6709655    5.3284912    0.9982224 *  6.5925426  
  23 O       3.2601270    4.3242285    2.8635696 *  5.9644482    0.9970643 *
  24 O       5.7506648    5.6705472    5.6896319    3.3441419    7.0899106  
  25 O       1.4564448 *  6.9443716    6.1951660    4.3660651    5.2882865  
  26 O       7.6011507    4.9435111    5.9329716    6.0736508    7.7148348  
  27 O       7.5401455    2.9123332 *  4.4102733    7.1662135    6.2596185  
  28 O       5.1906365    1.5014427 *  1.7317728 *  6.8237133    2.3200410 *
  29 O       4.1985538    4.0435296    3.1943932    2.9280908 *  4.6344343  
  30 O       2.4207855 *  5.4182431    4.1042237    2.4091117 *  4.3174875  
  31 O       3.9090242    2.4323933 *  3.1999110    4.9128512    3.9021120  
  32 H       4.1413626    5.1727603    2.7469737 *  4.2825084    3.2878342  
  33 H       5.6967598    5.8984419    4.0493806    2.8611452 *  5.7752739  
  34 H       4.9225153    6.7401282    4.6831605    2.3755427 *  5.6760132  
  35 H       3.0605456    4.4567348    4.4158862    3.3300033    4.8822523  
  36 H       2.1596553 *  6.0830974    4.4330011    4.2484618    3.5959738  
  37 H       2.7032711 *  3.0873135    2.4157742 *  4.8018453    2.1669640 *
  38 H       5.4783996    4.6855807    5.6085979    4.8298101    6.6407383  
  39 H       1.0920746 *  5.9107965    5.2985133    5.6109842    3.7116651  
  40 H       1.1007580 *  4.9766071    4.8052606    4.6765775    3.9689972  
  41 H       5.2618232    2.1261598 *  1.9987045 *  5.1542931    3.9984425  
  42 H       6.4278779    4.0228429    4.1382141    4.7382153    6.1769369  
  43 H       6.3866935    2.8946803 *  4.8187381    6.6229512    6.0117696  
  44 H       6.6998990    1.0942470 *  3.1836423    7.6290910    4.4457247  
  45 H       5.5499055    1.0932703 *  3.5465365    7.3725804    3.8510410  

               16 H         17 H         18 H         19 H         20 H     

   1 C       3.0583960    3.7236017    5.6429242    6.1570184    5.2754016  
   2 C       4.4407679    4.5224065    6.5909041    6.3705188    4.1547612  
   3 C       2.4297681 *  4.1002820    3.9921285    4.6464919    5.1380895  
   4 C       4.9279520    2.5031995 *  7.4294793    7.7224596    5.3910926  
   5 C       5.0429814    3.9075987    7.0879368    6.7851260    3.8928094  
   6 C       1.9888086 *  5.2014413    2.5408730 *  3.9155510    6.0757577  
   7 C       4.2005011    6.0977606    4.4048139    3.2265900    3.2403851  
   8 C       2.8109456 *  6.5116967    1.9706896 *  2.4472653 *  5.6067149  
   9 C       4.1151677    6.9353182    3.2401668    1.9615848 *  4.4831855  
  10 C       2.9938043 *  4.4213760    5.8142170    6.7403959    6.4931885  
  11 C       5.4510215    1.9629254 *  7.7685650    8.2023246    6.0259838  
  12 C       5.6881828    6.9176434    5.7467581    3.8875235    2.0414019 *
  13 H       5.2373226    6.0969021    6.4441759    5.2668804    2.3465406 *
  14 H       2.5196913 *  3.4450825    5.6996733    7.3971030    7.7525694  
  15 H       6.7054448    5.6023628    8.2403238    7.1914475    2.7061403 *
  16 H       0.0000000    4.8641107    3.1819688    5.1607022    7.0458556  
  17 H       4.8641107    0.0000000    7.5779599    8.7454275    7.5750546  
  18 H       3.1819688    7.5779599    0.0000000    3.1920956    7.5411303  
  19 H       5.1607022    8.7454275    3.1920956    0.0000000    5.5344668  
  20 H       7.0458556    7.5750546    7.5411303    5.5344668    0.0000000  
  21 O       4.7407069    5.8323945    6.2757993    5.4915089    3.3437487  
  22 O       2.1660862 *  4.3139254    5.2377321    6.8542237    7.5140594  
  23 O       6.4725613    4.8826654    8.3664834    7.6732725    3.6250007  
  24 O       1.0091393 *  5.2163257    2.5128485 *  4.8132774    7.2497254  
  25 O       5.6799345    0.9974333 *  8.2527912    9.1580168    7.4459092  
  26 O       3.5889364    7.6646328    0.9975216 *  2.2798368 *  6.7882234  
  27 O       5.1317221    8.2609344    3.7447352    0.9981487 *  4.5414485  
  28 O       6.1224890    6.6604782    6.7956351    5.1210613    0.9934331 *
  29 O       2.1105154 *  4.3306812    4.2496342    4.8439634    5.0932954  
  30 O       3.5765557    2.2801915 *  6.3673024    7.1532299    5.9679331  
  31 O       3.8076365    4.7954133    4.6608553    4.3515061    3.9653192  
  32 H       5.1601213    4.7793156    7.5136040    7.3586808    4.8278426  
  33 H       3.1845487    5.4633617    5.5723673    6.2792139    6.3610610  
  34 H       4.0030441    4.4574598    6.9010776    7.7766393    6.9858736  
  35 H       2.7820475 *  3.1313436    4.7348200    5.6721518    5.7508085  
  36 H       5.6834846    2.8564765 *  8.3511161    8.6513261    5.9780269  
  37 H       4.7163238    4.0807462    6.3952169    5.9891308    3.5009890  
  38 H       2.8569621 *  5.4511633    2.7639081 *  4.1986126    6.5442935  
  39 H       6.4951616    2.8520886 *  8.6914761    8.8606572    6.0459025  
  40 H       5.0407665    2.4105425 *  7.0261512    7.4262576    5.6904386  
  41 H       3.9037160    6.0610956    4.5023765    3.4782299    3.2767618  
  42 H       2.6157423 *  6.5911414    2.3988570 *  2.7166914 *  5.5032929  
  43 H       4.6270479    7.0662526    3.5115678    2.4726087 *  4.9314680  
  44 H       6.2135924    7.9373957    5.8203111    3.4146628    2.2748710 *
  45 H       6.1707734    6.9475598    6.1367451    4.3968722    2.5692166 *

               21 O         22 O         23 O         24 O         25 O     

   1 C       2.4917410 *  2.4325429 *  3.7180715    3.8172883    4.2326416  
   2 C       1.4363705 *  3.8775213    2.5213329 *  5.1173516    4.7331596  
   3 C       3.7033545    3.6000942    4.6703128    2.4576149 *  4.5665993  
   4 C       3.7187865    4.3209008    2.4612413 *  5.4484847    2.4368885 *
   5 C       2.5318112 *  4.7524902    1.4448620 *  5.5263228    3.8321851  
   6 C       4.7326382    3.9280568    6.1541449    1.4529661 *  5.7878950  
   7 C       3.1010118    5.3539553    4.5284782    4.1755941    6.3220098  
   8 C       4.5291569    4.6670334    6.5061787    2.4410538 *  7.0449716  
   9 C       4.3512056    5.7515479    6.0348765    3.7986876    7.2766453  
  10 C       3.3256500    1.4685170 *  4.9975988    3.9656954    5.1076269  
  11 C       4.9735368    5.1863742    3.2601270    5.7506648    1.4564448 *
  12 C       3.4961111    6.6709655    4.3242285    5.6705472    6.9443716  
  13 H       1.0115224 *  5.3284912    2.8635696 *  5.6896319    6.1951660  
  14 H       4.9492488    0.9982224 *  5.9644482    3.3441419    4.3660651  
  15 H       3.1227699    6.5925426    0.9970643 *  7.0899106    5.2882865  
  16 H       4.7407069    2.1660862 *  6.4725613    1.0091393 *  5.6799345  
  17 H       5.8323945    4.3139254    4.8826654    5.2163257    0.9974333 *
  18 H       6.2757993    5.2377321    8.3664834    2.5128485 *  8.2527912  
  19 H       5.4915089    6.8542237    7.6732725    4.8132774    9.1580168  
  20 H       3.3437487    7.5140594    3.6250007    7.2497254    7.4459092  
  21 O       0.0000000    4.5495103    3.1737403    5.3403113    6.0538669  
  22 O       4.5495103    0.0000000    6.0959859    3.1346421    5.1861092  
  23 O       3.1737403    6.0959859    0.0000000    6.9431439    4.5579480  
  24 O       5.3403113    3.1346421    6.9431439    0.0000000    5.9915872  
  25 O       6.0538669    5.1861092    4.5579480    5.9915872    0.0000000  
  26 O       5.9034656    5.6218472    7.9470596    2.9657393 *  8.2451037  
  27 O       4.7510498    6.6695196    6.7924381    4.8860799    8.5944020  
  28 O       2.7302258 *  6.6226175    3.1232854    6.3272260    6.5855001  
  29 O       2.7696935 *  2.6414680 *  4.4590747    2.6684063 *  4.8903107  
  30 O       3.6650676    2.8501068 *  3.6718612    4.2026096    2.7971369 *
  31 O       3.5253051    4.8973618    4.1023992    3.7422905    4.9872632  
  32 H       2.0914779 *  4.1508517    2.7071692 *  5.9383614    4.9539143  
  33 H       3.1049901    2.0624356 *  5.4115710    4.1419850    6.1232542  
  34 H       3.7794217    2.1384661 *  5.0336052    4.9757100    5.0827173  
  35 H       4.3245334    3.6327289    4.6513539    2.8135219 *  3.6075019  
  36 H       4.1558757    4.6934768    2.6478801 *  6.3054530    2.6988463 *
  37 H       2.7246817 *  4.9096707    2.1088565 *  5.0211105    4.0354011  
  38 H       5.6283011    4.8177547    6.6951563    2.0729168 *  5.9708194  
  39 H       5.4460922    6.2055054    3.0927922    6.7781801    2.0613526 *
  40 H       4.9388146    5.2255464    3.5763890    5.1702658    2.1369205 *
  41 H       2.1959460 *  4.7494984    4.3155891    4.1191297    6.3601893  
  42 H       3.9204966    4.1426684    6.3232014    2.6237450 *  7.1689823  
  43 H       5.2171228    6.4013841    6.4476102    4.1194146    7.3460392  
  44 H       3.9715310    7.2846748    5.2108007    6.1660970    8.0063694  
  45 H       4.3934964    7.2633545    4.5809321    6.0290599    6.8747509  

               26 O         27 O         28 O         29 O         30 O     

   1 C       5.5983212    5.6370167    4.3887991    1.4507117 *  1.4631258 *
   2 C       6.3488072    5.6677948    3.3988871    2.4714214 *  2.3921571 *
   3 C       3.7902604    4.2164307    4.1604107    1.4369292 *  2.8118027 *
   4 C       7.2715904    7.0394292    4.5617409    3.3841493    1.5109412 *
   5 C       6.7584319    5.9971805    3.0926751    3.0777565    2.3705165 *
   6 C       2.4683754 *  3.8104769    5.1650926    2.3068503 *  4.0947249  
   7 C       3.7131163    2.4122374 *  2.4298428 *  2.7354108 *  4.5033238  
   8 C       1.4551948 *  2.4496412 *  4.8325335    2.7971953 *  5.0552581  
   9 C       2.3884079 *  1.4529659 *  3.8179815    3.3929768    5.4821182  
  10 C       5.9815797    6.3824211    5.6717978    2.3163138 *  2.4155016 *
  11 C       7.6011507    7.5401455    5.1906365    4.1985538    2.4207855 *
  12 C       4.9435111    2.9123332 *  1.5014427 *  4.0435296    5.4182431  
  13 H       5.9329716    4.4102733    1.7317728 *  3.1943932    4.1042237  
  14 H       6.0736508    7.1662135    6.8237133    2.9280908 *  2.4091117 *
  15 H       7.7148348    6.2596185    2.3200410 *  4.6344343    4.3174875  
  16 H       3.5889364    5.1317221    6.1224890    2.1105154 *  3.5765557  
  17 H       7.6646328    8.2609344    6.6604782    4.3306812    2.2801915 *
  18 H       0.9975216 *  3.7447352    6.7956351    4.2496342    6.3673024  
  19 H       2.2798368 *  0.9981487 *  5.1210613    4.8439634    7.1532299  
  20 H       6.7882234    4.5414485    0.9934331 *  5.0932954    5.9679331  
  21 O       5.9034656    4.7510498    2.7302258 *  2.7696935 *  3.6650676  
  22 O       5.6218472    6.6695196    6.6226175    2.6414680 *  2.8501068 *
  23 O       7.9470596    6.7924381    3.1232854    4.4590747    3.6718612  
  24 O       2.9657393 *  4.8860799    6.3272260    2.6684063 *  4.2026096  
  25 O       8.2451037    8.5944020    6.5855001    4.8903107    2.7971369 *
  26 O       0.0000000    2.8184863 *  6.0963377    4.1571643    6.3724717  
  27 O       2.8184863 *  0.0000000    4.1413988    4.4149207    6.6237784  
  28 O       6.0963377    4.1413988    0.0000000    4.1605160    5.0495724  
  29 O       4.1571643    4.4149207    4.1605160    0.0000000    2.4094139 *
  30 O       6.3724717    6.6237784    5.0495724    2.4094139 *  0.0000000  
  31 O       4.1544584    3.6868019    3.0158991    2.3897540 *  3.5669918  
  32 H       7.3338138    6.6684606    4.2060290    3.3773127    2.7772047 *
  33 H       5.7141775    5.9697412    5.6196611    2.5407487 *  3.3606154  
  34 H       7.0766894    7.3724732    6.2168691    3.2918375    2.6536293 *
  35 H       4.6448559    5.2492468    4.7596957    2.0953972 *  2.3714901 *
  36 H       8.2334574    7.9578958    5.2449487    4.2013120    2.1317902 *
  37 H       5.9832987    5.1940662    2.5814834 *  2.7811924 *  2.6932728 *
  38 H       2.6443779 *  4.1563504    5.6529671    3.2819755    4.7473285  
  39 H       8.4477711    8.1265255    5.3263300    5.1013852    3.3808543  
  40 H       6.8037543    6.7898321    4.8098601    3.8588350    2.6847302 *
  41 H       3.9412419    2.7268990 *  2.4858739 *  2.2458159 *  4.1630052  
  42 H       2.1189200 *  2.6703808 *  4.7588049    2.4511417 *  4.8514980  
  43 H       2.6460295 *  2.1284540 *  4.2861916    4.0725245    5.9230649  
  44 H       4.9408761    2.4300967 *  2.1451696 *  4.7085927    6.3292111  
  45 H       5.3124680    3.4904404    2.1336735 *  4.6329548    5.7661165  

               31 O         32 H         33 H         34 H         35 H     

   1 C       3.2586324    2.1613361 *  2.1420514 *  2.1531733 *  2.6879805 *
   2 C       3.4548245    1.0998590 *  2.9026364 *  2.9014390 *  3.6410634  
   3 C       1.4563464 *  4.3682184    3.9571954    4.5013641    1.0875827 *
   4 C       3.7272256    2.6374163 *  4.4371235    3.6390303    3.0826528  
   5 C       3.0481671    2.1508695 *  4.2784085    3.9995613    3.3080011  
   6 C       2.4701227 *  5.6389880    4.4700228    5.3480906    2.2103349 *
   7 C       1.4868643 *  4.7195684    4.7882526    5.7506636    3.3258232  
   8 C       2.8505127 *  5.9237611    4.6111390    5.8840037    3.4712344  
   9 C       2.4077453 *  6.0074663    5.3991761    6.5932921    3.8681313  
  10 C       4.5833338    2.7703627 *  1.0895374 *  1.0957797 *  3.7730606  
  11 C       3.9090242    4.1413626    5.6967598    4.9225153    3.0605456  
  12 C       2.4323933 *  5.1727603    5.8984419    6.7401282    4.4567348  
  13 H       3.1999110    2.7469737 *  4.0493806    4.6831605    4.4158862  
  14 H       4.9128512    4.2825084    2.8611452 *  2.3755427 *  3.3300033  
  15 H       3.9021120    3.2878342    5.7752739    5.6760132    4.8822523  
  16 H       3.8076365    5.1601213    3.1845487    4.0030441    2.7820475 *
  17 H       4.7954133    4.7793156    5.4633617    4.4574598    3.1313436  
  18 H       4.6608553    7.5136040    5.5723673    6.9010776    4.7348200  
  19 H       4.3515061    7.3586808    6.2792139    7.7766393    5.6721518  
  20 H       3.9653192    4.8278426    6.3610610    6.9858736    5.7508085  
  21 O       3.5253051    2.0914779 *  3.1049901    3.7794217    4.3245334  
  22 O       4.8973618    4.1508517    2.0624356 *  2.1384661 *  3.6327289  
  23 O       4.1023992    2.7071692 *  5.4115710    5.0336052    4.6513539  
  24 O       3.7422905    5.9383614    4.1419850    4.9757100    2.8135219 *
  25 O       4.9872632    4.9539143    6.1232542    5.0827173    3.6075019  
  26 O       4.1544584    7.3338138    5.7141775    7.0766894    4.6448559  
  27 O       3.6868019    6.6684606    5.9697412    7.3724732    5.2492468  
  28 O       3.0158991    4.2060290    5.6196611    6.2168691    4.7596957  
  29 O       2.3897540 *  3.3773127    2.5407487 *  3.2918375    2.0953972 *
  30 O       3.5669918    2.7772047 *  3.3606154    2.6536293 *  2.3714901 *
  31 O       0.0000000    4.5356956    4.8336853    5.4017306    2.0522551 *
  32 H       4.5356956    0.0000000    3.0592005    2.6082544 *  4.5236286  
  33 H       4.8336853    3.0592005    0.0000000    1.7955783 *  4.3905220  
  34 H       5.4017306    2.6082544 *  1.7955783 *  0.0000000    4.5213242  
  35 H       2.0522551 *  4.5236286    4.3905220    4.5213242    0.0000000  
  36 H       4.7805591    2.5596770 *  4.7117953    3.5727678    4.1066431  
  37 H       2.0391428 *  3.0387853    4.5721771    4.6042476    2.7209887 *
  38 H       2.7845935 *  6.5097254    5.5344249    6.2928464    2.5266996 *
  39 H       4.5327456    4.5707609    6.5461064    5.7220978    4.0269056  
  40 H       3.1036275    4.5631224    5.7808619    5.3206434    2.3699233 *
  41 H       2.1001861 *  3.9676779    3.8686174    4.9554705    3.5069523  
  42 H       3.2358830    5.3497346    3.7489507    5.2083331    3.7710884  
  43 H       2.5780777 *  6.7477359    6.2963522    7.3534942    3.9939053  
  44 H       3.3490051    5.8603878    6.3418771    7.3840502    5.3550189  
  45 H       2.5554725 *  5.8468309    6.7223425    7.4228590    4.5577231  

               36 H         37 H         38 H         39 H         40 H     

   1 C       2.9901692 *  2.6296286 *  4.5627733    4.4606063    3.6637460  
   2 C       2.7621658 *  2.1440586 *  5.5035804    4.2983104    3.9328008  
   3 C       4.5614357    2.6314854 *  2.1679666 *  4.7244463    3.1547239  
   4 C       1.0936986 *  2.1399310 *  5.5536936    2.1407022 *  2.1415467 *
   5 C       2.1754284 *  1.0928700 *  5.4279745    2.9200744 *  2.7444670 *
   6 C       6.0143736    4.1028825    1.0933266 *  6.1598199    4.4869750  
   7 C       5.6468265    2.7910260 *  3.4026093    5.7304091    4.4906191  
   8 C       6.8337052    4.5640414    2.1512757 *  7.1327519    5.5659519  
   9 C       6.9267628    4.1849426    2.8257928 *  6.9364246    5.4797785  
  10 C       3.8700851    4.1448062    5.3021834    5.7054171    4.9853791  
  11 C       2.1596553 *  2.7032711 *  5.4783996    1.0920746 *  1.1007580 *
  12 C       6.0830974    3.0873135    4.6855807    5.9107965    4.9766071  
  13 H       4.4330011    2.4157742 *  5.6085979    5.2985133    4.8052606  
  14 H       4.2484618    4.8018453    4.8298101    5.6109842    4.6765775  
  15 H       3.5959738    2.1669640 *  6.6407383    3.7116651    3.9689972  
  16 H       5.6834846    4.7163238    2.8569621 *  6.4951616    5.0407665  
  17 H       2.8564765 *  4.0807462    5.4511633    2.8520886 *  2.4105425 *
  18 H       8.3511161    6.3952169    2.7639081 *  8.6914761    7.0261512  
  19 H       8.6513261    5.9891308    4.1986126    8.8606572    7.4262576  
  20 H       5.9780269    3.5009890    6.5442935    6.0459025    5.6904386  
  21 O       4.1558757    2.7246817 *  5.6283011    5.4460922    4.9388146  
  22 O       4.6934768    4.9096707    4.8177547    6.2055054    5.2255464  
  23 O       2.6478801 *  2.1088565 *  6.6951563    3.0927922    3.5763890  
  24 O       6.3054530    5.0211105    2.0729168 *  6.7781801    5.1702658  
  25 O       2.6988463 *  4.0354011    5.9708194    2.0613526 *  2.1369205 *
  26 O       8.2334574    5.9832987    2.6443779 *  8.4477711    6.8037543  
  27 O       7.9578958    5.1940662    4.1563504    8.1265255    6.7898321  
  28 O       5.2449487    2.5814834 *  5.6529671    5.3263300    4.8098601  
  29 O       4.2013120    2.7811924 *  3.2819755    5.1013852    3.8588350  
  30 O       2.1317902 *  2.6932728 *  4.7473285    3.3808543    2.6847302 *
  31 O       4.7805591    2.0391428 *  2.7845935 *  4.5327456    3.1036275  
  32 H       2.5596770 *  3.0387853    6.5097254    4.5707609    4.5631224  
  33 H       4.7117953    4.5721771    5.5344249    6.5461064    5.7808619  
  34 H       3.5727678    4.6042476    6.2928464    5.7220978    5.3206434  
  35 H       4.1066431    2.7209887 *  2.5266996 *  4.0269056    2.3699233 *
  36 H       0.0000000    3.0571428    6.5903037    2.4682157 *  3.0583930  
  37 H       3.0571428    0.0000000    4.5911278    3.1114593    2.4085707 *
  38 H       6.5903037    4.5911278    0.0000000    6.3474567    4.5865129  
  39 H       2.4682157 *  3.1114593    6.3474567    0.0000000    1.7840526 *
  40 H       3.0583930    2.4085707 *  4.5865129    1.7840526 *  0.0000000  
  41 H       5.3126747    2.7985170 *  3.8975612    5.8648750    4.7626392  
  42 H       6.6021538    4.5644573    3.0393580    7.2733496    5.8454755  
  43 H       7.3398449    4.5284283    2.6062526 *  6.9849310    5.4528005  
  44 H       7.0432357    4.1129298    5.2291053    6.9923687    6.0565332  
  45 H       6.3494089    3.3185185    4.7140784    5.7347875    4.7893365  

               41 H         42 H         43 H         44 H         45 H     

   1 C       3.1074487    3.7877431    5.3667214    5.4911537    5.3338939  
   2 C       2.9441157 *  4.4299640    5.6519961    4.9222164    4.8581461  
   3 C       2.5346114 *  2.7458932 *  3.1992667    4.4978526    3.9845267  
   4 C       4.4810789    5.7524420    6.2919971    6.2104239    5.4304069  
   5 C       3.3940640    5.1291665    5.5321120    4.8786822    4.2757669  
   6 C       3.1285884    2.1376595 *  2.7551498 *  4.8867878    4.6252248  
   7 C       1.0901637 *  2.6288914 *  2.1644179 *  2.1091275 *  2.1586593 *
   8 C       2.5909021 *  1.0971509 *  2.1544287 *  4.0454918    4.3131387  
   9 C       2.1559441 *  2.1386523 *  1.0997179 *  2.6679849 *  2.9684243 *
  10 C       4.0930086    4.1331492    6.3578795    6.6007077    6.6877064  
  11 C       5.2618232    6.4278779    6.3866935    6.6998990    5.5499055  
  12 C       2.1261598 *  4.0228429    2.8946803 *  1.0942470 *  1.0932703 *
  13 H       1.9987045 *  4.1382141    4.8187381    3.1836423    3.5465365  
  14 H       5.1542931    4.7382153    6.6229512    7.6290910    7.3725804  
  15 H       3.9984425    6.1769369    6.0117696    4.4457247    3.8510410  
  16 H       3.9037160    2.6157423 *  4.6270479    6.2135924    6.1707734  
  17 H       6.0610956    6.5911414    7.0662526    7.9373957    6.9475598  
  18 H       4.5023765    2.3988570 *  3.5115678    5.8203111    6.1367451  
  19 H       3.4782299    2.7166914 *  2.4726087 *  3.4146628    4.3968722  
  20 H       3.2767618    5.5032929    4.9314680    2.2748710 *  2.5692166 *
  21 O       2.1959460 *  3.9204966    5.2171228    3.9715310    4.3934964  
  22 O       4.7494984    4.1426684    6.4013841    7.2846748    7.2633545  
  23 O       4.3155891    6.3232014    6.4476102    5.2108007    4.5809321  
  24 O       4.1191297    2.6237450 *  4.1194146    6.1660970    6.0290599  
  25 O       6.3601893    7.1689823    7.3460392    8.0063694    6.8747509  
  26 O       3.9412419    2.1189200 *  2.6460295 *  4.9408761    5.3124680  
  27 O       2.7268990 *  2.6703808 *  2.1284540 *  2.4300967 *  3.4904404  
  28 O       2.4858739 *  4.7588049    4.2861916    2.1451696 *  2.1336735 *
  29 O       2.2458159 *  2.4511417 *  4.0725245    4.7085927    4.6329548  
  30 O       4.1630052    4.8514980    5.9230649    6.3292111    5.7661165  
  31 O       2.1001861 *  3.2358830    2.5780777 *  3.3490051    2.5554725 *
  32 H       3.9676779    5.3497346    6.7477359    5.8603878    5.8468309  
  33 H       3.8686174    3.7489507    6.2963522    6.3418771    6.7223425  
  34 H       4.9554705    5.2083331    7.3534942    7.3840502    7.4228590  
  35 H       3.5069523    3.7710884    3.9939053    5.3550189    4.5577231  
  36 H       5.3126747    6.6021538    7.3398449    7.0432357    6.3494089  
  37 H       2.7985170 *  4.5644573    4.5284283    4.1129298    3.3185185  
  38 H       3.8975612    3.0393580    2.6062526 *  5.2291053    4.7140784  
  39 H       5.8648750    7.2733496    6.9849310    6.9923687    5.7347875  
  40 H       4.7626392    5.8454755    5.4528005    6.0565332    4.7893365  
  41 H       0.0000000    2.3013049 *  3.0600023    2.5485026 *  3.0243274  
  42 H       2.3013049 *  0.0000000    3.0487150    4.1620653    4.7186222  
  43 H       3.0600023    3.0487150    0.0000000    3.0766759    2.8845773 *
  44 H       2.5485026 *  4.1620653    3.0766759    0.0000000    1.8042930 *
  45 H       3.0243274    4.7186222    2.8845773 *  1.8042930 *  0.0000000  

  * ... LESS THAN  3.000


     ATOMIC BASIS SET
     ----------------
 THE CONTRACTED PRIMITIVE FUNCTIONS HAVE BEEN UNNORMALIZED
 THE CONTRACTED BASIS FUNCTIONS ARE NOW NORMALIZED TO UNITY

  SHELL TYPE  PRIMITIVE        EXPONENT          CONTRACTION COEFFICIENT(S)

 C         

      1   S       1           172.2560000    0.061766907377
      1   S       2            25.9109000    0.358794042852
      1   S       3             5.5333500    0.700713083689

      2   L       4             3.6649800   -0.395895162119    0.236459946619
      2   L       5             0.7705450    1.215834355681    0.860618805716

      3   L       6             0.1958570    1.000000000000    1.000000000000

 C         

      4   S       7           172.2560000    0.061766907377
      4   S       8            25.9109000    0.358794042852
      4   S       9             5.5333500    0.700713083689

      5   L      10             3.6649800   -0.395895162119    0.236459946619
      5   L      11             0.7705450    1.215834355681    0.860618805716

      6   L      12             0.1958570    1.000000000000    1.000000000000

 C         

      7   S      13           172.2560000    0.061766907377
      7   S      14            25.9109000    0.358794042852
      7   S      15             5.5333500    0.700713083689

      8   L      16             3.6649800   -0.395895162119    0.236459946619
      8   L      17             0.7705450    1.215834355681    0.860618805716

      9   L      18             0.1958570    1.000000000000    1.000000000000

 C         

     10   S      19           172.2560000    0.061766907377
     10   S      20            25.9109000    0.358794042852
     10   S      21             5.5333500    0.700713083689

     11   L      22             3.6649800   -0.395895162119    0.236459946619
     11   L      23             0.7705450    1.215834355681    0.860618805716

     12   L      24             0.1958570    1.000000000000    1.000000000000

 C         

     13   S      25           172.2560000    0.061766907377
     13   S      26            25.9109000    0.358794042852
     13   S      27             5.5333500    0.700713083689

     14   L      28             3.6649800   -0.395895162119    0.236459946619
     14   L      29             0.7705450    1.215834355681    0.860618805716

     15   L      30             0.1958570    1.000000000000    1.000000000000

 C         

     16   S      31           172.2560000    0.061766907377
     16   S      32            25.9109000    0.358794042852
     16   S      33             5.5333500    0.700713083689

     17   L      34             3.6649800   -0.395895162119    0.236459946619
     17   L      35             0.7705450    1.215834355681    0.860618805716

     18   L      36             0.1958570    1.000000000000    1.000000000000

 C         

     19   S      37           172.2560000    0.061766907377
     19   S      38            25.9109000    0.358794042852
     19   S      39             5.5333500    0.700713083689

     20   L      40             3.6649800   -0.395895162119    0.236459946619
     20   L      41             0.7705450    1.215834355681    0.860618805716

     21   L      42             0.1958570    1.000000000000    1.000000000000

 C         

     22   S      43           172.2560000    0.061766907377
     22   S      44            25.9109000    0.358794042852
     22   S      45             5.5333500    0.700713083689

     23   L      46             3.6649800   -0.395895162119    0.236459946619
     23   L      47             0.7705450    1.215834355681    0.860618805716

     24   L      48             0.1958570    1.000000000000    1.000000000000

 C         

     25   S      49           172.2560000    0.061766907377
     25   S      50            25.9109000    0.358794042852
     25   S      51             5.5333500    0.700713083689

     26   L      52             3.6649800   -0.395895162119    0.236459946619
     26   L      53             0.7705450    1.215834355681    0.860618805716

     27   L      54             0.1958570    1.000000000000    1.000000000000

 C         

     28   S      55           172.2560000    0.061766907377
     28   S      56            25.9109000    0.358794042852
     28   S      57             5.5333500    0.700713083689

     29   L      58             3.6649800   -0.395895162119    0.236459946619
     29   L      59             0.7705450    1.215834355681    0.860618805716

     30   L      60             0.1958570    1.000000000000    1.000000000000

 C         

     31   S      61           172.2560000    0.061766907377
     31   S      62            25.9109000    0.358794042852
     31   S      63             5.5333500    0.700713083689

     32   L      64             3.6649800   -0.395895162119    0.236459946619
     32   L      65             0.7705450    1.215834355681    0.860618805716

     33   L      66             0.1958570    1.000000000000    1.000000000000

 C         

     34   S      67           172.2560000    0.061766907377
     34   S      68            25.9109000    0.358794042852
     34   S      69             5.5333500    0.700713083689

     35   L      70             3.6649800   -0.395895162119    0.236459946619
     35   L      71             0.7705450    1.215834355681    0.860618805716

     36   L      72             0.1958570    1.000000000000    1.000000000000

 H         

     37   S      73             5.4471780    0.156284978695
     37   S      74             0.8245472    0.904690876670

     38   S      75             0.1831916    1.000000000000

 H         

     39   S      76             5.4471780    0.156284978695
     39   S      77             0.8245472    0.904690876670

     40   S      78             0.1831916    1.000000000000

 H         

     41   S      79             5.4471780    0.156284978695
     41   S      80             0.8245472    0.904690876670

     42   S      81             0.1831916    1.000000000000

 H         

     43   S      82             5.4471780    0.156284978695
     43   S      83             0.8245472    0.904690876670

     44   S      84             0.1831916    1.000000000000

 H         

     45   S      85             5.4471780    0.156284978695
     45   S      86             0.8245472    0.904690876670

     46   S      87             0.1831916    1.000000000000

 H         

     47   S      88             5.4471780    0.156284978695
     47   S      89             0.8245472    0.904690876670

     48   S      90             0.1831916    1.000000000000

 H         

     49   S      91             5.4471780    0.156284978695
     49   S      92             0.8245472    0.904690876670

     50   S      93             0.1831916    1.000000000000

 H         

     51   S      94             5.4471780    0.156284978695
     51   S      95             0.8245472    0.904690876670

     52   S      96             0.1831916    1.000000000000

 O         

     53   S      97           322.0370000    0.059239393389
     53   S      98            48.4308000    0.351499960776
     53   S      99            10.4206000    0.707657921031

     54   L     100             7.4029400   -0.404453583190    0.244586106967
     54   L     101             1.5762000    1.221561761397    0.853955373466

     55   L     102             0.3736840    1.000000000000    1.000000000000

 O         

     56   S     103           322.0370000    0.059239393389
     56   S     104            48.4308000    0.351499960776
     56   S     105            10.4206000    0.707657921031

     57   L     106             7.4029400   -0.404453583190    0.244586106967
     57   L     107             1.5762000    1.221561761397    0.853955373466

     58   L     108             0.3736840    1.000000000000    1.000000000000

 O         

     59   S     109           322.0370000    0.059239393389
     59   S     110            48.4308000    0.351499960776
     59   S     111            10.4206000    0.707657921031

     60   L     112             7.4029400   -0.404453583190    0.244586106967
     60   L     113             1.5762000    1.221561761397    0.853955373466

     61   L     114             0.3736840    1.000000000000    1.000000000000

 O         

     62   S     115           322.0370000    0.059239393389
     62   S     116            48.4308000    0.351499960776
     62   S     117            10.4206000    0.707657921031

     63   L     118             7.4029400   -0.404453583190    0.244586106967
     63   L     119             1.5762000    1.221561761397    0.853955373466

     64   L     120             0.3736840    1.000000000000    1.000000000000

 O         

     65   S     121           322.0370000    0.059239393389
     65   S     122            48.4308000    0.351499960776
     65   S     123            10.4206000    0.707657921031

     66   L     124             7.4029400   -0.404453583190    0.244586106967
     66   L     125             1.5762000    1.221561761397    0.853955373466

     67   L     126             0.3736840    1.000000000000    1.000000000000

 O         

     68   S     127           322.0370000    0.059239393389
     68   S     128            48.4308000    0.351499960776
     68   S     129            10.4206000    0.707657921031

     69   L     130             7.4029400   -0.404453583190    0.244586106967
     69   L     131             1.5762000    1.221561761397    0.853955373466

     70   L     132             0.3736840    1.000000000000    1.000000000000

 O         

     71   S     133           322.0370000    0.059239393389
     71   S     134            48.4308000    0.351499960776
     71   S     135            10.4206000    0.707657921031

     72   L     136             7.4029400   -0.404453583190    0.244586106967
     72   L     137             1.5762000    1.221561761397    0.853955373466

     73   L     138             0.3736840    1.000000000000    1.000000000000

 O         

     74   S     139           322.0370000    0.059239393389
     74   S     140            48.4308000    0.351499960776
     74   S     141            10.4206000    0.707657921031

     75   L     142             7.4029400   -0.404453583190    0.244586106967
     75   L     143             1.5762000    1.221561761397    0.853955373466

     76   L     144             0.3736840    1.000000000000    1.000000000000

 O         

     77   S     145           322.0370000    0.059239393389
     77   S     146            48.4308000    0.351499960776
     77   S     147            10.4206000    0.707657921031

     78   L     148             7.4029400   -0.404453583190    0.244586106967
     78   L     149             1.5762000    1.221561761397    0.853955373466

     79   L     150             0.3736840    1.000000000000    1.000000000000

 O         

     80   S     151           322.0370000    0.059239393389
     80   S     152            48.4308000    0.351499960776
     80   S     153            10.4206000    0.707657921031

     81   L     154             7.4029400   -0.404453583190    0.244586106967
     81   L     155             1.5762000    1.221561761397    0.853955373466

     82   L     156             0.3736840    1.000000000000    1.000000000000

 O         

     83   S     157           322.0370000    0.059239393389
     83   S     158            48.4308000    0.351499960776
     83   S     159            10.4206000    0.707657921031

     84   L     160             7.4029400   -0.404453583190    0.244586106967
     84   L     161             1.5762000    1.221561761397    0.853955373466

     85   L     162             0.3736840    1.000000000000    1.000000000000

 H         

     86   S     163             5.4471780    0.156284978695
     86   S     164             0.8245472    0.904690876670

     87   S     165             0.1831916    1.000000000000

 H         

     88   S     166             5.4471780    0.156284978695
     88   S     167             0.8245472    0.904690876670

     89   S     168             0.1831916    1.000000000000

 H         

     90   S     169             5.4471780    0.156284978695
     90   S     170             0.8245472    0.904690876670

     91   S     171             0.1831916    1.000000000000

 H         

     92   S     172             5.4471780    0.156284978695
     92   S     173             0.8245472    0.904690876670

     93   S     174             0.1831916    1.000000000000

 H         

     94   S     175             5.4471780    0.156284978695
     94   S     176             0.8245472    0.904690876670

     95   S     177             0.1831916    1.000000000000

 H         

     96   S     178             5.4471780    0.156284978695
     96   S     179             0.8245472    0.904690876670

     97   S     180             0.1831916    1.000000000000

 H         

     98   S     181             5.4471780    0.156284978695
     98   S     182             0.8245472    0.904690876670

     99   S     183             0.1831916    1.000000000000

 H         

    100   S     184             5.4471780    0.156284978695
    100   S     185             0.8245472    0.904690876670

    101   S     186             0.1831916    1.000000000000

 H         

    102   S     187             5.4471780    0.156284978695
    102   S     188             0.8245472    0.904690876670

    103   S     189             0.1831916    1.000000000000

 H         

    104   S     190             5.4471780    0.156284978695
    104   S     191             0.8245472    0.904690876670

    105   S     192             0.1831916    1.000000000000

 H         

    106   S     193             5.4471780    0.156284978695
    106   S     194             0.8245472    0.904690876670

    107   S     195             0.1831916    1.000000000000

 H         

    108   S     196             5.4471780    0.156284978695
    108   S     197             0.8245472    0.904690876670

    109   S     198             0.1831916    1.000000000000

 H         

    110   S     199             5.4471780    0.156284978695
    110   S     200             0.8245472    0.904690876670

    111   S     201             0.1831916    1.000000000000

 H         

    112   S     202             5.4471780    0.156284978695
    112   S     203             0.8245472    0.904690876670

    113   S     204             0.1831916    1.000000000000

 TOTAL NUMBER OF BASIS SET SHELLS             =  113
 NUMBER OF CARTESIAN GAUSSIAN BASIS FUNCTIONS =  251
 NUMBER OF ELECTRONS                          =  182
 CHARGE OF MOLECULE                           =    0
 SPIN MULTIPLICITY                            =    1
 NUMBER OF OCCUPIED ORBITALS (ALPHA)          =   91
 NUMBER OF OCCUPIED ORBITALS (BETA )          =   91
 TOTAL NUMBER OF ATOMS                        =   45
 THE NUCLEAR REPULSION ENERGY IS     2443.7051533059

     $CONTRL OPTIONS
     ---------------
 SCFTYP=RHF          RUNTYP=ENERGY       EXETYP=RUN     
 MPLEVL=       0     CITYP =NONE         CCTYP =NONE         VBTYP =NONE    
 DFTTYP=NONE         TDDFT =NONE    
 MULT  =       1     ICHARG=       0     NZVAR =       0     COORD =UNIQUE  
 PP    =NONE         RELWFN=NONE         LOCAL =NONE         NUMGRD=       F
 ISPHER=      -1     NOSYM =       0     MAXIT =      60     UNITS =ANGS    
 PLTORB=       F     MOLPLT=       F     AIMPAC=       F     FRIEND=        
 NPRINT=       7     IREST =       0     GEOM  =INPUT   
 NORMF =       0     NORMP =       0     ITOL  =      20     ICUT  =       9
 INTTYP=BEST         GRDTYP=BEST         QMTTOL= 1.0E-06

     $SYSTEM OPTIONS
     ---------------
  REPLICATED MEMORY=    30000000 WORDS (ON EVERY NODE).
 DISTRIBUTED MEMDDI=        1000 MILLION WORDS IN AGGREGATE,
 MEMDDI DISTRIBUTED OVER   6 PROCESSORS IS   166666666 WORDS/PROCESSOR.
 TOTAL MEMORY REQUESTED ON EACH PROCESSOR=   196666666 WORDS.
 TIMLIM=      525600.00 MINUTES, OR     365.0 DAYS.
 PARALL= T  BALTYP=  DLB     KDIAG=    0  COREFL= F
 MXSEQ2=     300 MXSEQ3=     150  mem10=         0

          ----------------
          PROPERTIES INPUT
          ----------------

     MOMENTS            FIELD           POTENTIAL          DENSITY
 IEMOM =       1   IEFLD =       0   IEPOT =       0   IEDEN =       0
 WHERE =COMASS     WHERE =NUCLEI     WHERE =NUCLEI     WHERE =NUCLEI  
 OUTPUT=BOTH       OUTPUT=BOTH       OUTPUT=BOTH       OUTPUT=BOTH    
 IEMINT=       0   IEFINT=       0                     IEDINT=       0
                                                       MORB  =       0
          EXTRAPOLATION IN EFFECT
          SOSCF IN EFFECT
 ORBITAL PRINTING OPTION: NPREO=     1   251     2     1

     -------------------------------
     INTEGRAL TRANSFORMATION OPTIONS
     -------------------------------
     NWORD  =            0
     CUTOFF = 1.0E-09     MPTRAN =       0
     DIRTRF =       T     AOINTS =DUP     

          ----------------------
          INTEGRAL INPUT OPTIONS
          ----------------------
 NOPK  =       1 NORDER=       0 SCHWRZ=       T

     ------------------------------------------
     THE POINT GROUP IS C1 , NAXIS= 0, ORDER= 1
     ------------------------------------------

     DIMENSIONS OF THE SYMMETRY SUBSPACES ARE
 A   =  251

 ..... DONE SETTING UP THE RUN .....
 CPU     0: STEP CPU TIME=     0.03 TOTAL CPU TIME=          0.0 (      0.0 MIN)
 TOTAL WALL CLOCK TIME=          0.0 SECONDS, CPU UTILIZATION IS    75.00%

          ********************
          1 ELECTRON INTEGRALS
          ********************
 ...... END OF ONE-ELECTRON INTEGRALS ......
 CPU     0: STEP CPU TIME=     0.02 TOTAL CPU TIME=          0.0 (      0.0 MIN)
 TOTAL WALL CLOCK TIME=          0.1 SECONDS, CPU UTILIZATION IS    62.50%

          -------------
          GUESS OPTIONS
          -------------
          GUESS =HUCKEL            NORB  =       0          NORDER=       0
          MIX   =       F          PRTMO =       F          PUNMO =       F
          TOLZ  = 1.0E-08          TOLE  = 1.0E-05
          SYMDEN=       F          PURIFY=       F

 INITIAL GUESS ORBITALS GENERATED BY HUCKEL   ROUTINE.
 HUCKEL GUESS REQUIRES    565344 WORDS.

 SYMMETRIES FOR INITIAL GUESS ORBITALS FOLLOW.   BOTH SET(S).
    91 ORBITALS ARE OCCUPIED (   23 CORE ORBITALS).
    24=A       25=A       26=A       27=A       28=A       29=A       30=A   
    31=A       32=A       33=A       34=A       35=A       36=A       37=A   
    38=A       39=A       40=A       41=A       42=A       43=A       44=A   
    45=A       46=A       47=A       48=A       49=A       50=A       51=A   
    52=A       53=A       54=A       55=A       56=A       57=A       58=A   
    59=A       60=A       61=A       62=A       63=A       64=A       65=A   
    66=A       67=A       68=A       69=A       70=A       71=A       72=A   
    73=A       74=A       75=A       76=A       77=A       78=A       79=A   
    80=A       81=A       82=A       83=A       84=A       85=A       86=A   
    87=A       88=A       89=A       90=A       91=A       92=A       93=A   
    94=A       95=A       96=A       97=A       98=A       99=A      100=A   
   101=A   
 ...... END OF INITIAL ORBITAL SELECTION ......
 CPU     0: STEP CPU TIME=     0.12 TOTAL CPU TIME=          0.2 (      0.0 MIN)
 TOTAL WALL CLOCK TIME=          0.3 SECONDS, CPU UTILIZATION IS    50.00%

                    ----------------------
                    AO INTEGRAL TECHNOLOGY
                    ----------------------
     S,P,L SHELL ROTATED AXIS INTEGRALS, REPROGRAMMED BY
        KAZUYA ISHIMURA (IMS) AND JOSE SIERRA (SYNSTAR).
     S,P,D,L SHELL ROTATED AXIS INTEGRALS PROGRAMMED BY
        KAZUYA ISHIMURA (INSTITUTE FOR MOLECULAR SCIENCE).
     S,P,D,F,G SHELL TO TOTAL QUARTET ANGULAR MOMENTUM SUM 5,
        ERIC PROGRAM BY GRAHAM FLETCHER (ELORET AND NASA ADVANCED
        SUPERCOMPUTING DIVISION, AMES RESEARCH CENTER).
     S,P,D,F,G,L SHELL GENERAL RYS QUADRATURE PROGRAMMED BY
        MICHEL DUPUIS (PACIFIC NORTHWEST NATIONAL LABORATORY).

          --------------------
          2 ELECTRON INTEGRALS
          --------------------

 DIRECT SCF METHOD SKIPS INTEGRAL STORAGE ON DISK.
 DIRECT TRANSFORMATION SKIPS AO INTEGRAL STORAGE ON DISK.
  ...... END OF TWO-ELECTRON INTEGRALS .....
 CPU     0: STEP CPU TIME=     0.01 TOTAL CPU TIME=          0.2 (      0.0 MIN)
 TOTAL WALL CLOCK TIME=          0.4 SECONDS, CPU UTILIZATION IS    50.00%

          --------------------------
                 RHF SCF CALCULATION
          --------------------------

     NUCLEAR ENERGY =      2443.7051533059
     MAXIT =   60     NPUNCH=    2
     EXTRAP=T  DAMP=F  SHIFT=F  RSTRCT=F  DIIS=F  DEM=F  SOSCF=T
     DENSITY MATRIX CONV=  2.00E-05
     SOSCF WILL OPTIMIZE   14560 ORBITAL ROTATIONS, SOGTOL=   0.250
     MEMORY REQUIRED FOR RHF ITERS=    559999 WORDS.

 DIRECT SCF CALCULATION, SCHWRZ=T   FDIFF=T,  DIRTHR=  0.00E+00 NITDIR=10
 SCHWARZ INEQUALITY OVERHEAD:     26343 INTEGRALS, T=        0.00

                                                                                   NONZERO     BLOCKS
 ITER EX DEM     TOTAL ENERGY        E CHANGE  DENSITY CHANGE     ORB. GRAD      INTEGRALS    SKIPPED
   1  0  0    -1279.9711756106 -1279.9711756106   0.784804238   0.000000000      156577746   15370075
          ---------------START SECOND ORDER SCF---------------
   2  1  0    -1283.2957914893    -3.3246158788   0.136896294   0.056682338      156512915   15447549
   3  2  0    -1283.4698751197    -0.1740836304   0.113956371   0.012175113      152480524   15936844
   4  3  0    -1283.5021211858    -0.0322460660   0.012655856   0.004939325      149488919   16159525
   5  4  0    -1283.5033022447    -0.0011810589   0.002772209   0.000686899      136381085   16801314
   6  5  0    -1283.5034281558    -0.0001259111   0.001418256   0.000472211      128836918   17085155
   7  6  0    -1283.5034409470    -0.0000127912   0.000401459   0.000131035      120453837   17397928
   8  7  0    -1283.5034423080    -0.0000013611   0.000190458   0.000023072      106808640   17854904
   9  8  0    -1283.5034424249    -0.0000001169   0.000061000   0.000005723       97164247   18189010
  10  9  0    -1283.5034424342    -0.0000000093   0.000010366   0.000003335       84985476   18561717
  11 10  0    -1283.5034424366    -0.0000000024   0.000004439   0.000000786       71752297   18946078

          -----------------
          DENSITY CONVERGED
          -----------------
     TIME TO FORM FOCK OPERATORS=      25.0 SECONDS (       2.3 SEC/ITER)
     FOCK TIME ON FIRST ITERATION=       2.6, LAST ITERATION=       1.4
     TIME TO SOLVE SCF EQUATIONS=       0.3 SECONDS (       0.0 SEC/ITER)

 FINAL RHF ENERGY IS    -1283.5034424366 AFTER  11 ITERATIONS

          ------------
          EIGENVECTORS
          ------------

                      1          2          3          4          5
                  -20.5160   -20.5000   -20.4955   -20.4951   -20.4736
                     A          A          A          A          A   
    1  C  1  S   -0.000002  -0.001082  -0.000421  -0.000739   0.000155
    2  C  1  S    0.000023  -0.004655  -0.001695  -0.003157   0.000441
    3  C  1  X    0.000066   0.000276  -0.000495  -0.000719   0.000275
    4  C  1  Y   -0.000013   0.000035   0.000376   0.000177   0.000737
    5  C  1  Z   -0.000040   0.001061   0.000183   0.000347  -0.000248
    6  C  1  S   -0.000164   0.023145   0.008379   0.014630  -0.005676
    7  C  1  X   -0.000973   0.009575  -0.005537  -0.011150  -0.000226
    8  C  1  Y    0.000168   0.008197   0.001552   0.004705   0.001702
    9  C  1  Z   -0.000119   0.009780   0.001396   0.002500   0.000030
   10  C  2  S    0.000054   0.000288   0.000025   0.000045  -0.000084
   11  C  2  S    0.000422   0.001360   0.000049  -0.000115  -0.000591
   12  C  2  X   -0.000125   0.000997   0.000120   0.000262   0.000048
   13  C  2  Y    0.000203   0.000700   0.000383   0.000296   0.000464
   14  C  2  Z   -0.000154  -0.000381  -0.000233  -0.000532  -0.000092
   15  C  2  S   -0.001071  -0.006755   0.000278   0.000179   0.001352
   16  C  2  X    0.001465  -0.004635   0.001370   0.003790  -0.000554
   17  C  2  Y   -0.000512  -0.000168  -0.000751  -0.001252  -0.002942
   18  C  2  Z    0.001518  -0.006110   0.001138   0.002309   0.000688
   19  C  3  S    0.000082   0.000003  -0.001209  -0.000256   0.000051
   20  C  3  S    0.000440   0.000470  -0.004753  -0.001108   0.000272
   21  C  3  X   -0.000052   0.000382   0.001260   0.000764  -0.000131
   22  C  3  Y   -0.000018  -0.000419   0.000383  -0.001807   0.000026
   23  C  3  Z   -0.000002  -0.000236  -0.001020  -0.000000   0.000047
   24  C  3  S   -0.002103   0.000479   0.026110   0.005910  -0.001096
   25  C  3  X    0.000814  -0.001442  -0.002896   0.000538   0.000269
   26  C  3  Y    0.000191  -0.001313   0.002223  -0.008820   0.000235
   27  C  3  Z    0.000682  -0.000743  -0.011518  -0.002432   0.000622
   28  C  4  S    0.000007  -0.000953  -0.000001   0.000018   0.000052
   29  C  4  S    0.000073  -0.004186   0.000118   0.000136   0.000209
   30  C  4  X   -0.000039  -0.000436  -0.000276  -0.000052   0.000061
   31  C  4  Y   -0.000035  -0.001236   0.000076   0.000083   0.000148
   32  C  4  Z   -0.000081   0.000393  -0.000184  -0.000093  -0.000106
   33  C  4  S    0.000038   0.020055   0.001226   0.001125  -0.001078
   34  C  4  X    0.000259  -0.011537  -0.000172  -0.000693   0.000587
   35  C  4  Y    0.000414  -0.004415   0.000825   0.000825   0.000153
   36  C  4  Z    0.000358   0.000408  -0.000607  -0.002657   0.000125
   37  C  5  S    0.000065   0.000238   0.000210   0.000082  -0.000047
   38  C  5  S    0.000496   0.001169   0.001651   0.000651  -0.000240
   39  C  5  X   -0.000022  -0.000984  -0.000447   0.000125   0.000025
   40  C  5  Y   -0.000003  -0.000073  -0.000055  -0.000613  -0.000061
   41  C  5  Z   -0.000076  -0.000539   0.000355   0.000263   0.000133
   42  C  5  S   -0.001424  -0.005541  -0.005379  -0.001322   0.001968
   43  C  5  X   -0.000066   0.005039   0.002291  -0.001813  -0.000184
   44  C  5  Y   -0.000199   0.002221   0.000122   0.004535  -0.000224
   45  C  5  Z    0.000444  -0.007332  -0.002302  -0.002532  -0.000784
   46  C  6  S   -0.000025   0.000047   0.000292   0.000078   0.000020
   47  C  6  S   -0.000128   0.000269   0.001039   0.000334   0.000161
   48  C  6  X    0.000017  -0.000033  -0.001274  -0.000416   0.000098
   49  C  6  Y    0.000062  -0.000081  -0.000214   0.000098  -0.000115
   50  C  6  Z    0.000025  -0.000051   0.000121   0.000144  -0.000001
   51  C  6  S    0.000868  -0.001382  -0.009075  -0.003098  -0.000280
   52  C  6  X    0.001037  -0.000709  -0.000540  -0.000817  -0.000001
   53  C  6  Y   -0.000375   0.000655  -0.001186   0.002129   0.000834
   54  C  6  Z   -0.000594   0.000453   0.003618   0.000738  -0.000320
   55  C  7  S    0.000235   0.000009  -0.000527   0.000507  -0.000013
   56  C  7  S    0.001008   0.000040  -0.001619   0.002399  -0.000070
   57  C  7  X   -0.000033  -0.000046   0.000812  -0.000652   0.000016
   58  C  7  Y   -0.000161  -0.000029  -0.000411   0.000104  -0.000009
   59  C  7  Z   -0.000011   0.000059   0.001250  -0.000473  -0.000022
   60  C  7  S   -0.007615  -0.000266   0.010201  -0.011093   0.000384
   61  C  7  X   -0.002648   0.000514   0.004639  -0.000497  -0.000276
   62  C  7  Y   -0.003155   0.000368   0.005007  -0.000279  -0.000062
   63  C  7  Z    0.004650  -0.000337   0.006190  -0.004789   0.000216
   64  C  8  S   -0.000028   0.000012   0.000138  -0.000005  -0.000018
   65  C  8  S   -0.000139   0.000127   0.001276  -0.000020  -0.000120
   66  C  8  X    0.000156   0.000122   0.000792  -0.000101  -0.000029
   67  C  8  Y   -0.000026   0.000024  -0.000108   0.000157  -0.000003
   68  C  8  Z   -0.000153   0.000062  -0.000116   0.000180   0.000042
   69  C  8  S    0.001689  -0.000113  -0.001247   0.000353   0.000509
   70  C  8  X   -0.001374  -0.000338  -0.003627   0.001022   0.000258
   71  C  8  Y    0.001500  -0.000591  -0.000167  -0.001495  -0.000078
   72  C  8  Z    0.000435   0.000124   0.004747  -0.000272  -0.000313
   73  C  9  S   -0.000053  -0.000029  -0.000054  -0.000100   0.000021
   74  C  9  S   -0.000384  -0.000167  -0.000737  -0.000168   0.000126
   75  C  9  X   -0.000258   0.000002  -0.000560   0.000600   0.000004
   76  C  9  Y   -0.000295   0.000014   0.000080  -0.000160   0.000001
   77  C  9  Z    0.000330   0.000024   0.000148   0.000035   0.000022
   78  C  9  S   -0.000393   0.001052   0.001962   0.004151  -0.000639
   79  C  9  X    0.000608   0.000318   0.000334   0.000995  -0.000295
   80  C  9  Y    0.002045  -0.000386  -0.003598   0.000808   0.000163
   81  C  9  Z   -0.002894  -0.000011  -0.002198   0.000655  -0.000115
   82  C 10  S   -0.000010   0.000093   0.000095   0.000021  -0.000815
   83  C 10  S   -0.000075   0.000117   0.000393  -0.000339  -0.003286
   84  C 10  X   -0.000013  -0.000020  -0.000040   0.000198  -0.000595
   85  C 10  Y   -0.000015  -0.000710  -0.000282  -0.000811  -0.000664
   86  C 10  Z    0.000001  -0.000055  -0.000050  -0.000093   0.001422
   87  C 10  S    0.000244  -0.001115  -0.002367  -0.001056   0.017785
   88  C 10  X    0.000310  -0.003057   0.001784   0.002055  -0.004898
   89  C 10  Y    0.000076   0.000288  -0.000893   0.000065  -0.000327
   90  C 10  Z    0.000067  -0.002685  -0.000159   0.000065   0.007486
   91  C 11  S    0.000008   0.000130  -0.000022  -0.000018  -0.000010
   92  C 11  S    0.000041   0.000307  -0.000170  -0.000099  -0.000043
   93  C 11  X    0.000018  -0.000033  -0.000007   0.000006   0.000012
   94  C 11  Y    0.000005   0.000542  -0.000036   0.000048  -0.000029
   95  C 11  Z   -0.000007   0.000569  -0.000014   0.000038  -0.000002
   96  C 11  S   -0.000330  -0.003927   0.000546   0.000422   0.000206
   97  C 11  X   -0.000158   0.003709  -0.000125   0.000333  -0.000225
   98  C 11  Y    0.000137   0.001764   0.000209  -0.001048  -0.000015
   99  C 11  Z    0.000238  -0.000092   0.000329  -0.000221  -0.000188
  100  C 12  S   -0.000884   0.000009   0.000166  -0.000062  -0.000001
  101  C 12  S   -0.003725   0.000050   0.000780  -0.000187  -0.000005
  102  C 12  X    0.001175   0.000015   0.000128  -0.000046  -0.000005
  103  C 12  Y   -0.000093   0.000023   0.000419  -0.000354  -0.000001
  104  C 12  Z   -0.000591  -0.000007  -0.000157   0.000118  -0.000002
  105  C 12  S    0.020062  -0.000379  -0.005014   0.001742   0.000058
  106  C 12  X    0.006913  -0.000070  -0.000776   0.000049   0.000063
  107  C 12  Y   -0.005320   0.000120   0.000006   0.000806  -0.000050
  108  C 12  Z   -0.001924  -0.000090  -0.003825   0.001822   0.000005
  109  H 13  S   -0.000544   0.000198   0.000196  -0.000097  -0.000181
  110  H 13  S    0.006506  -0.000849  -0.000514   0.000069   0.000124
  111  H 14  S    0.000030  -0.000256   0.000292   0.000637   0.003072
  112  H 14  S   -0.000007   0.000484  -0.000201  -0.000747   0.004902
  113  H 15  S   -0.000260   0.000309  -0.000033   0.000207   0.000017
  114  H 15  S    0.000892  -0.000819  -0.000377  -0.000317  -0.000082
  115  H 16  S    0.000047  -0.000021  -0.000676  -0.000372  -0.000697
  116  H 16  S   -0.000006   0.000012   0.001613   0.001644   0.003012
  117  H 17  S    0.000000  -0.000455  -0.000021   0.000036   0.000053
  118  H 17  S    0.000013   0.000802  -0.000011  -0.000144  -0.000118
  119  H 18  S    0.000069   0.000041   0.000209   0.000088  -0.000012
  120  H 18  S   -0.000048  -0.000086  -0.000807  -0.000033   0.000008
  121  H 19  S    0.000110   0.000010   0.000192  -0.000073   0.000001
  122  H 19  S   -0.000102  -0.000020  -0.000081  -0.000000  -0.000006
  123  H 20  S    0.003182  -0.000106  -0.000150   0.000019   0.000008
  124  H 20  S    0.004576   0.000106  -0.000384   0.000270  -0.000013
  125  O 21  S    0.003198   0.001435  -0.000038  -0.000961   0.000037
  126  O 21  S    0.001153   0.000512  -0.000062  -0.000365   0.000020
  127  O 21  X   -0.000119   0.000183  -0.000145  -0.000163   0.000002
  128  O 21  Y    0.000460   0.000018  -0.000027  -0.000070  -0.000110
  129  O 21  Z   -0.000309  -0.000046   0.000117   0.000014   0.000003
  130  O 21  S   -0.002576  -0.002189   0.000796   0.001890  -0.000081
  131  O 21  X    0.000772  -0.001013   0.000637   0.000944   0.000021
  132  O 21  Y   -0.002265   0.000148   0.000128   0.000178   0.000598
  133  O 21  Z    0.001451  -0.000392  -0.000104   0.000541  -0.000100
  134  O 22  S    0.000068   0.002082   0.001176   0.002770   0.983445
  135  O 22  S    0.000019   0.000350   0.000175   0.000491   0.097499
  136  O 22  X    0.000013  -0.000092   0.000003   0.000071   0.002888
  137  O 22  Y    0.000008   0.000234   0.000125   0.000233   0.002045
  138  O 22  Z    0.000007  -0.000048   0.000082   0.000073  -0.000825
  139  O 22  S   -0.000021  -0.000021   0.000312  -0.000087  -0.043119
  140  O 22  X   -0.000058   0.000629   0.000065  -0.000168  -0.006586
  141  O 22  Y   -0.000037  -0.000599  -0.000314  -0.000832  -0.004821
  142  O 22  Z   -0.000032   0.000031  -0.000569  -0.000439   0.003916
  143  O 23  S    0.000609   0.003384   0.000693   0.002375   0.001300
  144  O 23  S    0.000140   0.000941   0.000151   0.000550   0.000202
  145  O 23  X   -0.000056  -0.000167   0.000021  -0.000138  -0.000017
  146  O 23  Y    0.000076  -0.000121  -0.000082   0.000037   0.000010
  147  O 23  Z   -0.000098  -0.000096   0.000049   0.000038   0.000023
  148  O 23  S   -0.000081  -0.003162  -0.000430  -0.001269  -0.000432
  149  O 23  X    0.000034   0.001183  -0.000081   0.000851   0.000186
  150  O 23  Y   -0.000373   0.001042   0.000389  -0.000165   0.000082
  151  O 23  Z    0.000399  -0.000081  -0.000148  -0.000202  -0.000132
  152  O 24  S    0.000093  -0.000347   0.000489   0.001675   0.004009
  153  O 24  S    0.000043  -0.000125   0.000119   0.000411   0.000776
  154  O 24  X    0.000039  -0.000001  -0.000057   0.000219   0.000173
  155  O 24  Y   -0.000007  -0.000001  -0.000104  -0.000052  -0.000242
[...]
   22   -0.0002455  -0.0000001   0.0000085  -0.0000000   0.2389590
   23    0.0000000  -0.0000072   0.0000000   0.0000000  -0.0000061
   24    0.2341366   0.0000301  -0.0419594   0.0016964   0.0000757
   25   -0.0000000   0.0000000   0.0000000   0.0000000  -0.0000009
   26   -0.0368355   0.0015217   0.2259257  -0.0429914   0.0000000
   27    0.0016778  -0.0394547  -0.0323600   0.2090680   0.0000000
   28    0.0000001  -0.0384080  -0.0000128   0.0012119   0.0000000
   29   -0.0608147  -0.0049897  -0.0007099  -0.0011443  -0.0590074
   30    0.0000876  -0.0000132  -0.0000004  -0.0000001  -0.0425484
   31   -0.0387574   0.1821115   0.0000398  -0.0427944  -0.0000221
   32    0.0000018  -0.0000431  -0.0000001   0.0000004   0.0000884
   33    0.0000050  -0.0000112  -0.0000046   0.0000002   0.3664560
   34   -0.0000006   0.0000002   0.0000001  -0.0000000   0.3553614
   35   -0.0387413   0.0033880   0.0031958  -0.0004968   0.0002657
   36    0.0000000  -0.0000004  -0.0000000  -0.0000000   0.0001184
   37    0.0005973  -0.0060203  -0.0000495   0.0004187  -0.0000393
   38    0.3785781   0.0009765  -0.0575766   0.0003184   0.0000018
   39    0.0000000   0.0000000   0.0000000   0.0000000   0.0000013
   40    0.0000161  -0.0000324  -0.0000003   0.0000005  -0.0000007
   41    0.0012255   0.3072898  -0.0060786  -0.0362575   0.0000265
   42   -0.0541956  -0.0003253   0.3579044  -0.0518547   0.0000307
   43    0.0007707  -0.0584054  -0.0582063   0.3678836   0.0000000
   44   -0.0000045  -0.0553997   0.0002453  -0.0008969   0.0000000
   45    0.0000176  -0.0543278  -0.0001291   0.0015306  -0.0000000

            11          12          13          14          15

   11    5.1103374
   12   -0.0000000   5.1460193
   13   -0.0000087  -0.0056528   0.3382010
   14    0.0000006  -0.0000000   0.0000001   0.4040363
   15   -0.0000804  -0.0003075   0.0004679   0.0000000   0.3859115
   16    0.0000001   0.0000001   0.0000000  -0.0018022  -0.0000000
   17   -0.0575002  -0.0000000   0.0000000   0.0000917   0.0000001
   18   -0.0000000   0.0000011  -0.0000000  -0.0000000   0.0000000
   19   -0.0000000  -0.0000701   0.0000003   0.0000000   0.0000000
   20    0.0000000  -0.0381799  -0.0026941   0.0000000  -0.0007335
   21   -0.0000086  -0.0000890   0.2385324  -0.0000007   0.0001228
   22   -0.0000008  -0.0000000   0.0000001   0.2581352  -0.0000000
   23    0.0007669   0.0000398   0.0014333  -0.0000000   0.2633906
   24    0.0000000   0.0000002  -0.0000000   0.0003013   0.0000000
   25    0.2441181  -0.0000000   0.0000000  -0.0000018   0.0000002
   26   -0.0000000  -0.0000093   0.0000000  -0.0000000  -0.0000000
   27    0.0000000  -0.0030374  -0.0000052   0.0000000  -0.0000000
   28   -0.0000003   0.2029777   0.0549409  -0.0000000   0.0147303
   29   -0.0000066   0.0001604  -0.0003211   0.0008937   0.0000015
   30   -0.0384566   0.0000002  -0.0000333   0.0093278  -0.0000249
   31   -0.0002132  -0.0308373   0.0001259   0.0000006   0.0000133
   32   -0.0000489  -0.0000022   0.0017554  -0.0000129  -0.0003448
   33    0.0000013   0.0000000  -0.0000217   0.0044387   0.0000000
   34    0.0000005  -0.0000000   0.0000016  -0.0025205  -0.0000000
   35    0.0007715  -0.0000309   0.0000020   0.0000297   0.0000006
   36   -0.0469054   0.0000000   0.0000016  -0.0000015  -0.0001601
   37   -0.0033474  -0.0024398   0.0008339  -0.0000007  -0.0056966
   38    0.0000002  -0.0000007   0.0000000   0.0000002  -0.0000000
   39    0.3679788  -0.0000000  -0.0000001  -0.0000001  -0.0000387
   40    0.3565936   0.0000029   0.0000006  -0.0000000   0.0000045
   41    0.0000017  -0.0380902  -0.0051593  -0.0000007  -0.0000275
   42    0.0000000  -0.0000978  -0.0000050   0.0000005   0.0000000
   43   -0.0000000  -0.0036050  -0.0000028   0.0000000   0.0000000
   44   -0.0000000   0.3561320   0.0001900  -0.0000000   0.0000217
   45   -0.0000001   0.3626366   0.0004047   0.0000000  -0.0000464

            16          17          18          19          20

   16    0.3598527
   17   -0.0000000   0.4081446
   18   -0.0001553  -0.0000000   0.3777842
   19   -0.0000000   0.0000000  -0.0004682   0.3687043
   20    0.0000000  -0.0000000   0.0000000  -0.0000002   0.3795133
   21   -0.0000003  -0.0000000  -0.0000000   0.0000000   0.0004028
   22    0.0307516  -0.0000017   0.0000000  -0.0000000   0.0000000
   23    0.0000000  -0.0000008  -0.0000000   0.0000000   0.0000659
   24    0.2497675   0.0000000   0.0087418  -0.0000016   0.0000000
   25    0.0000000   0.2622344  -0.0000000   0.0000000   0.0000000
   26    0.0000101  -0.0000000   0.2651372   0.0138277  -0.0000000
   27    0.0000000   0.0000000  -0.0000209   0.2645570   0.0000029
   28   -0.0000000   0.0000000  -0.0000000   0.0000001   0.2575445
   29    0.0177006   0.0000007   0.0000025   0.0000000  -0.0000000
   30   -0.0000013   0.0126445   0.0000000  -0.0000000  -0.0000000
   31    0.0001187   0.0000001  -0.0000008  -0.0000245  -0.0000201
   32   -0.0000005  -0.0000019  -0.0000000   0.0000000   0.0000017
   33   -0.0004018  -0.0000001  -0.0000000   0.0000000  -0.0000000
   34    0.0002043   0.0000012   0.0000000   0.0000000   0.0000000
   35    0.0002139   0.0002903  -0.0000016  -0.0000000  -0.0000000
   36    0.0000000  -0.0001396   0.0000000  -0.0000000   0.0000000
   37   -0.0000027  -0.0000051  -0.0000000   0.0000001  -0.0001547
   38    0.0038283  -0.0000000  -0.0000775  -0.0000016  -0.0000000
   39   -0.0000000   0.0047734  -0.0000000   0.0000000  -0.0000000
   40    0.0000001  -0.0021490   0.0000000   0.0000000   0.0000000
   41    0.0000004  -0.0000000  -0.0000048  -0.0000844   0.0001994
   42    0.0016900  -0.0000000  -0.0013631  -0.0001511  -0.0000000
   43    0.0000002   0.0000000  -0.0001529  -0.0000503   0.0000011
   44   -0.0000000   0.0000000   0.0000000  -0.0002038  -0.0041729
   45    0.0000000   0.0000000  -0.0000000  -0.0000032   0.0006788

            21          22          23          24          25

   21    8.3055580
   22   -0.0000005   8.2196316
   23    0.0001152   0.0000000   8.2813864
   24    0.0000000  -0.0017324  -0.0000000   8.3119955
   25    0.0000000   0.0000000  -0.0000004  -0.0000000   8.2487730
   26   -0.0000000  -0.0000000   0.0000000  -0.0008260  -0.0000000
   27   -0.0000001  -0.0000000  -0.0000000  -0.0000002   0.0000000
   28   -0.0102440  -0.0000000  -0.0012232  -0.0000000   0.0000000
   29   -0.0003567  -0.0019283  -0.0000005  -0.0034263   0.0000000
   30    0.0002236  -0.0012763   0.0001944  -0.0000004  -0.0017512
   31   -0.0000061  -0.0000000   0.0000122   0.0001822   0.0000000
   32   -0.0320083  -0.0000029   0.0009903   0.0000000   0.0000004
   33    0.0012822  -0.0247939  -0.0000000   0.0000147  -0.0000000
   34   -0.0000364  -0.0270051   0.0000002  -0.0000021   0.0000001
   35   -0.0000096   0.0000275  -0.0000009   0.0013121   0.0000334
   36   -0.0000054   0.0000009   0.0014656  -0.0000000   0.0012694
   37    0.0001470   0.0000005  -0.0242545  -0.0000013  -0.0000008
   38   -0.0000000  -0.0000032   0.0000000  -0.0272083  -0.0000000
   39   -0.0000000  -0.0000000   0.0015428   0.0000000  -0.0264429
   40    0.0000003   0.0000001  -0.0000718  -0.0000001  -0.0306252
   41    0.0326283   0.0000000  -0.0000086   0.0000019  -0.0000000
   42   -0.0000520  -0.0000235   0.0000000   0.0002878   0.0000000
   43   -0.0000004  -0.0000000   0.0000000  -0.0000192   0.0000000
   44   -0.0000228   0.0000000  -0.0000003  -0.0000000   0.0000000
   45   -0.0000179  -0.0000000   0.0000011  -0.0000000   0.0000000

            26          27          28          29          30

   26    8.2936082
   27   -0.0015784   8.3025893
   28    0.0000000   0.0000010   8.2547471
   29    0.0000023   0.0000001   0.0000004   8.5506889
   30    0.0000000   0.0000000   0.0000000  -0.0285330   8.4681323
   31   -0.0000022   0.0002104   0.0002145  -0.0318169  -0.0000295
   32   -0.0000000  -0.0000000  -0.0000209   0.0014292   0.0032675
   33   -0.0000000  -0.0000000   0.0000000   0.0021619   0.0016573
   34   -0.0000000   0.0000000  -0.0000000   0.0020976   0.0014392
   35   -0.0000070   0.0000005   0.0000002  -0.0313961   0.0136749
   36    0.0000000   0.0000000  -0.0000002  -0.0000498  -0.0254900
   37    0.0000000  -0.0000006   0.0043683   0.0008108   0.0012112
   38    0.0014327  -0.0000233   0.0000000   0.0017812   0.0000008
   39   -0.0000000   0.0000000   0.0000000  -0.0000002   0.0014988
   40    0.0000000  -0.0000000  -0.0000008  -0.0000336  -0.0002800
   41    0.0000034   0.0028530  -0.0012658   0.0145367   0.0000441
   42   -0.0302052   0.0010688   0.0000001   0.0076589   0.0000012
   43    0.0015640  -0.0303728  -0.0000079  -0.0000014  -0.0000000
   44   -0.0000001   0.0114708  -0.0232558   0.0000008  -0.0000000
   45    0.0000001   0.0000491  -0.0276521   0.0000000  -0.0000000

            31          32          33          34          35

   31    8.4123808
   32   -0.0000025   0.5354032
   33   -0.0000001   0.0004021   0.4666812
   34    0.0000002   0.0011290  -0.0243223   0.5470253
   35   -0.0276920  -0.0000008  -0.0000020   0.0000042   0.4479309
   36   -0.0000025   0.0022722  -0.0000052  -0.0000211   0.0000786
   37    0.0398023   0.0037179   0.0000002   0.0000018  -0.0016278
   38    0.0017629  -0.0000000   0.0000001  -0.0000000  -0.0023398
   39   -0.0000010  -0.0000019  -0.0000000  -0.0000001   0.0000484
   40    0.0009564  -0.0000030  -0.0000000   0.0000001   0.0011264
   41   -0.0273076   0.0002334   0.0000902  -0.0000016   0.0001037
   42    0.0000735  -0.0000004   0.0000586  -0.0000002  -0.0000143
   43    0.0027226  -0.0000000  -0.0000000  -0.0000000  -0.0000431
   44    0.0014294  -0.0000000  -0.0000000  -0.0000000   0.0000006
   45    0.0013610  -0.0000001   0.0000000  -0.0000000  -0.0000075

            36          37          38          39          40

   36    0.4814037
   37    0.0028069   0.4708185
   38    0.0000000  -0.0000044   0.4921596
   39   -0.0005381   0.0001089  -0.0000000   0.4910725
   40    0.0034006   0.0032051   0.0000012  -0.0307055   0.5626709
   41    0.0000001   0.0006187   0.0000395  -0.0000000   0.0000006
   42    0.0000000   0.0000009   0.0036719  -0.0000000   0.0000000
   43   -0.0000000  -0.0000031   0.0023665   0.0000000   0.0000000
   44   -0.0000000   0.0000875   0.0000002   0.0000000  -0.0000000
   45   -0.0000000  -0.0001059   0.0000015   0.0000000   0.0000017

            41          42          43          44          45

   41    0.4478644
   42    0.0028990   0.5121765
   43    0.0030100   0.0038303   0.5407363
   44   -0.0000722   0.0000144   0.0005346   0.4804426
   45    0.0026910  -0.0000012   0.0013597  -0.0254152   0.4979055

          TOTAL MULLIKEN AND LOWDIN ATOMIC POPULATIONS
       ATOM         MULL.POP.    CHARGE          LOW.POP.     CHARGE
    1 C             5.472153    0.527847         5.736419    0.263581
    2 C             5.933201    0.066799         5.953561    0.046439
    3 C             5.658719    0.341281         5.767512    0.232488
    4 C             5.989704    0.010296         5.935134    0.064866
    5 C             6.043376   -0.043376         5.982136    0.017864
    6 C             5.957365    0.042635         5.958780    0.041220
    7 C             6.039197   -0.039197         5.954638    0.045362
    8 C             5.948643    0.051357         5.956455    0.043545
    9 C             5.924171    0.075829         5.933665    0.066335
   10 C             6.067033   -0.067033         5.982645    0.017355
   11 C             6.079283   -0.079283         5.980467    0.019533
   12 C             6.123157   -0.123157         5.973277    0.026723
   13 H             0.570322    0.429678         0.738251    0.261749
   14 H             0.613334    0.386666         0.744508    0.255492
   15 H             0.613495    0.386505         0.742367    0.257633
   16 H             0.589397    0.410603         0.736662    0.263338
   17 H             0.620083    0.379917         0.751654    0.248346
   18 H             0.600092    0.399908         0.731682    0.268318
   19 H             0.593146    0.406854         0.729623    0.270377
   20 H             0.597268    0.402732         0.731813    0.268187
   21 O             8.714848   -0.714848         8.420077   -0.420077
   22 O             8.649532   -0.649532         8.382318   -0.382318
   23 O             8.677986   -0.677986         8.394615   -0.394615
   24 O             8.700912   -0.700912         8.417316   -0.417316
   25 O             8.659513   -0.659513         8.393666   -0.393666
   26 O             8.692423   -0.692423         8.407632   -0.407632
   27 O             8.686678   -0.686678         8.405370   -0.405370
   28 O             8.688746   -0.688746         8.395931   -0.395931
   29 O             8.688231   -0.688231         8.352618   -0.352618
   30 O             8.677685   -0.677685         8.382145   -0.382145
   31 O             8.633627   -0.633627         8.350080   -0.350080
   32 H             0.766293    0.233707         0.916119    0.083881
   33 H             0.740715    0.259285         0.889669    0.110331
   34 H             0.792933    0.207067         0.920486    0.079514
   35 H             0.731091    0.268909         0.907568    0.092432
   36 H             0.739028    0.260972         0.900282    0.099718
   37 H             0.698635    0.301365         0.896807    0.103193
   38 H             0.752718    0.247282         0.905481    0.094519
   39 H             0.758018    0.241982         0.899167    0.100833
   40 H             0.801516    0.198484         0.929295    0.070705
   41 H             0.686438    0.313562         0.882891    0.117109
   42 H             0.752657    0.247343         0.911907    0.088093
   43 H             0.774847    0.225153         0.922085    0.077915
   44 H             0.741024    0.258976         0.892181    0.107819
   45 H             0.760772    0.239228         0.903046    0.096954

          -------------------------------
          BOND ORDER AND VALENCE ANALYSIS     BOND ORDER THRESHOLD=0.050
          -------------------------------

                   BOND                       BOND                       BOND
  ATOM PAIR DIST  ORDER      ATOM PAIR DIST  ORDER      ATOM PAIR DIST  ORDER
    1   2  1.546  0.790        1  10  1.522  0.869        1  29  1.451  0.779
    1  30  1.463  0.820        2   5  1.546  0.867        2  21  1.436  0.916
    2  32  1.100  0.878        3   6  1.532  0.841        3  29  1.437  0.799
    3  31  1.456  0.837        3  35  1.088  0.873        4   5  1.524  0.844
    4  11  1.516  0.887        4  30  1.511  0.759        4  36  1.094  0.878
    5  23  1.445  0.884        5  37  1.093  0.805        6   8  1.531  0.848
    6  24  1.453  0.897        6  38  1.093  0.888        7   9  1.525  0.842
    7  12  1.511  0.919        7  31  1.487  0.781        7  41  1.090  0.811
    8   9  1.527  0.878        8  26  1.455  0.861        8  42  1.097  0.869
    9  27  1.453  0.866        9  43  1.100  0.881       10  22  1.469  0.878
   10  33  1.090  0.888       10  34  1.096  0.892       11  25  1.456  0.890
   11  39  1.092  0.893       11  40  1.101  0.892       12  28  1.501  0.793
   12  44  1.094  0.875       12  45  1.093  0.890       13  21  1.012  0.682
   13  28  1.732  0.119       14  22  0.998  0.800       15  23  0.997  0.792
   16  22  2.166  0.066       16  24  1.009  0.727       17  25  0.997  0.802
   18  26  0.998  0.789       19  27  0.998  0.780       20  28  0.993  0.798
   21  41  2.196  0.063       31  37  2.039  0.071

                       TOTAL       BONDED        FREE
      ATOM            VALENCE     VALENCE     VALENCE
    1 C                 3.275       3.275      -0.000
    2 C                 3.451       3.451      -0.000
    3 C                 3.362       3.362      -0.000
    4 C                 3.368       3.368      -0.000
    5 C                 3.397       3.397      -0.000
    6 C                 3.483       3.483      -0.000
    7 C                 3.317       3.317       0.000
    8 C                 3.444       3.444       0.000
    9 C                 3.454       3.454      -0.000
   10 C                 3.519       3.519       0.000
   11 C                 3.546       3.546       0.000
   12 C                 3.461       3.461      -0.000
   13 H                 0.816       0.816      -0.000
   14 H                 0.828       0.828      -0.000
   15 H                 0.840       0.840      -0.000
   16 H                 0.838       0.838      -0.000
   17 H                 0.835       0.835      -0.000
   18 H                 0.823       0.823       0.000
   19 H                 0.820       0.820       0.000
   20 H                 0.811       0.811      -0.000
   21 O                 1.746       1.746      -0.000
   22 O                 1.799       1.799      -0.000
   23 O                 1.742       1.742       0.000
   24 O                 1.729       1.729      -0.000
   25 O                 1.755       1.755      -0.000
   26 O                 1.740       1.740      -0.000
   27 O                 1.737       1.737      -0.000
   28 O                 1.802       1.802      -0.000
   29 O                 1.736       1.736      -0.000
   30 O                 1.754       1.754      -0.000
   31 O                 1.796       1.796      -0.000
   32 H                 0.894       0.894       0.000
   33 H                 0.893       0.893       0.000
   34 H                 0.908       0.908      -0.000
   35 H                 0.902       0.902      -0.000
   36 H                 0.887       0.887       0.000
   37 H                 0.890       0.890      -0.000
   38 H                 0.895       0.895      -0.000
   39 H                 0.898       0.898       0.000
   40 H                 0.911       0.911      -0.000
   41 H                 0.894       0.894      -0.000
   42 H                 0.898       0.898      -0.000
   43 H                 0.898       0.898      -0.000
   44 H                 0.896       0.896      -0.000
   45 H                 0.898       0.898       0.000

          ---------------------
          ELECTROSTATIC MOMENTS
          ---------------------

 POINT   1           X           Y           Z (BOHR)    CHARGE
                 0.048698    0.001132    0.065577       -0.00 (A.U.)
         DX          DY          DZ         /D/  (DEBYE)
    -0.258420    2.892914   -3.122287    4.264318
 ...... END OF PROPERTY EVALUATION ......
 CPU     0: STEP CPU TIME=     0.13 TOTAL CPU TIME=         26.0 (      0.4 MIN)
 TOTAL WALL CLOCK TIME=         62.2 SECONDS, CPU UTILIZATION IS    41.76%
               580000  WORDS OF DYNAMIC MEMORY USED
 EXECUTION OF GAMESS TERMINATED NORMALLY Sun May 24 20:00:54 2020
 DDI: 263640 bytes (0.3 MB / 0 MWords) used by master data server.
Note: The following floating-point exceptions are signalling: IEEE_DENORMALNote: The following floating-point exceptions are signalling: IEEE_DENORMAL
Note: The following floating-point exceptions are signalling: IEEE_DENORMAL

Note: The following floating-point exceptions are signalling: IEEE_DENORMAL

 ----------------------------------------
 CPU timing information for all processes
 ========================================
 0: 25.755 + 0.236 = 25.991
 1: 25.492 + 0.140 = 25.633
 2: 25.209 + 0.117 = 25.326
 3: 25.600 + 0.131 = 25.732
 4: 25.622 + 0.139 = 25.762
 5: 25.69 + 0.140 = 25.210
 ----------------------------------------
Note: The following floating-point exceptions are signalling:Note: The following floating-point exceptions are signalling: IEEE_DENORMAL
 IEEE_DENORMAL
 ddikick.x: exited gracefully.
unset echo
----- accounting info -----
Files used on the master node pietdev were:
-rwxr-xr-x 1 piet piet     2516 mei 24 19:59 /home/piet/scr/sucrose_fukui_neu.F05*
-rw-r--r-- 1 piet piet 49152000 mei 24 20:00 /home/piet/scr/sucrose_fukui_neu.F10
ls: No match.
ls: No match.
ls: No match.
zo 24 mei 2020 20:00:58 CEST
0.111u 0.032s 1:05.51 0.2%	0+0k 0+8io 0pf+0w
