----- GAMESS execution script 'rungms' -----
This job is running on host pietdev
under operating system Linux at do 21 mei 2020 20:37:33 CEST
Available scratch disk space (Kbyte units) at beginning of the job is
Filesystem     1K-blocks     Used Available Use% Mounted on
/dev/sda2      244568380 30779552 201295772  14% /
GAMESS temporary binary files will be written to /home/piet/scr
GAMESS supplementary output files will be written to /home/piet/gamess/scr
Copying input file alfa-d-fructofuranose_charge_geodisk.inp to your run's scratch directory...
cp alfa-d-fructofuranose_charge_geodisk.inp /home/piet/scr/alfa-d-fructofuranose_charge_geodisk.F05
unset echo
 
Assuming a single but multicore node.
 
/home/piet/gamess/ddikick.x /home/piet/gamess/gamess.03.x alfa-d-fructofuranose_charge_geodisk -ddi 1 8 pietdev:cpus=8 -scr /home/piet/scr

 Distributed Data Interface kickoff program.
 Initiating 8 compute processes on 1 nodes to run the following command:
 /home/piet/gamess/gamess.03.x alfa-d-fructofuranose_charge_geodisk 

          ******************************************************
          *         GAMESS VERSION = 30 SEP 2019 (R2)          *
          *             FROM IOWA STATE UNIVERSITY             *
          * M.W.SCHMIDT, K.K.BALDRIDGE, J.A.BOATZ, S.T.ELBERT, *
          *   M.S.GORDON, J.H.JENSEN, S.KOSEKI, N.MATSUNAGA,   *
          *          K.A.NGUYEN, S.J.SU, T.L.WINDUS,           *
          *       TOGETHER WITH M.DUPUIS, J.A.MONTGOMERY       *
          *         J.COMPUT.CHEM.  14, 1347-1363(1993)        *
          **************** 64 BIT LINUX VERSION ****************

  SINCE 1993, STUDENTS AND POSTDOCS WORKING AT IOWA STATE UNIVERSITY
  AND ALSO IN THEIR VARIOUS JOBS AFTER LEAVING ISU HAVE MADE IMPORTANT
  CONTRIBUTIONS TO THE CODE:
     IVANA ADAMOVIC, CHRISTINE AIKENS, YURI ALEXEEV, POOJA ARORA,
     ANDREY ASADCHEV, ROB BELL, PRADIPTA BANDYOPADHYAY, JONATHAN BENTZ,
     COLLEEN BERTONI, BRETT BODE, KURT BRORSEN, CALEB CARLIN, GALINA CHABAN,
     WEI CHEN, CHEOL HO CHOI, PAUL DAY, ALBERT DEFUSCO, NUWAN DESILVA,
     TIM DUDLEY, DMITRI FEDOROV, ALEX FINDLATER, GRAHAM FLETCHER, 
     MARK FREITAG, KURT GLAESEMANN, EMILIE B GUIDEZ, ANASTASIA GUNINA, 
     DAN KEMP, SAROM SOK LEANG, GRANT MERRILL,
     NORIYUKI MINEZAWA, JONATHAN MULLIN,
     TAKESHI NAGATA, SEAN NEDD, HEATHER NETZLOFF, BOSILJKA NJEGIC, RYAN OLSON,
     MIKE PAK, BUU PHAM, DAVID POOLE,
     SPENCER PRUITT, LUKE ROSKOP, TOSAPORN SATTASATHUCHANA,
     JIM SHOEMAKER, LYUDMILA SLIPCHENKO,
     TONY SMITH, JIE SONG, TETSUYA TAKETSUGU, SIMON WEBB,
     JORGE LUIS GALVEZ VALLEJO, PENG XU, SOOHAENG YOO,
     FEDERICO ZAHARIEV

  ADDITIONAL CODE HAS BEEN PROVIDED BY COLLABORATORS IN OTHER GROUPS:
     IOWA STATE UNIVERSITY:
          JOE IVANIC, AARON WEST, LAIMUTIS BYTAUTAS, KLAUS RUEDENBERG
     UNIVERSITY OF TOKYO: KIMIHIKO HIRAO, TAKAHITO NAKAJIMA,
          TAKAO TSUNEDA, MUNEAKI KAMIYA, SUSUMU YANAGISAWA,
          KIYOSHI YAGI, MAHITO CHIBA, SEIKEN TOKURA, NAOAKI KAWAKAMI
     UNIVERSITY OF AARHUS: FRANK JENSEN
     UNIVERSITY OF IOWA: VISVALDAS KAIRYS, HUI LI
     NATIONAL INST. OF STANDARDS AND TECHNOLOGY: WALT STEVENS, DAVID GARMER
     UNIVERSITY OF PISA: BENEDETTA MENNUCCI, JACOPO TOMASI
     UNIVERSITY OF MEMPHIS: HENRY KURTZ, PRAKASHAN KORAMBATH
     UNIVERSITY OF ALBERTA: TOBY ZENG, MARIUSZ KLOBUKOWSKI
     UNIVERSITY OF NEW ENGLAND: MARK SPACKMAN
     MIE UNIVERSITY: HIROAKI UMEDA
     NAT. INST. OF ADVANCED INDUSTRIAL SCIENCE AND TECHNOLOGY: KAZUO KITAURA
     MICHIGAN STATE UNIVERSITY:
          KAROL KOWALSKI, MARTA WLOCH, JEFFREY GOUR, JESSE LUTZ,
          WEI LI, JUN SHEN, J. EMILIANO DEUSTUA, PIOTR PIECUCH
     UNIVERSITY OF MINNESOTA:
          ANDREW SAND, PRACHI SHARMA, YINAN SHU
     UNIVERSITY OF SILESIA: MONIKA MUSIAL, STANISLAW KUCHARSKI
     FACULTES UNIVERSITAIRES NOTRE-DAME DE LA PAIX:
          OLIVIER QUINET, BENOIT CHAMPAGNE
     UNIVERSITY OF CALIFORNIA - SANTA BARBARA: BERNARD KIRTMAN
     INSTITUTE FOR MOLECULAR SCIENCE:
          KAZUYA ISHIMURA, MICHIO KATOUDA, AND SHIGERU NAGASE
     UNIVERSITY OF NOTRE DAME: ANNA POMOGAEVA, DAN CHIPMAN
     KYUSHU UNIVERSITY:
          HARUYUKI NAKANO,
          FENG LONG GU, JACEK KORCHOWIEC, MARCIN MAKOWSKI, AND YURIKO AOKI,
          HIROTOSHI MORI AND EISAKU MIYOSHI
     PENNSYLVANIA STATE UNIVERSITY:
          TZVETELIN IORDANOV, CHET SWALINA, JONATHAN SKONE,
          SHARON HAMMES-SCHIFFER
     WASEDA UNIVERSITY:
          MASATO KOBAYASHI, TOMOKO AKAMA, TSUGUKI TOUMA,
          TAKESHI YOSHIKAWA, YASUHIRO IKABATA, JUNJI SEINO,
          YUYA NAKAJIMA, HIROMI NAKAI
     NANJING UNIVERSITY: SHUHUA LI
     UNIVERSITY OF NEBRASKA:
          PEIFENG SU, DEJUN SI, NANDUN THELLAMUREGE, YALI WANG, HUI LI
     UNIVERSITY OF ZURICH: ROBERTO PEVERATI, KIM BALDRIDGE
     N. COPERNICUS UNIVERSITY AND JACKSON STATE UNIVERSITY:
          MARIA BARYSZ
     UNIVERSITY OF COPENHAGEN: Jimmy Kromann, CASPER STEINMANN
     TOKYO INSTITUTE OF TECHNOLOGY: HIROYA NAKATA
     NAGOYA UNIVERSITY: YOSHIO NISHIMOTO, STEPHAN IRLE
     MOSCOW STATE UNIVERSITY: VLADIMIR MIRONOV
     A.N.NESMEYANOV INSTITUTE OF ORGANOELEMENT COMPOUNDS OF RUSSIAN ACADEMY OF SCIENCES:
          IGOR S. GERASIMOV
     JOHANNES KEPLER UNIVERSITY LINZ:
          CHRISTIAN FRIEDL


 PARALLEL VERSION RUNNING ON        8 PROCESSORS IN        1 NODES.

 EXECUTION OF GAMESS BEGUN Thu May 21 20:37:33 2020

            ECHO OF THE FIRST FEW INPUT CARDS -
 INPUT CARD> $BASIS GBASIS=N21 NGAUSS=3 $END                                                
 INPUT CARD> $CONTRL SCFTYP=RHF DFTTYP=B3LYP MAXIT=60 MULT=1 ICHARG=0 $END                  
 INPUT CARD> $SYSTEM MEMDDI=1000 MWORDS=30 $END                                             
 INPUT CARD> $SCF DIRSCF=.TRUE. $END                                                        
 INPUT CARD> $ELPOT  IEPOT=1 WHERE=PDC $END                                                 
 INPUT CARD> $PDC PTSEL=GEODESIC CONSTR=CHARGE $END                                         
 INPUT CARD> $DATA                                                                          
 INPUT CARD>                                                                                
 INPUT CARD>C1                                                                              
 INPUT CARD>O 8.0000000 2.8402795290 1.6733793566 0.2940617297                              
 INPUT CARD>C 6.0000000 2.0726880957 0.5156280325 0.7931663662                              
 INPUT CARD>C 6.0000000 1.0190867708 0.2215583181 -0.2911154777                             
 INPUT CARD>O 8.0000000 1.5517028450 0.5508948178 -1.5592361253                             
 INPUT CARD>C 6.0000000 0.5419359914 -1.2495186885 -0.3175054174                            
 INPUT CARD>H 1.0000000 0.4586594155 -1.5465112412 -1.3698189161                            
 INPUT CARD>O 8.0000000 1.4506574301 -2.0934550775 0.4357946441                             
 INPUT CARD>C 6.0000000 -0.8673517604 -1.1977068862 0.2683947529                            
 INPUT CARD>H 1.0000000 -0.7702952613 -1.1689442757 1.3654695690                            
 INPUT CARD>O 8.0000000 -1.5960121833 -2.3584427212 -0.2047045769                           
 INPUT CARD>C 6.0000000 -1.3640388622 0.1731804314 -0.2153341129                            
 INPUT CARD>H 1.0000000 -1.6194515310 0.1297208912 -1.2800203228                            
 INPUT CARD>O 8.0000000 -0.1870327646 1.0167389204 0.0499399574                             
 INPUT CARD>C 6.0000000 -2.5408663815 0.7121833722 0.5744697011                             
 INPUT CARD>O 8.0000000 -3.1202477491 1.8050571862 -0.1915496148                            
 INPUT CARD>H 1.0000000 3.7960519275 1.5409604843 0.5224265343                              
 INPUT CARD>H 1.0000000 2.6952237133 -0.3736560047 0.9112456808                             
 INPUT CARD>H 1.0000000 1.5626838011 0.7579810193 1.7267557227                              
 INPUT CARD>H 1.0000000 2.1883310327 1.3042708034 -1.3436715954                             
 INPUT CARD>H 1.0000000 1.0808729284 -3.0163112519 0.3904812445                             
 INPUT CARD>H 1.0000000 -2.5056055735 -2.3398831150 0.1968816567                            
 INPUT CARD>H 1.0000000 -3.2681132172 -0.1062999658 0.7289367337                            
 INPUT CARD>H 1.0000000 -2.1535069530 1.0257888839 1.5538896499                             
 INPUT CARD>H 1.0000000 -3.6896511435 2.3422868103 0.4215421162                             
 INPUT CARD> $END                                                                           
   30000000 WORDS OF MEMORY AVAILABLE

     BASIS OPTIONS
     -------------
     GBASIS=N21          IGAUSS=       3      POLAR=NONE    
     NDFUNC=       0     NFFUNC=       0     DIFFSP=       F
     NPFUNC=       0      DIFFS=       F     BASNAM=        


     RUN TITLE
     ---------
                                                                                 

 THE POINT GROUP OF THE MOLECULE IS C1      
 THE ORDER OF THE PRINCIPAL AXIS IS     0

 ATOM      ATOMIC                      COORDINATES (BOHR)
           CHARGE         X                   Y                   Z
 O           8.0     5.3673500383        3.1622284575        0.5556960926
 C           6.0     3.9168125589        0.9743956930        1.4988670948
 C           6.0     1.9257947545        0.4186845115       -0.5501284836
 O           8.0     2.9322931914        1.0410402537       -2.9465290270
 C           6.0     1.0241105266       -2.3612479378       -0.5999982385
 H           1.0     0.8667406170       -2.9224824828       -2.5885824042
 O           8.0     2.7413450449       -3.9560564641        0.8235324643
 C           6.0    -1.6390571621       -2.2633378285        0.5071925395
 H           1.0    -1.4556469735       -2.2089843760        2.5803633300
 O           8.0    -3.0160256995       -4.4568105008       -0.3868355588
 C           6.0    -2.5776596862        0.3272635618       -0.4069224692
 H           1.0    -3.0603196440        0.2451369393       -2.4188876688
 O           8.0    -0.3534406758        1.9213579606        0.0943728353
 C           6.0    -4.8015412324        1.3458314265        1.0855903233
 O           8.0    -5.8964132596        3.4110634741       -0.3619762850
 H           1.0     7.1734979781        2.9119930732        0.9872429985
 H           1.0     5.0932342937       -0.7061074625        1.7220046442
 H           1.0     2.9530441895        1.4323764304        3.2630951636
 H           1.0     4.1353460222        2.4647144322       -2.5391711328
 H           1.0     2.0425536622       -5.7000017598        0.7379025554
 H           1.0    -4.7349079672       -4.4217379306        0.3720523832
 H           1.0    -6.1758384774       -0.2008778079        1.3774906891
 H           1.0    -4.0695380538        1.9384599118        2.9364256535
 H           1.0    -6.9724296515        4.4262802561        0.7965990919

          INTERNUCLEAR DISTANCES (ANGS.)
          ------------------------------

                1 O          2 C          3 C          4 O          5 C     

   1 O       0.0000000    1.4760387 *  2.4014495 *  2.5209352 *  3.7682530  
   2 C       1.4760387 *  0.0000000    1.5402012 *  2.4096612 *  2.5869938 *
   3 C       2.4014495 *  1.5402012 *  0.0000000    1.4143099 *  1.5467504 *
   4 O       2.5209352 *  2.4096612 *  1.4143099 *  0.0000000    2.4089444 *
   5 C       3.7682530    2.5869938 *  1.5467504 *  2.4089444 *  0.0000000  
   6 H       4.3368547    3.3964706    2.1456351 *  2.3727063 *  1.0965871 *
   7 O       4.0174842    2.7059105 *  2.4645362 *  3.3140526    1.4510218 *
   8 C       4.6893843    3.4430707    2.4261112 *  3.4999525    1.5271069 *
   9 H       4.7183650    3.3537843    2.8070731 *  4.1113775    2.1356142 *
  10 O       6.0154003    4.7660666    3.6745904    4.4952320    2.4110701 *
  11 C       4.4929249    3.5979766    2.3848210 *  3.2326909    2.3805991 *
  12 H       4.9749188    4.2519316    2.8192643 *  3.2111632    2.7386735 *
  13 O       3.1073126    2.4310154 *  1.4843703 *  2.4144689 *  2.4088037 *
  14 C       5.4735051    4.6229154    3.6963789    4.6182072    3.7613249  
  15 O       5.9817257    5.4404849    4.4329981    5.0269884    4.7705229  
  16 H       0.9915574 *  2.0235092 *  3.1802843    3.2172430    4.3682411  
  17 H       2.1429678 *  1.0919338 *  2.1469484 *  2.8750156 *  2.6293750 *
  18 H       2.1266916 *  1.0910676 *  2.1575568 *  3.2925291    3.0415432  
  19 H       1.8009576 *  2.2806594 *  1.9097835 *  1.0096231 *  3.2070975  
  20 H       5.0097910    3.6905891    3.3094095    4.0924367    1.9781947 *
  21 H       6.6853726    5.4286529    4.3843562    5.2822626    3.2773462  
  22 H       6.3772123    5.3772743    4.4190589    5.3757108    4.1132062  
  23 H       5.1908037    4.3243137    3.7571507    4.8626799    3.9930636  
  24 H       6.5653395    6.0563471    5.2132123    5.8825470    5.5994274  

                6 H          7 O          8 C          9 H         10 O     

   1 O       4.3368547    4.0174842    4.6893843    4.7183650    6.0154003  
   2 C       3.3964706    2.7059105 *  3.4430707    3.3537843    4.7660666  
   3 C       2.1456351 *  2.4645362 *  2.4261112 *  2.8070731 *  3.6745904  
   4 O       2.3727063 *  3.3140526    3.4999525    4.1113775    4.4952320  
   5 C       1.0965871 *  1.4510218 *  1.5271069 *  2.1356142 *  2.4110701 *
   6 H       0.0000000    2.1315365 *  2.1362851 *  3.0223649    2.4976788 *
   7 O       2.1315365 *  0.0000000    2.4906935 *  2.5790786 *  3.1245245  
   8 C       2.1362851 *  2.4906935 *  0.0000000    1.1017352 *  1.4498540 *
   9 H       3.0223649    2.5790786 *  1.1017352 *  0.0000000    2.1359218 *
  10 O       2.4976788 *  3.1245245    1.4498540 *  2.1359218 *  0.0000000  
  11 C       2.7590585 *  3.6720730    1.5362369 *  2.1570282 *  2.5422510 *
  12 H       2.6713972 *  4.1607813    2.1737773 *  3.0669552    2.7106847 *
  13 O       3.0004808    3.5361306    2.3268706 *  2.6168730 *  3.6663221  
  14 C       4.2283702    4.8808913    2.5577361 *  2.7017113 *  3.3058443  
  15 O       5.0428073    6.0402924    3.7820208    4.0977152    4.4337567  
  16 H       4.9245572    4.3263561    5.4140710    5.3764144    6.6939092  
  17 H       3.4030964    2.1754787 *  3.7127161    3.5844978    4.8579243  
  18 H       4.0147639    3.1320629    3.4433421    3.0473530    4.8394211  
  19 H       3.3345773    3.9057910    4.2656591    4.7127177    5.3883179  
  20 H       2.3761562 *  0.9952173 *  2.6679217 *  2.7910913 *  2.8200622 *
  21 H       3.4454109    3.9711237    1.9983884 *  2.3974981 *  0.9944728 *
  22 H       4.5130719    5.1285002    2.6771110 *  2.7880964 *  2.9563077 *
  23 H       4.6891591    4.8958983    2.8723903 *  2.6010825 *  3.8544102  
  24 H       5.9615606    6.7896083    4.5299430    4.6628727    5.1838564  

               11 C         12 H         13 O         14 C         15 O     

   1 O       4.4929249    4.9749188    3.1073126    5.4735051    5.9817257  
   2 C       3.5979766    4.2519316    2.4310154 *  4.6229154    5.4404849  
   3 C       2.3848210 *  2.8192643 *  1.4843703 *  3.6963789    4.4329981  
   4 O       3.2326909    3.2111632    2.4144689 *  4.6182072    5.0269884  
   5 C       2.3805991 *  2.7386735 *  2.4088037 *  3.7613249    4.7705229  
   6 H       2.7590585 *  2.6713972 *  3.0004808    4.2283702    5.0428073  
   7 O       3.6720730    4.1607813    3.5361306    4.8808913    6.0402924  
   8 C       1.5362369 *  2.1737773 *  2.3268706 *  2.5577361 *  3.7820208  
   9 H       2.1570282 *  3.0669552    2.6168730 *  2.7017113 *  4.0977152  
  10 O       2.5422510 *  2.7106847 *  3.6663221    3.3058443    4.4337567  
  11 C       0.0000000    1.0957559 *  1.4721768 *  1.5163236 *  2.3974689 *
  12 H       1.0957559 *  0.0000000    2.1464899 *  2.1511395 *  2.4987816 *
  13 O       1.4721768 *  2.1464899 *  0.0000000    2.4307238 *  3.0468858  
  14 C       1.5163236 *  2.1511395 *  2.4307238 *  0.0000000    1.4549370 *
  15 O       2.3974689 *  2.4987816 *  3.0468858    1.4549370 *  0.0000000  
  16 H       5.3890305    5.8794634    4.0451224    6.3910964    6.9580680  
  17 H       4.2480378    4.8653322    3.3139777    5.3580878    6.3073494  
  18 H       3.5608159    4.4228270    2.4372474 *  4.2625092    5.1677956  
  19 H       3.8951050    3.9853265    2.7689675 *  5.1376202    5.4551976  
  20 H       4.0641682    4.4698821    4.2413497    5.2012037    6.4213525  
  21 H       2.7908036 *  3.0108890    4.0821910    3.0755367    4.2082293  
  22 H       2.1436548 *  2.6095401 *  3.3489267    1.1057409 *  2.1266042 *
  23 H       2.1166846 *  3.0198011    2.4756751 *  1.0989355 *  2.1420563 *
  24 H       3.2433172    3.4751243    3.7634427    2.0000826 *  0.9943427 *

               16 H         17 H         18 H         19 H         20 H     

   1 O       0.9915574 *  2.1429678 *  2.1266916 *  1.8009576 *  5.0097910  
   2 C       2.0235092 *  1.0919338 *  1.0910676 *  2.2806594 *  3.6905891  
   3 C       3.1802843    2.1469484 *  2.1575568 *  1.9097835 *  3.3094095  
   4 O       3.2172430    2.8750156 *  3.2925291    1.0096231 *  4.0924367  
   5 C       4.3682411    2.6293750 *  3.0415432    3.2070975    1.9781947 *
   6 H       4.9245572    3.4030964    4.0147639    3.3345773    2.3761562 *
   7 O       4.3263561    2.1754787 *  3.1320629    3.9057910    0.9952173 *
   8 C       5.4140710    3.7127161    3.4433421    4.2656591    2.6679217 *
   9 H       5.3764144    3.5844978    3.0473530    4.7127177    2.7910913 *
  10 O       6.6939092    4.8579243    4.8394211    5.3883179    2.8200622 *
  11 C       5.3890305    4.2480378    3.5608159    3.8951050    4.0641682  
  12 H       5.8794634    4.8653322    4.4228270    3.9853265    4.4698821  
  13 O       4.0451224    3.3139777    2.4372474 *  2.7689675 *  4.2413497  
  14 C       6.3910964    5.3580878    4.2625092    5.1376202    5.2012037  
  15 O       6.9580680    6.3073494    5.1677956    5.4551976    6.4213525  
  16 H       0.0000000    2.2424896 *  2.6554470 *  2.4744920 *  5.3064425  
  17 H       2.2424896 *  0.0000000    1.7967486 *  2.8560516 *  3.1402151  
  18 H       2.6554470 *  1.7967486 *  0.0000000    3.1807846    4.0327476  
  19 H       2.4744920 *  2.8560516 *  3.1807846    0.0000000    4.7855176  
  20 H       5.3064425    3.1402151    4.0327476    4.7855176    0.0000000  
  21 H       7.4079561    5.6057997    5.3374390    6.1389089    3.6548412  
  22 H       7.2566206    5.9721104    5.0079162    6.0048480    5.2437008  
  23 H       6.0602449    5.0873988    3.7298361    5.2273292    5.3059689  
  24 H       7.5291468    6.9557733    5.6392047    6.2244784    7.1744991  

               21 H         22 H         23 H         24 H     

   1 O       6.6853726    6.3772123    5.1908037    6.5653395  
   2 C       5.4286529    5.3772743    4.3243137    6.0563471  
   3 C       4.3843562    4.4190589    3.7571507    5.2132123  
   4 O       5.2822626    5.3757108    4.8626799    5.8825470  
   5 C       3.2773462    4.1132062    3.9930636    5.5994274  
   6 H       3.4454109    4.5130719    4.6891591    5.9615606  
   7 O       3.9711237    5.1285002    4.8958983    6.7896083  
   8 C       1.9983884 *  2.6771110 *  2.8723903 *  4.5299430  
   9 H       2.3974981 *  2.7880964 *  2.6010825 *  4.6628727  
  10 O       0.9944728 *  2.9563077 *  3.8544102    5.1838564  
  11 C       2.7908036 *  2.1436548 *  2.1166846 *  3.2433172  
  12 H       3.0108890    2.6095401 *  3.0198011    3.4751243  
  13 O       4.0821910    3.3489267    2.4756751 *  3.7634427  
  14 C       3.0755367    1.1057409 *  1.0989355 *  2.0000826 *
  15 O       4.2082293    2.1266042 *  2.1420563 *  0.9943427 *
  16 H       7.4079561    7.2566206    6.0602449    7.5291468  
  17 H       5.6057997    5.9721104    5.0873988    6.9557733  
  18 H       5.3374390    5.0079162    3.7298361    5.6392047  
  19 H       6.1389089    6.0048480    5.2273292    6.2244784  
  20 H       3.6548412    5.2437008    5.3059689    7.1744991  
  21 H       0.0000000    2.4193789 *  3.6459830    4.8347856  
  22 H       2.4193789 *  0.0000000    1.7901172 *  2.5035501 *
  23 H       3.6459830    1.7901172 *  0.0000000    2.3184298 *
  24 H       4.8347856    2.5035501 *  2.3184298 *  0.0000000  

  * ... LESS THAN  3.000


     ATOMIC BASIS SET
     ----------------
 THE CONTRACTED PRIMITIVE FUNCTIONS HAVE BEEN UNNORMALIZED
 THE CONTRACTED BASIS FUNCTIONS ARE NOW NORMALIZED TO UNITY

  SHELL TYPE  PRIMITIVE        EXPONENT          CONTRACTION COEFFICIENT(S)

 O         

      1   S       1           322.0370000    0.059239393389
      1   S       2            48.4308000    0.351499960776
      1   S       3            10.4206000    0.707657921031

      2   L       4             7.4029400   -0.404453583190    0.244586106967
      2   L       5             1.5762000    1.221561761397    0.853955373466

      3   L       6             0.3736840    1.000000000000    1.000000000000

 C         

      4   S       7           172.2560000    0.061766907377
      4   S       8            25.9109000    0.358794042852
      4   S       9             5.5333500    0.700713083689

      5   L      10             3.6649800   -0.395895162119    0.236459946619
      5   L      11             0.7705450    1.215834355681    0.860618805716

      6   L      12             0.1958570    1.000000000000    1.000000000000

 C         

      7   S      13           172.2560000    0.061766907377
      7   S      14            25.9109000    0.358794042852
      7   S      15             5.5333500    0.700713083689

      8   L      16             3.6649800   -0.395895162119    0.236459946619
      8   L      17             0.7705450    1.215834355681    0.860618805716

      9   L      18             0.1958570    1.000000000000    1.000000000000

 O         

     10   S      19           322.0370000    0.059239393389
     10   S      20            48.4308000    0.351499960776
     10   S      21            10.4206000    0.707657921031

     11   L      22             7.4029400   -0.404453583190    0.244586106967
     11   L      23             1.5762000    1.221561761397    0.853955373466

     12   L      24             0.3736840    1.000000000000    1.000000000000

 C         

     13   S      25           172.2560000    0.061766907377
     13   S      26            25.9109000    0.358794042852
     13   S      27             5.5333500    0.700713083689

     14   L      28             3.6649800   -0.395895162119    0.236459946619
     14   L      29             0.7705450    1.215834355681    0.860618805716

     15   L      30             0.1958570    1.000000000000    1.000000000000

 H         

     16   S      31             5.4471780    0.156284978695
     16   S      32             0.8245472    0.904690876670

     17   S      33             0.1831916    1.000000000000

 O         

     18   S      34           322.0370000    0.059239393389
     18   S      35            48.4308000    0.351499960776
     18   S      36            10.4206000    0.707657921031

     19   L      37             7.4029400   -0.404453583190    0.244586106967
     19   L      38             1.5762000    1.221561761397    0.853955373466

     20   L      39             0.3736840    1.000000000000    1.000000000000

 C         

     21   S      40           172.2560000    0.061766907377
     21   S      41            25.9109000    0.358794042852
     21   S      42             5.5333500    0.700713083689

     22   L      43             3.6649800   -0.395895162119    0.236459946619
     22   L      44             0.7705450    1.215834355681    0.860618805716

     23   L      45             0.1958570    1.000000000000    1.000000000000

 H         

     24   S      46             5.4471780    0.156284978695
     24   S      47             0.8245472    0.904690876670

     25   S      48             0.1831916    1.000000000000

 O         

     26   S      49           322.0370000    0.059239393389
     26   S      50            48.4308000    0.351499960776
     26   S      51            10.4206000    0.707657921031

     27   L      52             7.4029400   -0.404453583190    0.244586106967
     27   L      53             1.5762000    1.221561761397    0.853955373466

     28   L      54             0.3736840    1.000000000000    1.000000000000

 C         

     29   S      55           172.2560000    0.061766907377
     29   S      56            25.9109000    0.358794042852
     29   S      57             5.5333500    0.700713083689

     30   L      58             3.6649800   -0.395895162119    0.236459946619
     30   L      59             0.7705450    1.215834355681    0.860618805716

     31   L      60             0.1958570    1.000000000000    1.000000000000

 H         

     32   S      61             5.4471780    0.156284978695
     32   S      62             0.8245472    0.904690876670

     33   S      63             0.1831916    1.000000000000

 O         

     34   S      64           322.0370000    0.059239393389
     34   S      65            48.4308000    0.351499960776
     34   S      66            10.4206000    0.707657921031

     35   L      67             7.4029400   -0.404453583190    0.244586106967
     35   L      68             1.5762000    1.221561761397    0.853955373466

     36   L      69             0.3736840    1.000000000000    1.000000000000

 C         

     37   S      70           172.2560000    0.061766907377
     37   S      71            25.9109000    0.358794042852
     37   S      72             5.5333500    0.700713083689

     38   L      73             3.6649800   -0.395895162119    0.236459946619
     38   L      74             0.7705450    1.215834355681    0.860618805716

     39   L      75             0.1958570    1.000000000000    1.000000000000

 O         

     40   S      76           322.0370000    0.059239393389
     40   S      77            48.4308000    0.351499960776
     40   S      78            10.4206000    0.707657921031

     41   L      79             7.4029400   -0.404453583190    0.244586106967
     41   L      80             1.5762000    1.221561761397    0.853955373466

     42   L      81             0.3736840    1.000000000000    1.000000000000

 H         

     43   S      82             5.4471780    0.156284978695
     43   S      83             0.8245472    0.904690876670

     44   S      84             0.1831916    1.000000000000

 H         

     45   S      85             5.4471780    0.156284978695
     45   S      86             0.8245472    0.904690876670

     46   S      87             0.1831916    1.000000000000

 H         

     47   S      88             5.4471780    0.156284978695
     47   S      89             0.8245472    0.904690876670

     48   S      90             0.1831916    1.000000000000

 H         

     49   S      91             5.4471780    0.156284978695
     49   S      92             0.8245472    0.904690876670

     50   S      93             0.1831916    1.000000000000

 H         

     51   S      94             5.4471780    0.156284978695
     51   S      95             0.8245472    0.904690876670

     52   S      96             0.1831916    1.000000000000

 H         

     53   S      97             5.4471780    0.156284978695
     53   S      98             0.8245472    0.904690876670

     54   S      99             0.1831916    1.000000000000

 H         

     55   S     100             5.4471780    0.156284978695
     55   S     101             0.8245472    0.904690876670

     56   S     102             0.1831916    1.000000000000

 H         

     57   S     103             5.4471780    0.156284978695
     57   S     104             0.8245472    0.904690876670

     58   S     105             0.1831916    1.000000000000

 H         

     59   S     106             5.4471780    0.156284978695
     59   S     107             0.8245472    0.904690876670

     60   S     108             0.1831916    1.000000000000

 TOTAL NUMBER OF BASIS SET SHELLS             =   60
 NUMBER OF CARTESIAN GAUSSIAN BASIS FUNCTIONS =  132
 NUMBER OF ELECTRONS                          =   96
 CHARGE OF MOLECULE                           =    0
 SPIN MULTIPLICITY                            =    1
 NUMBER OF OCCUPIED ORBITALS (ALPHA)          =   48
 NUMBER OF OCCUPIED ORBITALS (BETA )          =   48
 TOTAL NUMBER OF ATOMS                        =   24
 THE NUCLEAR REPULSION ENERGY IS      814.4043443499

 SELECTED MURRAY-HANDY-LAMING RADIAL GRID

 LEGACY BECKE'S FUZZY CELL METHOD

 SELECTED ORIGINAL BECKE'S PARTITION FUNCTION

     LEBEDEV GRID-BASED DFT OPTIONS
     ------------------------------
     DFTTYP=B3LYP   
     NRAD  =      96     NLEB  =     302
     NRAD0 =      24     NLEB0 =     110
     SWOFF =    5.00E-03 (PURE SCF -> DFT)
     SWITCH=    3.00E-04 (COARSE -> TIGHT GRID)
     THRESH=    0.00E+00 GTHRE=    1.00E+00

 GRIMME'S EMPIRICAL DISPERSION CORRECTION= F

     $CONTRL OPTIONS
     ---------------
 SCFTYP=RHF          RUNTYP=ENERGY       EXETYP=RUN     
 MPLEVL=       0     CITYP =NONE         CCTYP =NONE         VBTYP =NONE    
 DFTTYP=B3LYP        TDDFT =NONE    
 MULT  =       1     ICHARG=       0     NZVAR =       0     COORD =UNIQUE  
 PP    =NONE         RELWFN=NONE         LOCAL =NONE         NUMGRD=       F
 ISPHER=      -1     NOSYM =       0     MAXIT =      60     UNITS =ANGS    
 PLTORB=       F     MOLPLT=       F     AIMPAC=       F     FRIEND=        
 NPRINT=       7     IREST =       0     GEOM  =INPUT   
 NORMF =       0     NORMP =       0     ITOL  =      20     ICUT  =       9
 INTTYP=BEST         GRDTYP=BEST         QMTTOL= 1.0E-06

     $SYSTEM OPTIONS
     ---------------
  REPLICATED MEMORY=    30000000 WORDS (ON EVERY NODE).
 DISTRIBUTED MEMDDI=        1000 MILLION WORDS IN AGGREGATE,
 MEMDDI DISTRIBUTED OVER   8 PROCESSORS IS   125000000 WORDS/PROCESSOR.
 TOTAL MEMORY REQUESTED ON EACH PROCESSOR=   155000000 WORDS.
 TIMLIM=      525600.00 MINUTES, OR     365.0 DAYS.
 PARALL= T  BALTYP=  DLB     KDIAG=    0  COREFL= F
 MXSEQ2=     300 MXSEQ3=     150  mem10=         0

     INPUT FOR POTENTIAL-DERIVED CHARGES 
     -----------------------------------
     VDWSCL=    1.40   RMAX=    3.00   DELR=    0.80
     VDWINC=    0.20 PTDENS=    0.28
     LAYER =       4  NFREQ=      30 MAXPDC=   10000
     CONSTR=CHARGE    UNITS=ANGS      PTSEL=GEODESIC
     CENTER=  0.0000  0.0000  0.0000
     DPOLE =  0.0000  0.0000  0.0000
     QPOLE =  0.0000  0.0000  0.0000  0.0000  0.0000  0.0000


          ----------------
          PROPERTIES INPUT
          ----------------

     MOMENTS            FIELD           POTENTIAL          DENSITY
 IEMOM =       1   IEFLD =       0   IEPOT =       1   IEDEN =       0
 WHERE =COMASS     WHERE =NUCLEI     WHERE =PDC        WHERE =NUCLEI  
 OUTPUT=BOTH       OUTPUT=BOTH       OUTPUT=BOTH       OUTPUT=BOTH    
 IEMINT=       0   IEFINT=       0                     IEDINT=       0
                                                       MORB  =       0
          EXTRAPOLATION IN EFFECT
          DIIS IN EFFECT
 ORBITAL PRINTING OPTION: NPREO=     1   132     2     1

     -------------------------------
     INTEGRAL TRANSFORMATION OPTIONS
     -------------------------------
     NWORD  =            0
     CUTOFF = 1.0E-09     MPTRAN =       0
     DIRTRF =       T     AOINTS =DUP     

          ----------------------
          INTEGRAL INPUT OPTIONS
          ----------------------
 NOPK  =       1 NORDER=       0 SCHWRZ=       T

     ------------------------------------------
     THE POINT GROUP IS C1 , NAXIS= 0, ORDER= 1
     ------------------------------------------

     DIMENSIONS OF THE SYMMETRY SUBSPACES ARE
 A   =  132

 ..... DONE SETTING UP THE RUN .....
 CPU     0: STEP CPU TIME=     0.02 TOTAL CPU TIME=          0.0 (      0.0 MIN)
 TOTAL WALL CLOCK TIME=          0.0 SECONDS, CPU UTILIZATION IS    66.67%

          ********************
          1 ELECTRON INTEGRALS
          ********************
 ...... END OF ONE-ELECTRON INTEGRALS ......
 CPU     0: STEP CPU TIME=     0.02 TOTAL CPU TIME=          0.0 (      0.0 MIN)
 TOTAL WALL CLOCK TIME=          0.0 SECONDS, CPU UTILIZATION IS   100.00%

          -------------
          GUESS OPTIONS
          -------------
          GUESS =HUCKEL            NORB  =       0          NORDER=       0
          MIX   =       F          PRTMO =       F          PUNMO =       F
          TOLZ  = 1.0E-08          TOLE  = 1.0E-05
          SYMDEN=       F          PURIFY=       F

 INITIAL GUESS ORBITALS GENERATED BY HUCKEL   ROUTINE.
 HUCKEL GUESS REQUIRES    164928 WORDS.

 SYMMETRIES FOR INITIAL GUESS ORBITALS FOLLOW.   BOTH SET(S).
    48 ORBITALS ARE OCCUPIED (   12 CORE ORBITALS).
    13=A       14=A       15=A       16=A       17=A       18=A       19=A   
    20=A       21=A       22=A       23=A       24=A       25=A       26=A   
    27=A       28=A       29=A       30=A       31=A       32=A       33=A   
    34=A       35=A       36=A       37=A       38=A       39=A       40=A   
    41=A       42=A       43=A       44=A       45=A       46=A       47=A   
    48=A       49=A       50=A       51=A       52=A       53=A       54=A   
    55=A       56=A       57=A       58=A   
 ...... END OF INITIAL ORBITAL SELECTION ......
 CPU     0: STEP CPU TIME=     0.03 TOTAL CPU TIME=          0.1 (      0.0 MIN)
 TOTAL WALL CLOCK TIME=          0.1 SECONDS, CPU UTILIZATION IS    77.78%

                    ----------------------
                    AO INTEGRAL TECHNOLOGY
                    ----------------------
     S,P,L SHELL ROTATED AXIS INTEGRALS, REPROGRAMMED BY
        KAZUYA ISHIMURA (IMS) AND JOSE SIERRA (SYNSTAR).
     S,P,D,L SHELL ROTATED AXIS INTEGRALS PROGRAMMED BY
        KAZUYA ISHIMURA (INSTITUTE FOR MOLECULAR SCIENCE).
     S,P,D,F,G SHELL TO TOTAL QUARTET ANGULAR MOMENTUM SUM 5,
        ERIC PROGRAM BY GRAHAM FLETCHER (ELORET AND NASA ADVANCED
        SUPERCOMPUTING DIVISION, AMES RESEARCH CENTER).
     S,P,D,F,G,L SHELL GENERAL RYS QUADRATURE PROGRAMMED BY
        MICHEL DUPUIS (PACIFIC NORTHWEST NATIONAL LABORATORY).

          --------------------
          2 ELECTRON INTEGRALS
          --------------------

 DIRECT SCF METHOD SKIPS INTEGRAL STORAGE ON DISK.
 DIRECT TRANSFORMATION SKIPS AO INTEGRAL STORAGE ON DISK.
  ...... END OF TWO-ELECTRON INTEGRALS .....
 CPU     0: STEP CPU TIME=     0.01 TOTAL CPU TIME=          0.1 (      0.0 MIN)
 TOTAL WALL CLOCK TIME=          0.1 SECONDS, CPU UTILIZATION IS    80.00%

          --------------------------
             R-B3LYP SCF CALCULATION
          --------------------------

     NUCLEAR ENERGY =       814.4043443499
     MAXIT =   60     NPUNCH=    2
     EXTRAP=T  DAMP=F  SHIFT=F  RSTRCT=F  DIIS=T  DEM=F  SOSCF=F
         DENSITY MATRIX CONVERGENCE THRESHOLD=  2.00E-05
     COARSE -> FINE DFT GRID SWITCH THRESHOLD=  3.00E-04 (SWITCH IN $DFT)
                   HF -> DFT SWITCH THRESHOLD=  5.00E-03 (SWOFF IN $DFT)
     MEMORY REQUIRED FOR RHF ITERS=    955663 WORDS.

 DIRECT SCF CALCULATION, SCHWRZ=T   FDIFF=T,  DIRTHR=  0.00E+00 NITDIR=10
 SCHWARZ INEQUALITY OVERHEAD:      7915 INTEGRALS, T=        0.00

 DFT CODE IS SWITCHING FROM THE FINE GRID NRAD= 96,  NLEB=  302
                      TO THE COARSE GRID NRAD0= 24, NLEB0=  110

     EXCHANGE FUNCTIONAL   =B88&HFX   
     CORRELATION FUNCTIONAL=LYP88&VWN5
     DFT THRESHOLD         =.575E-08
     GRID CHANGE THRESHOLD =.300E-03
 FOR AN EULER-MACLAURIN QUADRATURE USING  96 RADIAL POINTS:
 SMALLEST GAUSSIAN PRIMITIVE EXPONENT=        0.1831915800 OF TYPE -S-
 ON ATOM NUMBER   6 HAS RADIAL NORMALIZATION=  1.000000
  LARGEST GAUSSIAN PRIMITIVE EXPONENT=      322.0370000000 OF TYPE -S-
 ON ATOM NUMBER   1 HAS RADIAL NORMALIZATION=  1.000000
 DFT IS SWITCHED OFF, PERFORMING PURE SCF UNTIL SWOFF THRESHOLD IS REACHED.

                                                                                   NONZERO     BLOCKS
 ITER EX DEM     TOTAL ENERGY        E CHANGE  DENSITY CHANGE    DIIS ERROR      INTEGRALS    SKIPPED
   1  0  0     -677.6667096178  -677.6667096178   0.755911299   0.616346993       20307100     920735
          * * *   INITIATING DIIS PROCEDURE   * * *
   2  1  0     -679.4104338239    -1.7437242061   0.133847808   0.079695809       20277515     933191
   3  2  0     -679.5003413502    -0.0899075263   0.081384081   0.031961823       19971530     980808
   4  3  0     -679.5147323164    -0.0143909662   0.020452214   0.011115527       19671862    1013388
   5  4  0     -679.5173193634    -0.0025870469   0.004551678   0.002324044       19126966    1047250
 CONVERGED TO SWOFF, SO DFT CALCULATION IS NOW SWITCHED ON.
          * * *   INITIATING DIIS PROCEDURE   * * *
   6  5  0     -682.9193541492    -3.4020347859   0.119383692   0.054019877       20340311     908574
   7  6  0     -682.9705739654    -0.0512198162   0.109808513   0.028361241       20119346     965099
   8  7  0     -682.9721279066    -0.0015539412   0.055389629   0.025261565       19834200     996486
   9  8  0     -682.9810213821    -0.0088934755   0.004422887   0.005067919       19526237    1024141
  10  9  0     -682.9813397602    -0.0003183781   0.001300988   0.000766781       18456482    1081569
  11 10  0     -682.9813455957    -0.0000058355   0.000313039   0.000406148       17291134    1137396
  12 11  0     -682.9813469246    -0.0000013289   0.000075962   0.000061859       16018684    1197102
 DFT CODE IS SWITCHING BACK TO THE FINE GRID
          * * *   INITIATING DIIS PROCEDURE   * * *
  13 12  0     -682.9887320738    -0.0073851492   0.003307589   0.001301524       20348193     904321
  14 13  0     -682.9887800191    -0.0000479454   0.001438243   0.000596481       18240650    1097882
  15 14  0     -682.9887795739     0.0000004452   0.000491352   0.000692465       17272037    1140150
  16 15  0     -682.9887843270    -0.0000047530   0.000130956   0.000090171       16610565    1169953
  17 16  0     -682.9887844343    -0.0000001073   0.000041134   0.000029957       15063028    1232546
  18 17  0     -682.9887844439    -0.0000000096   0.000010651   0.000012144       13818687    1281864
  19 18  0     -682.9887844453    -0.0000000014   0.000003378   0.000001351       12610781    1323203

          -----------------
          DENSITY CONVERGED
          -----------------
     TIME TO FORM FOCK OPERATORS=      23.1 SECONDS (       1.2 SEC/ITER)
     FOCK TIME ON FIRST ITERATION=       0.2, LAST ITERATION=       2.9
     TIME TO SOLVE SCF EQUATIONS=       0.3 SECONDS (       0.0 SEC/ITER)

 FINAL R-B3LYP ENERGY IS     -682.9887844453 AFTER  19 ITERATIONS
 DFT EXCHANGE + CORRELATION ENERGY =       -71.1304793686
 TOTAL ELECTRON NUMBER             =        96.0000167157

          ------------
          EIGENVECTORS
          ------------

                      1          2          3          4          5
                  -19.0443   -19.0380   -19.0352   -19.0212   -19.0209
                     A          A          A          A          A   
    1  O  1  S    0.982433  -0.002756  -0.003572  -0.000491  -0.000037
    2  O  1  S    0.104664  -0.000183  -0.000211  -0.000064   0.000004
    3  O  1  X    0.000772   0.000086  -0.000113  -0.000074  -0.000011
    4  O  1  Y   -0.003104  -0.000012  -0.000005  -0.000111   0.000022
    5  O  1  Z    0.001311   0.000049  -0.000055  -0.000039   0.000006
    6  O  1  S   -0.048548  -0.000539  -0.000510   0.000208  -0.000024
    7  O  1  X    0.000373  -0.000208   0.000705  -0.000133   0.000094
    8  O  1  Y    0.008718   0.000317   0.000280   0.000392  -0.000096
    9  O  1  Z   -0.003359  -0.000224   0.000207   0.000156  -0.000026
   10  C  2  S   -0.000950  -0.000005  -0.000140   0.000223  -0.000024
   11  C  2  S   -0.003930   0.000029  -0.000502   0.000930  -0.000085
   12  C  2  X    0.000985  -0.000213  -0.000261   0.000353  -0.000016
   13  C  2  Y    0.001240  -0.000052  -0.000113   0.000086  -0.000050
   14  C  2  Z   -0.000438  -0.000035  -0.000279   0.000641  -0.000092
   15  C  2  S    0.022037   0.001528   0.006186  -0.005316   0.000541
   16  C  2  X    0.003616   0.000998  -0.003207   0.004924  -0.000853
   17  C  2  Y    0.006793   0.000214  -0.000135  -0.001298   0.000380
   18  C  2  Z   -0.006668  -0.001892  -0.002866  -0.001953   0.000450
   19  C  3  S    0.000381  -0.000124   0.000531  -0.001175   0.000166
   20  C  3  S    0.001730  -0.000960   0.002985  -0.005161   0.000808
   21  C  3  X   -0.000243   0.000961   0.000342  -0.000738  -0.000034
   22  C  3  Y   -0.000217   0.000201   0.000450   0.000729  -0.000140
   23  C  3  Z   -0.000240  -0.000179   0.000562  -0.000218   0.000070
   24  C  3  S   -0.011276   0.001286  -0.014114   0.026243  -0.003324
   25  C  3  X   -0.004969  -0.006207  -0.003349  -0.013864   0.002427
   26  C  3  Y   -0.001600  -0.001063   0.004248   0.004401  -0.000686
   27  C  3  Z   -0.000627   0.000507  -0.006941   0.003927  -0.000912
   28  O  4  S    0.001326  -0.001606   0.000397   0.010144  -0.001032
   29  O  4  S    0.000266  -0.000397   0.000031   0.001894  -0.000186
   30  O  4  X    0.000258  -0.000146  -0.000119  -0.000533   0.000090
   31  O  4  Y    0.000205   0.000028   0.000096   0.000306  -0.000005
   32  O  4  Z   -0.000244  -0.000124   0.000003   0.000105  -0.000005
   33  O  4  S    0.000267   0.001216  -0.000106  -0.002860   0.000137
   34  O  4  X   -0.001479   0.000739   0.000645   0.003266  -0.000505
   35  O  4  Y   -0.001356  -0.000106  -0.000696  -0.001257   0.000066
   36  O  4  Z    0.001660   0.000825   0.000377  -0.001435   0.000075
   37  C  5  S   -0.000169   0.000281  -0.001069   0.000457  -0.000078
   38  C  5  S   -0.001011   0.001193  -0.004490   0.002272  -0.000354
   39  C  5  X   -0.000131   0.000327   0.000695  -0.000861   0.000016
   40  C  5  Y   -0.000097  -0.000083  -0.001066  -0.000713   0.000256
   41  C  5  Z   -0.000409  -0.000502   0.000015  -0.000213  -0.000061
   42  C  5  S    0.003179  -0.009653   0.026808  -0.012459   0.003430
   43  C  5  X    0.001983   0.007041   0.008658   0.006885  -0.001345
   44  C  5  Y    0.000737   0.000975  -0.004722  -0.005599  -0.000548
   45  C  5  Z    0.002561   0.003206   0.013531   0.000419   0.001190
   46  H  6  S    0.000065   0.001027  -0.000614   0.001173  -0.000054
   47  H  6  S    0.000714   0.002273   0.000918   0.000454  -0.000045
   48  O  7  S    0.003695   0.022351   0.982285  -0.002356  -0.002070
   49  O  7  S    0.000633   0.002604   0.105486  -0.000089  -0.000070
   50  O  7  X   -0.000170  -0.000124  -0.003151  -0.000025   0.000013
   51  O  7  Y   -0.000127   0.000142  -0.000096  -0.000087   0.000024
   52  O  7  Z   -0.000108  -0.000039  -0.001877  -0.000173  -0.000009
   53  O  7  S   -0.001692  -0.001974  -0.052508  -0.001052  -0.000584
   54  O  7  X    0.000928   0.000046   0.009431   0.000097   0.000222
   55  O  7  Y   -0.000091  -0.000894  -0.003269   0.000212  -0.000216
   56  O  7  Z    0.000575   0.000142   0.005893   0.000910   0.000116
   57  C  8  S    0.000040  -0.000986   0.000310  -0.000064  -0.000078
   58  C  8  S    0.000225  -0.004174   0.001355  -0.000882  -0.000514
   59  C  8  X    0.000007  -0.000616  -0.000361   0.000708   0.000382
   60  C  8  Y    0.000026  -0.000962  -0.000013  -0.000816  -0.000324
   61  C  8  Z    0.000188   0.000499   0.000490   0.000448  -0.000205
   62  C  8  S   -0.000932   0.024524  -0.008910   0.002484   0.000344
   63  C  8  X   -0.001175  -0.006077  -0.005835   0.000949  -0.003657
   64  C  8  Y   -0.000456  -0.011563   0.000912  -0.004646   0.002450
   65  C  8  Z   -0.001713  -0.012413  -0.003367  -0.004748   0.001248
   66  H  9  S    0.000217  -0.000373   0.001033   0.000665  -0.000592
   67  H  9  S    0.000995   0.001653   0.002317   0.000830   0.000348
   68  O 10  S    0.002702   0.982273  -0.022353  -0.006252  -0.001147
   69  O 10  S    0.000379   0.105474  -0.002228  -0.000103  -0.000042
   70  O 10  X   -0.000043  -0.000569   0.000184   0.000152  -0.000115
   71  O 10  Y    0.000046   0.002998   0.000004  -0.000124   0.000055
   72  O 10  Z   -0.000007   0.002216  -0.000127   0.000031   0.000065
   73  O 10  S   -0.000630  -0.052791   0.000848  -0.002608  -0.000067
   74  O 10  X    0.000095  -0.001588  -0.000082  -0.001207   0.000674
   75  O 10  Y   -0.000324  -0.010125  -0.000176  -0.000443  -0.000340
   76  O 10  Z    0.000041  -0.005399   0.000563  -0.000249  -0.000289
   77  C 11  S    0.000029   0.000170  -0.000073  -0.000870   0.000336
   78  C 11  S    0.000139   0.000679  -0.000487  -0.003559   0.001413
   79  C 11  X   -0.000052  -0.000175  -0.000585   0.001563   0.000103
   80  C 11  Y   -0.000088   0.000258   0.000187   0.001057  -0.000493
   81  C 11  Z   -0.000129  -0.000792   0.000144  -0.000525  -0.000153
   82  C 11  S   -0.000685  -0.003704  -0.000077   0.018712  -0.010729
   83  C 11  X   -0.000211   0.001548   0.004660   0.008648   0.004103
   84  C 11  Y    0.000493   0.006209  -0.000571   0.005600  -0.001712
   85  C 11  Z    0.001035   0.006662  -0.000512   0.007603  -0.001301
   86  H 12  S    0.000196   0.001332  -0.000123  -0.000515   0.000568
   87  H 12  S    0.000480   0.002900   0.000222   0.001058   0.001057
   88  O 13  S    0.000472   0.006369   0.002057   0.979316  -0.081455
   89  O 13  S    0.000004   0.001323   0.000320   0.106999  -0.008925
   90  O 13  X    0.000140  -0.000118  -0.000053   0.000050  -0.000294
   91  O 13  Y    0.000074   0.000211   0.000170  -0.003664   0.000384
   92  O 13  Z    0.000114  -0.000035  -0.000306  -0.001352   0.000187
   93  O 13  S    0.000370  -0.004270  -0.000804  -0.059112   0.005517
   94  O 13  X    0.000173   0.000453   0.001063  -0.001179   0.000914
   95  O 13  Y   -0.000267   0.000110  -0.000589   0.011873  -0.001353
   96  O 13  Z   -0.000430   0.000168   0.001455   0.004088  -0.000580
   97  C 14  S    0.000005   0.000035  -0.000070   0.000131  -0.000919
   98  C 14  S    0.000025   0.000300  -0.000401   0.000538  -0.003747
   99  C 14  X   -0.000015   0.000408   0.000119  -0.000519  -0.000870
  100  C 14  Y   -0.000003   0.000004  -0.000073   0.000463   0.001267
  101  C 14  Z    0.000011   0.000118   0.000049   0.000484  -0.000577
  102  C 14  S   -0.000380  -0.001267   0.003088  -0.004757   0.022333
  103  C 14  X   -0.000287  -0.004214   0.000239  -0.005093  -0.001219
  104  C 14  Y    0.000058  -0.001421  -0.000275  -0.001049   0.007094
  105  C 14  Z   -0.000043  -0.001112  -0.001635  -0.002342  -0.008016
  106  O 15  S    0.000093   0.001742   0.002263   0.081394   0.979053
  107  O 15  S    0.000020   0.000308   0.000405   0.008668   0.104172
  108  O 15  X   -0.000005  -0.000054  -0.000037  -0.000006  -0.000180
  109  O 15  Y   -0.000002  -0.000092  -0.000016  -0.000280  -0.001217
  110  O 15  Z    0.000003  -0.000014   0.000040   0.000184   0.003563
  111  O 15  S   -0.000045  -0.000538  -0.000875  -0.003747  -0.048455
  112  O 15  X    0.000019   0.000320   0.000000   0.000276  -0.001281
  113  O 15  Y    0.000020   0.000547   0.000305   0.000949   0.005032
  114  O 15  Z   -0.000011   0.000052  -0.000229  -0.000162  -0.008647
  115  H 16  S    0.003224   0.000198  -0.000103   0.000071  -0.000041
  116  H 16  S    0.005329  -0.000208  -0.000103  -0.000555   0.000091
  117  H 17  S   -0.001189  -0.000093  -0.001038  -0.000094   0.000073
  118  H 17  S   -0.002416  -0.000316   0.002194  -0.000584   0.000170
  119  H 18  S   -0.001337   0.000143  -0.000141   0.000638  -0.000136
  120  H 18  S   -0.000502   0.000792  -0.000364   0.002930  -0.000441
  121  H 19  S   -0.000621  -0.000187   0.000049   0.000359   0.000009
  122  H 19  S    0.004586   0.000275  -0.000286  -0.000483   0.000049
  123  H 20  S    0.000269  -0.000054   0.003130   0.000302  -0.000036
  124  H 20  S    0.000014  -0.000174   0.004907  -0.000786  -0.000002
  125  H 21  S    0.000087   0.003030  -0.000151  -0.000272   0.000180
  126  H 21  S   -0.000092   0.005579  -0.000560   0.000258   0.000019
  127  H 22  S    0.000023   0.000313  -0.000121  -0.000400  -0.001256
  128  H 22  S   -0.000089  -0.003405  -0.000356  -0.000461  -0.000998
  129  H 23  S    0.000024   0.000322   0.000041   0.000640  -0.001211
  130  H 23  S    0.000060   0.001529   0.000173   0.002163  -0.001197
  131  H 24  S    0.000009   0.000027   0.000096   0.000103   0.003187
  132  H 24  S   -0.000017  -0.000187   0.000008   0.000311   0.005511

                      6          7          8          9         10
                  -19.0065   -10.2131   -10.1736   -10.1715   -10.1700
                     A          A          A          A          A   
    1  O  1  S   -0.001331   0.000089   0.000010   0.000005  -0.000040
    2  O  1  S   -0.000042   0.000484   0.000126   0.000046  -0.000436
    3  O  1  X   -0.000346   0.000275  -0.000008  -0.000040   0.000320
    4  O  1  Y    0.000237   0.000123  -0.000066  -0.000021   0.000112
    5  O  1  Z   -0.000480  -0.000185   0.000004  -0.000004   0.000016
    6  O  1  S    0.001090  -0.002912  -0.000353  -0.000144   0.001154
    7  O  1  X    0.000930   0.000473  -0.000060   0.000177  -0.001278
    8  O  1  Y   -0.001396   0.000999   0.000239   0.000122  -0.000643
    9  O  1  Z    0.002138   0.001017  -0.000024   0.000006  -0.000124
   10  C  2  S    0.000217  -0.010144   0.012997   0.000008  -0.033819
   11  C  2  S    0.000611  -0.005894   0.002941  -0.000083  -0.005062
   12  C  2  X    0.000639  -0.000408  -0.000286  -0.000093   0.001064
   13  C  2  Y    0.000231  -0.000100  -0.000190  -0.000050   0.000717
   14  C  2  Z    0.000762  -0.000014   0.000186  -0.000035   0.000354
   15  C  2  S   -0.004854   0.033738  -0.008188   0.001119   0.003268
   16  C  2  X   -0.002292  -0.012441   0.003859  -0.000178  -0.002239
   17  C  2  Y   -0.001447  -0.005776   0.001650  -0.000154  -0.000441
   18  C  2  Z    0.004436  -0.013393   0.000692  -0.000220   0.000746
   19  C  3  S   -0.001193   0.987357   0.004706  -0.000231   0.009522
   20  C  3  S   -0.005242   0.117607  -0.000407  -0.000141  -0.003443
   21  C  3  X    0.000289  -0.000429   0.000335   0.000060  -0.000546
   22  C  3  Y    0.000481  -0.001128   0.000897   0.000314  -0.000191
   23  C  3  Z   -0.001070   0.001049  -0.001022   0.000248  -0.000094
   24  C  3  S    0.030219  -0.110859  -0.004214  -0.001935   0.033322
   25  C  3  X    0.006807  -0.002743   0.004538  -0.000121  -0.008085
   26  C  3  Y    0.002737   0.013357   0.002553   0.001671  -0.017874
   27  C  3  Z   -0.016772  -0.011992   0.007425  -0.001504  -0.000713
   28  O  4  S    0.982624  -0.000148  -0.000097   0.000018   0.000081
   29  O  4  S    0.106681  -0.001086  -0.000824   0.000183   0.000384
   30  O  4  X    0.000031   0.000195   0.000097  -0.000103   0.000137
   31  O  4  Y    0.001069   0.000268   0.000119  -0.000057   0.000187
   32  O  4  Z    0.003916   0.000199  -0.000073   0.000056  -0.000257
   33  O  4  S   -0.056965   0.010452   0.003627  -0.000657  -0.002765
   34  O  4  X    0.002317  -0.002205  -0.001310   0.000501   0.000535
   35  O  4  Y   -0.000983  -0.002880  -0.001013   0.000156   0.000806
   36  O  4  Z   -0.013555   0.003448   0.001040  -0.000321  -0.000345
   37  C  5  S    0.000358  -0.010819  -0.127079  -0.083708   0.974568
   38  C  5  S    0.001629  -0.006088  -0.019440  -0.011311   0.115947
   39  C  5  X    0.000053  -0.000252  -0.000680   0.000176  -0.000958
   40  C  5  Y   -0.000475   0.000541  -0.000143  -0.000269   0.001263
   41  C  5  Z   -0.000325  -0.000377  -0.000200   0.000117   0.000347
   42  C  5  S   -0.010010   0.036931   0.049672   0.016079  -0.108123
   43  C  5  X   -0.001991   0.010219  -0.018613  -0.005225   0.009031
   44  C  5  Y   -0.004207   0.016702   0.004628   0.002530  -0.017138
   45  C  5  Z    0.005550   0.005247   0.007937   0.001035  -0.002894
   46  H  6  S    0.000886  -0.001577  -0.002337  -0.000670   0.000931
   47  H  6  S    0.003191   0.001846  -0.000020  -0.001341   0.016457
   48  O  7  S   -0.000361   0.000199   0.000090   0.000003  -0.000139
   49  O  7  S   -0.000051   0.001480   0.000442  -0.000062  -0.000714
   50  O  7  X   -0.000087  -0.000015   0.000067   0.000006  -0.000270
   51  O  7  Y    0.000033  -0.000053   0.000006  -0.000050  -0.000149
   52  O  7  Z    0.000074   0.000145   0.000192   0.000109  -0.000512
   53  O  7  S    0.000018  -0.006970  -0.003271  -0.000327   0.008725
   54  O  7  X    0.000487   0.001367   0.002063   0.000425  -0.002042
   55  O  7  Y    0.000247  -0.002427  -0.001367  -0.000102   0.004076
   56  O  7  Z   -0.000577   0.000820  -0.000347  -0.000319  -0.000123
   57  C  8  S   -0.000225  -0.006251   0.976420   0.041839   0.128505
   58  C  8  S   -0.001367  -0.002144   0.117056   0.004661   0.011158
   59  C  8  X   -0.000173  -0.000916   0.000791   0.000990   0.000396
   60  C  8  Y   -0.000323  -0.000818   0.001063  -0.000860   0.000006
   61  C  8  Z   -0.000115   0.000131  -0.000490  -0.000417  -0.000249
   62  C  8  S    0.005414  -0.002231  -0.118109  -0.010044   0.017272
   63  C  8  X    0.000835   0.000108  -0.013836  -0.005996   0.017146
   64  C  8  Y    0.005740   0.000922  -0.016051  -0.000631  -0.001271
   65  C  8  Z   -0.001142   0.001928   0.009907   0.002205  -0.004460
   66  H  9  S   -0.000549  -0.000306   0.001559  -0.000100  -0.002136
   67  H  9  S    0.000218  -0.001133   0.015975   0.000566   0.003009
   68  O 10  S    0.001620  -0.000066  -0.000161   0.000003   0.000037
   69  O 10  S   -0.000058  -0.000684  -0.000854   0.000140   0.000125
   70  O 10  X   -0.000044  -0.000444   0.000092   0.000031  -0.000301
   71  O 10  Y    0.000017  -0.000131   0.000181   0.000345  -0.000184
   72  O 10  Z   -0.000136   0.000090   0.000587   0.000082   0.000065
   73  O 10  S    0.001091   0.002050   0.009333   0.000425  -0.000563
   74  O 10  X    0.000344   0.002066   0.002757   0.000182  -0.000045
   75  O 10  Y    0.000047   0.000907   0.003769  -0.001011   0.000497
   76  O 10  Z    0.000710  -0.000325  -0.001296  -0.000373  -0.000112
   77  C 11  S    0.000223  -0.005143  -0.048552  -0.060602  -0.036106
   78  C 11  S    0.001360  -0.002896  -0.009883  -0.010206  -0.005925
   79  C 11  X    0.000258  -0.001425   0.000215   0.000540  -0.000634
   80  C 11  Y    0.000070   0.000222  -0.000484  -0.000355   0.001262
   81  C 11  Z   -0.000042   0.000085  -0.000266  -0.000601   0.000563
   82  C 11  S   -0.006324   0.004809   0.037996   0.033451   0.006839
   83  C 11  X   -0.003168   0.008259   0.007790  -0.013814   0.003705
   84  C 11  Y    0.001839  -0.000867  -0.017441   0.006726  -0.005075
   85  C 11  Z   -0.002165  -0.001192   0.007350   0.011252  -0.004155
   86  H 12  S    0.000272  -0.000651  -0.001975  -0.001454  -0.000945
   87  H 12  S   -0.000896  -0.000160   0.001471   0.001544  -0.002817
   88  O 13  S   -0.009982  -0.000212  -0.000009   0.000055   0.000121
   89  O 13  S   -0.000347  -0.001132  -0.000607   0.000144   0.000700
   90  O 13  X    0.000421   0.000137   0.000056   0.000510   0.000062
   91  O 13  Y    0.000252  -0.000437   0.000509  -0.000033  -0.000042
   92  O 13  Z   -0.000647  -0.000312   0.000045  -0.000103  -0.000019
   93  O 13  S   -0.000954   0.009985  -0.000857  -0.002177  -0.004238
   94  O 13  X   -0.003357   0.006119   0.001210   0.000269  -0.001150
   95  O 13  Y   -0.000973  -0.001750  -0.000237   0.000367   0.002596
   96  O 13  Z    0.003573   0.000497  -0.000636   0.000028   0.000843
   97  C 14  S    0.000009  -0.000747  -0.055191   0.980267   0.074992
   98  C 14  S    0.000214  -0.000493  -0.006559   0.112009   0.007156
   99  C 14  X    0.000275   0.000261  -0.000780   0.000332  -0.000028
  100  C 14  Y   -0.000049   0.000083   0.000425  -0.000637   0.000169
  101  C 14  Z   -0.000079   0.000184   0.000065   0.000179  -0.000008
  102  C 14  S    0.000069   0.003779   0.001835  -0.093712  -0.000381
  103  C 14  X   -0.000045  -0.000321  -0.000311  -0.010886   0.002537
  104  C 14  Y   -0.000214  -0.001369   0.002099   0.007901  -0.001099
  105  C 14  Z    0.000630  -0.002694   0.000968   0.003328  -0.000795
  106  O 15  S    0.000186   0.000021  -0.000023  -0.000116  -0.000008
  107  O 15  S    0.000001   0.000170  -0.000306  -0.000528  -0.000069
  108  O 15  X    0.000022  -0.000067  -0.000305   0.000034  -0.000051
  109  O 15  Y   -0.000015  -0.000068   0.000189  -0.000294   0.000015
  110  O 15  Z   -0.000026  -0.000009   0.000153   0.000471   0.000046
  111  O 15  S    0.000131  -0.000817   0.000258   0.008216   0.000598
  112  O 15  X   -0.000069   0.000155   0.001128   0.002169   0.000208
  113  O 15  Y    0.000017   0.000544  -0.000760  -0.002489  -0.000243
  114  O 15  Z    0.000118  -0.000046  -0.000793   0.000182  -0.000026
  115  H 16  S   -0.000576   0.000201   0.000165  -0.000031   0.000218
  116  H 16  S    0.000162   0.000714  -0.000501  -0.000038   0.000425
  117  H 17  S    0.000673  -0.002305   0.000339  -0.000064  -0.000342
  118  H 17  S   -0.000187  -0.000572   0.000775  -0.000025   0.000470
  119  H 18  S   -0.000351  -0.002125   0.000733   0.000081  -0.000180
  120  H 18  S   -0.000248   0.001711   0.001025  -0.000284  -0.001892
  121  H 19  S    0.003461  -0.000273  -0.000151  -0.000029   0.000217
  122  H 19  S    0.005862   0.003307   0.000538  -0.000331   0.001052
  123  H 20  S    0.000032   0.000324  -0.000199  -0.000006   0.000084
  124  H 20  S   -0.000227   0.000691  -0.000182   0.000007   0.002010
  125  H 21  S   -0.000138   0.000202  -0.000212   0.000625   0.000210
  126  H 21  S    0.000352   0.000917   0.002104  -0.002110   0.001578
  127  H 22  S    0.000015  -0.000341   0.000156   0.000213  -0.000646
  128  H 22  S   -0.000275  -0.000621  -0.000057   0.016827   0.001983
  129  H 23  S    0.000075   0.000174   0.000267   0.000340  -0.000287
  130  H 23  S   -0.000330   0.000876  -0.002547   0.016522   0.000436
  131  H 24  S   -0.000061   0.000039   0.000395  -0.000194  -0.000033
  132  H 24  S   -0.000003   0.000032   0.000050   0.002137   0.000593

                     11         12         13         14         15
                  -10.1643   -10.1632    -1.0487    -1.0225    -1.0076
                     A          A          A          A          A   
    1  O  1  S    0.000017  -0.000148  -0.080961   0.108103  -0.126717
    2  O  1  S    0.000082  -0.000631   0.075352  -0.101930   0.118530
    3  O  1  X    0.000107  -0.000089   0.007381  -0.017528   0.026183
    4  O  1  Y   -0.000038  -0.000466  -0.032324   0.039736  -0.044016
    5  O  1  Z    0.000042   0.000155   0.011277  -0.017903   0.023644
    6  O  1  S   -0.000841   0.008726   0.243821  -0.326579   0.393195
    7  O  1  X   -0.000192  -0.002726   0.005537  -0.012923   0.018598
    8  O  1  Y    0.000542  -0.002365  -0.035474   0.042841  -0.052339
    9  O  1  Z   -0.000263   0.000808   0.007107  -0.015291   0.025680
   10  C  2  S   -0.033764   0.985173  -0.043653   0.036862  -0.035197
   11  C  2  S   -0.004250   0.112116   0.046548  -0.038793   0.038626
   12  C  2  X   -0.000192  -0.000254   0.000636  -0.018175   0.032325
   13  C  2  Y    0.000017  -0.000234   0.016593  -0.028635   0.031282
   14  C  2  Z    0.000131  -0.000254  -0.026248   0.018274  -0.011077
   15  C  2  S    0.007094  -0.090199   0.054317  -0.071213   0.058502
   16  C  2  X    0.000045   0.007740   0.003218  -0.009683   0.002659
   17  C  2  Y   -0.000573   0.003776   0.007381  -0.000792  -0.011033
   18  C  2  Z   -0.002974   0.005673   0.005337   0.008697   0.003036
   19  C  3  S    0.004609   0.009472  -0.091555   0.018424   0.027944
   20  C  3  S   -0.002759  -0.002386   0.098314  -0.018898  -0.035413
   21  C  3  X    0.001372  -0.000185  -0.010992  -0.026162   0.039692
   22  C  3  Y    0.000318  -0.000028   0.024298  -0.020995  -0.020677
   23  C  3  Z    0.000458  -0.000115  -0.026402   0.018301   0.006159
   24  C  3  S    0.011337   0.024067   0.144849  -0.027862  -0.036601
   25  C  3  X   -0.011075   0.011774   0.022401   0.014695   0.008233
   26  C  3  Y   -0.003380   0.005000  -0.005384  -0.007578   0.008191
   27  C  3  Z   -0.004544   0.011017   0.027436  -0.004575  -0.003720
   28  O  4  S    0.000083   0.000026  -0.111064   0.055309   0.020127
   29  O  4  S    0.000732  -0.000147   0.101988  -0.050585  -0.017410
   30  O  4  X   -0.000490   0.000001   0.001401  -0.006008   0.006180
   31  O  4  Y   -0.000100   0.000236   0.013847  -0.011534  -0.001125
   32  O  4  Z    0.000027  -0.000454   0.060026  -0.027284  -0.010178
   33  O  4  S   -0.002564  -0.001468   0.335467  -0.172153  -0.065597
   34  O  4  X    0.002885  -0.000496  -0.002917  -0.007491   0.008692
   35  O  4  Y    0.000801  -0.000952   0.018736  -0.007960  -0.003224
   36  O  4  Z   -0.000669  -0.000187   0.063612  -0.033497  -0.012697
   37  C  5  S    0.023215   0.035553  -0.048270  -0.042764  -0.022866
   38  C  5  S    0.002562   0.002312   0.047004   0.041987   0.025120
   39  C  5  X    0.000535  -0.000771   0.009135   0.002662   0.022018
   40  C  5  Y   -0.000318  -0.000800   0.009799  -0.026443  -0.035998
   41  C  5  Z   -0.000049  -0.001006   0.015138   0.022749   0.019102
   42  C  5  S   -0.010119   0.001899   0.088449   0.076675   0.042582
   43  C  5  X    0.000840  -0.000747  -0.028732  -0.019265  -0.003795
   44  C  5  Y   -0.005600   0.002785   0.015210  -0.004735  -0.008384
   45  C  5  Z   -0.000809   0.003431  -0.029183  -0.005223  -0.004483
   46  H  6  S    0.000333   0.000077   0.011164   0.011259   0.005824
   47  H  6  S   -0.001004   0.002798  -0.014758  -0.006378  -0.004119
   48  O  7  S   -0.000029   0.000037  -0.060334  -0.091098  -0.093671
   49  O  7  S   -0.000285   0.000206   0.054701   0.085660   0.088132
   50  O  7  X    0.000143   0.000166  -0.024660  -0.038361  -0.036038
   51  O  7  Y   -0.000200  -0.000251  -0.001100  -0.010839  -0.012904
   52  O  7  Z   -0.000063   0.000030  -0.014171  -0.019891  -0.019834
   53  O  7  S    0.000551  -0.000998   0.191793   0.277418   0.287784
   54  O  7  X   -0.000609  -0.000467  -0.029870  -0.039699  -0.039632
   55  O  7  Y    0.001157   0.000109   0.001561  -0.004205  -0.007265
   56  O  7  Z    0.000259  -0.000301  -0.018256  -0.023205  -0.022162
   57  C  8  S    0.054288  -0.006248  -0.037817  -0.065002  -0.006982
   58  C  8  S    0.001388   0.000287   0.041354   0.065606   0.004762
   59  C  8  X    0.000102   0.000218   0.002327  -0.022446  -0.003398
   60  C  8  Y    0.000365   0.000097   0.003326  -0.042852  -0.032738
   61  C  8  Z    0.000057   0.000092  -0.012447  -0.020432  -0.002710
   62  C  8  S    0.032339  -0.003570   0.050699   0.112646   0.016142
   63  C  8  X   -0.005669  -0.003073   0.011698   0.009576  -0.005425
   64  C  8  Y    0.017385  -0.001682   0.005240   0.016447  -0.004511
   65  C  8  Z   -0.006044   0.000169   0.021331   0.015096   0.006387
   66  H  9  S   -0.002252   0.000477   0.010864   0.017666   0.000417
   67  H  9  S    0.001790  -0.000052  -0.011008  -0.011238  -0.001982
   68  O 10  S    0.000049   0.000012  -0.046094  -0.150307  -0.044874
   69  O 10  S    0.000146   0.000081   0.042252   0.140304   0.042777
   70  O 10  X   -0.000050  -0.000086  -0.003370  -0.019624  -0.005811
   71  O 10  Y   -0.000055   0.000014   0.017522   0.050622   0.013266
   72  O 10  Z   -0.000059   0.000044   0.012934   0.043263   0.013493
   73  O 10  S   -0.001048  -0.000609   0.143553   0.463481   0.136083
   74  O 10  X    0.000156   0.000324  -0.003101  -0.014008  -0.004655
   75  O 10  Y   -0.001700  -0.000218   0.021265   0.058941   0.014737
   76  O 10  Z    0.000400  -0.000277   0.014139   0.047375   0.012355
   77  C 11  S    0.982991   0.032822  -0.045325  -0.018748   0.045785
   78  C 11  S    0.116746   0.003110   0.047693   0.018494  -0.046108
   79  C 11  X    0.000796  -0.000184   0.036509   0.004709  -0.025258
   80  C 11  Y   -0.000455  -0.000010   0.010353  -0.011719  -0.025934
   81  C 11  Z    0.000839   0.000390   0.010221   0.004906  -0.011587
   82  C 11  S   -0.108808  -0.000149   0.080020   0.029111  -0.086250
   83  C 11  X   -0.000719   0.004014  -0.014110  -0.015927  -0.001275
   84  C 11  Y    0.008202  -0.000412  -0.009880  -0.003931  -0.001728
   85  C 11  Z   -0.010855  -0.001562  -0.004093  -0.010109   0.001975
   86  H 12  S    0.000380  -0.000459   0.011726   0.005020  -0.012499
   87  H 12  S    0.015411   0.000147  -0.006971  -0.007003   0.005439
   88  O 13  S   -0.000154   0.000069  -0.116199  -0.006914   0.107057
   89  O 13  S   -0.000653   0.000272   0.105769   0.004968  -0.098636
   90  O 13  X    0.000035  -0.000499   0.008723  -0.008111   0.006064
   91  O 13  Y   -0.000647  -0.000027  -0.052933  -0.006525   0.045258
   92  O 13  Z   -0.000568  -0.000240  -0.017974   0.000806   0.015531
   93  O 13  S    0.009302  -0.002410   0.354344   0.032604  -0.327925
   94  O 13  X   -0.007030   0.000442   0.005151  -0.004455  -0.000591
   95  O 13  Y   -0.000827   0.000673  -0.061189  -0.007159   0.054977
   96  O 13  Z    0.002054   0.000560  -0.028224  -0.000462   0.018208
   97  C 14  S    0.059437   0.005251  -0.013966  -0.009135   0.043435
   98  C 14  S    0.003068   0.000171   0.014564   0.010948  -0.044436
   99  C 14  X    0.000024   0.000053   0.006313   0.001064   0.004708
  100  C 14  Y   -0.000270   0.000026   0.000893   0.000474  -0.025189
  101  C 14  Z    0.000103  -0.000007  -0.006340  -0.004101   0.021191
  102  C 14  S    0.022769   0.002731   0.016004   0.007688  -0.079413
  103  C 14  X    0.013600   0.000685   0.007994   0.003896  -0.004255
  104  C 14  Y   -0.006016  -0.000880   0.010003   0.002575  -0.002092
  105  C 14  Z   -0.006726  -0.000897   0.006626   0.005299  -0.004742
  106  O 15  S    0.000047   0.000006  -0.015352  -0.013574   0.095524
  107  O 15  S    0.000174   0.000041   0.014629   0.012595  -0.090393
  108  O 15  X   -0.000196  -0.000023   0.001175  -0.000082   0.004035
  109  O 15  Y    0.000225   0.000001  -0.003001  -0.002060   0.010982
  110  O 15  Z   -0.000046   0.000002   0.006969   0.006029  -0.043423
  111  O 15  S   -0.001269  -0.000203   0.044805   0.041977  -0.288317
  112  O 15  X   -0.000419   0.000040  -0.001326  -0.001058   0.004257
  113  O 15  Y   -0.000009   0.000095  -0.003563  -0.003023   0.014072
  114  O 15  Z    0.000193  -0.000029   0.006427   0.006962  -0.045240
  115  H 16  S    0.000230  -0.000416   0.037234  -0.054218   0.065812
  116  H 16  S   -0.000223   0.002478   0.006625  -0.010883   0.015781
  117  H 17  S   -0.000291  -0.000263   0.014161  -0.008780   0.011760
  118  H 17  S   -0.000801   0.016931   0.002632   0.009418   0.002496
  119  H 18  S    0.000148  -0.000287   0.013230  -0.010735   0.008974
  120  H 18  S    0.000132   0.017088  -0.006392   0.001310  -0.003667
  121  H 19  S   -0.000146  -0.000325   0.051388  -0.032520   0.001394
  122  H 19  S   -0.000443   0.001929   0.004467  -0.006761   0.002183
  123  H 20  S   -0.000264   0.000100   0.026416   0.045632   0.047561
  124  H 20  S    0.000977   0.000350   0.007168   0.012698   0.011173
  125  H 21  S   -0.000080   0.000175   0.021205   0.073665   0.022578
  126  H 21  S   -0.000070  -0.000232   0.002932   0.016477   0.004580
  127  H 22  S   -0.001539  -0.000196   0.005189   0.003589  -0.012664
  128  H 22  S    0.001784  -0.000242   0.004803   0.007024   0.005075
  129  H 23  S   -0.002056  -0.000013   0.003922   0.002916  -0.013012
  130  H 23  S    0.001791   0.000001  -0.003116  -0.002767   0.003867
  131  H 24  S    0.000004   0.000009   0.006814   0.006197  -0.047086
  132  H 24  S    0.001409   0.000129  -0.000007   0.000977  -0.009567

                     16         17         18         19         20
                   -1.0064    -0.9977    -0.9722    -0.7725    -0.7572
                     A          A          A          A          A   
    1  O  1  S    0.071567  -0.074891   0.065372   0.007940   0.028286
    2  O  1  S   -0.067818   0.070399  -0.062773  -0.007499  -0.025595
    3  O  1  X   -0.014439   0.017407  -0.018490  -0.013577  -0.041777
    4  O  1  Y    0.024624  -0.025022   0.019597  -0.002593  -0.016652
    5  O  1  Z   -0.013430   0.015395  -0.018590  -0.000348   0.005271
    6  O  1  S   -0.218493   0.233297  -0.204764  -0.028965  -0.108542
    7  O  1  X   -0.011924   0.013281  -0.019342  -0.010363  -0.029026
    8  O  1  Y    0.027977  -0.030370   0.025887  -0.001196  -0.004407
    9  O  1  Z   -0.013174   0.017920  -0.024021  -0.001402   0.001511
   10  C  2  S    0.017200  -0.017979   0.015708  -0.015679  -0.082328
   11  C  2  S   -0.017548   0.019865  -0.017260   0.015134   0.086405
   12  C  2  X   -0.017057   0.020752  -0.013376  -0.013201  -0.045446
   13  C  2  Y   -0.022036   0.019310  -0.018982   0.004504  -0.031168
   14  C  2  Z    0.005911  -0.002544  -0.005690  -0.003285  -0.018779
   15  C  2  S   -0.041948   0.031348  -0.026769   0.035397   0.210049
   16  C  2  X   -0.000727  -0.001129   0.019035  -0.013432   0.002646
   17  C  2  Y    0.000149  -0.006623  -0.002782   0.008306  -0.013206
   18  C  2  Z    0.000104   0.003553  -0.019698   0.000542   0.003413
   19  C  3  S   -0.014733   0.029010  -0.022009  -0.014097  -0.102651
   20  C  3  S    0.013196  -0.033730   0.022633   0.005803   0.101444
   21  C  3  X   -0.005283   0.010704   0.077888  -0.012845   0.000866
   22  C  3  Y   -0.011164  -0.014210   0.001385   0.075794  -0.061251
   23  C  3  Z   -0.004447   0.019821  -0.084994   0.024676   0.060921
   24  C  3  S    0.020633  -0.046521   0.037752   0.080345   0.268575
   25  C  3  X    0.002339   0.003810  -0.016660  -0.010992  -0.010523
   26  C  3  Y   -0.008712   0.007255  -0.010775   0.003511  -0.035018
   27  C  3  Z    0.015267  -0.004239   0.013141   0.007215   0.029232
   28  O  4  S   -0.009934   0.050538  -0.169280   0.010077   0.054669
   29  O  4  S    0.008621  -0.046386   0.156966  -0.009112  -0.050523
   30  O  4  X   -0.002306   0.000852   0.016603  -0.003764  -0.031691
   31  O  4  Y   -0.002296  -0.006296   0.026368   0.007995  -0.044128
   32  O  4  Z    0.005122  -0.024087   0.072404   0.002855   0.014091
   33  O  4  S    0.034661  -0.158022   0.538336  -0.038550  -0.196807
   34  O  4  X   -0.003656   0.002213   0.016379  -0.002761  -0.018203
   35  O  4  Y    0.000880  -0.007546   0.023481   0.009637  -0.030133
   36  O  4  Z    0.006278  -0.027276   0.087381  -0.000922  -0.003758
   37  C  5  S   -0.048914  -0.007525   0.003095   0.080480  -0.104452
   38  C  5  S    0.051535   0.010642  -0.002703  -0.079489   0.104289
   39  C  5  X    0.045184   0.013323   0.009793   0.065981  -0.014805
   40  C  5  Y   -0.032187  -0.021861  -0.003757  -0.024450   0.068034
   41  C  5  Z    0.029603   0.011334  -0.008876  -0.003635   0.002796
   42  C  5  S    0.086899   0.004300  -0.017888  -0.212696   0.261615
   43  C  5  X   -0.002746   0.006111   0.016911   0.006300  -0.035668
   44  C  5  Y    0.019582   0.000710  -0.008794  -0.035902   0.014417
   45  C  5  Z   -0.003872  -0.001130  -0.014443   0.004598  -0.003834
   46  H  6  S    0.012813   0.001964   0.000880  -0.041798   0.050146
   47  H  6  S   -0.005521  -0.001214   0.002470   0.004720  -0.015569
   48  O  7  S   -0.156484  -0.052132   0.002060  -0.037271   0.050179
   49  O  7  S    0.146100   0.048783  -0.001697   0.035256  -0.048325
   50  O  7  X   -0.058747  -0.019380   0.001647   0.006387  -0.000587
   51  O  7  Y   -0.018658  -0.008249   0.000389  -0.037630   0.074207
   52  O  7  Z   -0.033223  -0.010391  -0.001180   0.004524  -0.010121
   53  O  7  S    0.486117   0.162335  -0.007671   0.134396  -0.178380
   54  O  7  X   -0.067823  -0.022643   0.000022   0.000695   0.009833
   55  O  7  Y   -0.014276  -0.005219   0.000921  -0.022097   0.057413
   56  O  7  Z   -0.040103  -0.012754   0.003167  -0.000195  -0.003849
   57  C  8  S    0.037799   0.005919   0.009346   0.121502  -0.037819
   58  C  8  S   -0.040119  -0.007859  -0.007945  -0.121444   0.035307
   59  C  8  X    0.044702   0.001412  -0.009284  -0.033094   0.070559
   60  C  8  Y    0.040166  -0.000200  -0.027761  -0.069539  -0.016900
   61  C  8  Z    0.015008   0.003844   0.000538   0.017036  -0.014703
   62  C  8  S   -0.071202   0.001295  -0.009139  -0.294897   0.115404
   63  C  8  X    0.000820   0.010706  -0.007887  -0.018254   0.000624
   64  C  8  Y   -0.021529  -0.004366  -0.019880  -0.022735   0.031896
   65  C  8  Z   -0.001217  -0.004780  -0.006025   0.003210  -0.010393
   66  H  9  S   -0.008859  -0.000879  -0.003422  -0.063727   0.016598
   67  H  9  S    0.005651   0.000298   0.001585   0.008145  -0.002677
   68  O 10  S    0.141668   0.014602  -0.030450  -0.059298   0.010429
   69  O 10  S   -0.132190  -0.013619   0.030265   0.055408  -0.009694
   70  O 10  X    0.026264   0.003098  -0.006800  -0.062339   0.029435
   71  O 10  Y   -0.044764  -0.004784   0.007100  -0.030172   0.006460
   72  O 10  Z   -0.040691  -0.004115   0.009312   0.015999  -0.005254
   73  O 10  S   -0.441688  -0.046190   0.088261   0.216679  -0.037556
   74  O 10  X    0.017627   0.000927  -0.008261  -0.043225   0.021555
   75  O 10  Y   -0.054122  -0.004737   0.006955  -0.012586  -0.001452
   76  O 10  Z   -0.045734  -0.004081   0.007411   0.017177  -0.002363
   77  C 11  S    0.006758   0.000446   0.048626   0.108740   0.077334
   78  C 11  S   -0.005057  -0.002908  -0.050902  -0.107498  -0.068926
   79  C 11  X    0.007453  -0.028816  -0.045013   0.037124   0.034975
   80  C 11  Y    0.009042   0.003724  -0.021565   0.065650  -0.051439
   81  C 11  Z   -0.002704   0.002048  -0.012050  -0.027848  -0.024797
   82  C 11  S   -0.000999   0.005077  -0.090745  -0.265402  -0.236030
   83  C 11  X    0.000766  -0.013215  -0.003614  -0.000220  -0.013796
   84  C 11  Y    0.006977   0.014435   0.005348   0.027231   0.019706
   85  C 11  Z    0.016828  -0.002504   0.001440  -0.016037  -0.013636
   86  H 12  S   -0.001114   0.000134  -0.013799  -0.054800  -0.032040
   87  H 12  S    0.005779  -0.000008   0.010274   0.005912   0.003104
   88  O 13  S   -0.011321   0.044427   0.124529  -0.085753   0.033321
   89  O 13  S    0.010372  -0.040271  -0.114839   0.077886  -0.030417
   90  O 13  X    0.002514  -0.007486   0.015077   0.055253   0.083382
   91  O 13  Y   -0.005411   0.020002   0.053047   0.002677  -0.009609
   92  O 13  Z   -0.001742   0.008327   0.010700  -0.011195   0.005131
   93  O 13  S    0.033578  -0.139099  -0.397638   0.310822  -0.118228
   94  O 13  X    0.003941  -0.005680   0.009244   0.032363   0.051305
   95  O 13  Y   -0.006386   0.022833   0.069434  -0.015649  -0.003422
   96  O 13  Z   -0.005762   0.011485   0.009852  -0.011028   0.007897
   97  C 14  S    0.008677  -0.065934  -0.003600   0.073546   0.072864
   98  C 14  S   -0.008434   0.071383   0.005276  -0.076740  -0.071878
   99  C 14  X    0.001727  -0.031230  -0.020789  -0.044225  -0.044510
  100  C 14  Y   -0.002555   0.054800   0.016375   0.045904   0.029926
  101  C 14  Z    0.003938  -0.034312  -0.003790   0.010572   0.010277
  102  C 14  S   -0.021967   0.112956   0.005233  -0.185221  -0.198477
  103  C 14  X   -0.007836  -0.008508  -0.007638   0.002994  -0.020464
  104  C 14  Y    0.001743  -0.008651  -0.008343   0.028860   0.014740
  105  C 14  Z    0.000961   0.010370   0.000848  -0.002419   0.001149
  106  O 15  S    0.017296  -0.189091  -0.045155  -0.033189  -0.033929
  107  O 15  S   -0.016324   0.177882   0.042048   0.031321   0.031857
  108  O 15  X    0.000873  -0.013658  -0.006746  -0.026643  -0.032256
  109  O 15  Y    0.002045  -0.017446  -0.001312   0.030913   0.034146
  110  O 15  Z   -0.007765   0.085853   0.020461   0.012972   0.012444
  111  O 15  S   -0.052478   0.579452   0.142707   0.119049   0.124227
  112  O 15  X    0.001524  -0.008545  -0.002828  -0.019588  -0.023628
  113  O 15  Y    0.002686  -0.026857  -0.005474   0.017010   0.020890
  114  O 15  Z   -0.008720   0.092338   0.023284   0.014356   0.015667
  115  H 16  S   -0.037071   0.039961  -0.036601  -0.010332  -0.032560
  116  H 16  S   -0.009342   0.010086  -0.011142  -0.004929  -0.021345
  117  H 17  S   -0.002255   0.006150  -0.005849   0.004670   0.046851
  118  H 17  S    0.011217   0.002053  -0.004398   0.008772  -0.014326
  119  H 18  S   -0.004057   0.004512  -0.004927   0.009986   0.046527
  120  H 18  S    0.002365  -0.001643   0.005098  -0.000484  -0.002086
  121  H 19  S   -0.001950  -0.017094   0.076576  -0.003283  -0.048582
  122  H 19  S   -0.001185  -0.000633   0.012554  -0.001684  -0.034165
  123  H 20  S    0.077345   0.026790  -0.001006   0.034105  -0.058701
  124  H 20  S    0.015199   0.006231  -0.000439   0.020893  -0.031351
  125  H 21  S   -0.072933  -0.008192   0.016992   0.060399  -0.020060
  126  H 21  S   -0.018551   0.000280   0.003391   0.030407  -0.015923
  127  H 22  S   -0.002642   0.018909   0.000487  -0.042181  -0.037000
  128  H 22  S   -0.006049  -0.009703  -0.001257   0.010273  -0.001949
  129  H 23  S   -0.002223   0.019263  -0.000235  -0.039103  -0.039599
  130  H 23  S    0.002157  -0.005553  -0.000330   0.001358   0.001800
  131  H 24  S   -0.008329   0.095651   0.024505   0.035888   0.039084
  132  H 24  S   -0.002312   0.022593   0.007852   0.020319   0.021380

                     21         22         23         24         25
                   -0.7048    -0.6357    -0.5885    -0.5558    -0.5434
                     A          A          A          A          A   
    1  O  1  S    0.047303   0.025091   0.007963  -0.013313  -0.004507
    2  O  1  S   -0.044636  -0.024566  -0.007253   0.013190   0.003932
    3  O  1  X   -0.096708  -0.089772   0.003610   0.056413  -0.102225
    4  O  1  Y   -0.043025  -0.040091  -0.016013   0.035190  -0.027605
    5  O  1  Z    0.006975   0.003755   0.011944  -0.008769   0.009463
    6  O  1  S   -0.181551  -0.099365  -0.032462   0.055388   0.017116
    7  O  1  X   -0.073709  -0.072535   0.004899   0.044849  -0.089171
    8  O  1  Y   -0.025305  -0.030421  -0.012769   0.029798  -0.023952
    9  O  1  Z    0.001281   0.000442   0.011914  -0.009217   0.006748
   10  C  2  S   -0.140204  -0.080842  -0.024851   0.044921  -0.008866
   11  C  2  S    0.140064   0.073262   0.023901  -0.036248   0.010177
   12  C  2  X   -0.039454   0.005722   0.037251  -0.060577  -0.007119
   13  C  2  Y   -0.030683   0.013309  -0.034964   0.003908   0.086599
   14  C  2  Z   -0.012380   0.023464   0.011935  -0.066287  -0.017379
   15  C  2  S    0.396415   0.285026   0.087553  -0.194009   0.029729
   16  C  2  X   -0.012412  -0.017529   0.025622  -0.017680  -0.007601
   17  C  2  Y   -0.024759  -0.010752  -0.026682   0.021476   0.060535
   18  C  2  Z   -0.002229  -0.006936   0.005932  -0.015483  -0.002954
   19  C  3  S   -0.047593   0.061103   0.006870  -0.107668  -0.013688
   20  C  3  S    0.046300  -0.056822  -0.003464   0.103509   0.012088
   21  C  3  X    0.090943   0.052198   0.041873  -0.025929  -0.015317
   22  C  3  Y    0.021325   0.088947  -0.087556   0.035258   0.091068
   23  C  3  Z    0.077179   0.059825  -0.045648  -0.036601  -0.041899
   24  C  3  S    0.138205  -0.207931  -0.047112   0.403142   0.065072
   25  C  3  X    0.027244   0.003467   0.027400  -0.015809  -0.008786
   26  C  3  Y   -0.016762   0.042245  -0.052392  -0.023925   0.053316
   27  C  3  Z    0.033957  -0.000432  -0.027296   0.010854  -0.031607
   28  O  4  S    0.027157  -0.018715  -0.001262   0.030004   0.017057
   29  O  4  S   -0.026043   0.016062   0.001120  -0.027218  -0.014955
   30  O  4  X    0.002389   0.060883  -0.013289  -0.108067  -0.052823
   31  O  4  Y   -0.010875   0.068557  -0.043993  -0.081562  -0.018158
   32  O  4  Z    0.018924  -0.023213   0.005226   0.083095   0.033954
   33  O  4  S   -0.094759   0.080097   0.006182  -0.126292  -0.073244
   34  O  4  X    0.003471   0.050815  -0.012745  -0.090446  -0.044862
[...]
   1661    8.79181    2.91199    5.22403        -9.445159       9.462791       0.017632
   1662   10.13487    3.82711    4.29816        -8.714822       8.733883       0.019061
   1663    8.65418    4.74222    4.86373        -9.169663       9.182704       0.013040
   1664   10.48441   -0.04938    1.90236        -9.557310       9.579061       0.021751
   1665   11.04999    1.43131    2.81747        -8.869473       8.892333       0.022860
   1666    9.79198    0.29351    3.60572        -9.694824       9.716945       0.022122
   1667   11.04999    4.39268    2.81747        -8.375482       8.394994       0.019512
   1668   10.48441    5.87337    1.90236        -8.439818       8.454589       0.014772
   1669    9.55787    6.76999    0.98724        -8.752239       8.760769       0.008530
   1670    9.79198    5.53047    3.60572        -8.634335       8.648798       0.014463
   1671    9.00373    6.78848    2.46793        -8.863679       8.871036       0.007357
   1672    8.08861    6.22291    3.94862        -9.256875       9.262544       0.005669
   1673   10.48441    5.87337    0.07213        -8.579442       8.592474       0.013031
   1674   11.41029    4.53030    0.98724        -8.350970       8.369661       0.018692
   1675   11.61556    2.91199    1.90236        -8.450673       8.472507       0.021833
   1676   11.04999    4.39268   -0.84299        -8.650000       8.665979       0.015979
   1677   11.61556    2.91199    0.07213        -8.584608       8.604593       0.019985
   1678   11.03149    2.91199   -1.39713        -8.955768       8.972498       0.016729
   1679   10.48441   -0.04938    0.07213        -9.739460       9.758437       0.018977
   1680   11.04999    1.43131   -0.84299        -9.181403       9.199864       0.018461
   1681   11.41029    1.29368    0.98724        -8.882134       8.903912       0.021778
   1682   10.13487    1.99688   -2.32367        -9.705212       9.718581       0.013369
   1683    9.79198    0.29351   -1.63124       -10.287607      10.301308       0.013701
   1684   10.13487    3.82711   -2.32367        -9.309825       9.321869       0.012044
   1685    9.79198    5.53047   -1.63124        -9.089540       9.098718       0.009178
   1686    5.09323   -3.09048    5.58000       -11.387958      11.385352      -0.002606
   1687    6.57392   -2.53634    5.59849       -10.574526      10.577582       0.003056
   1688    8.05461   -1.62122    5.03292       -10.128866      10.138140       0.009274
   1689    8.95123   -0.70611    4.10638       -10.105975      10.122342       0.016367
   1690    8.40415   -3.66748    2.63712       -10.348145      10.349369       0.001225
   1691    8.96972   -2.18679    3.55223       -10.014344      10.024019       0.009676
   1692    7.71172   -3.32459    4.34049       -10.298026      10.300412       0.002387
   1693    9.53529   -0.70611    2.63712       -10.205686      10.225928       0.020242
   1694    8.40415   -3.66748    0.80689       -10.778602      10.776590      -0.002011
   1695    8.96972   -2.18679   -0.10822       -10.845733      10.851517       0.005784
   1696    9.33003   -2.32442    1.72200       -10.236116      10.245273       0.009157
   1697    8.05461   -1.62122   -1.58891       -11.918060      11.918106       0.000046
   1698    7.71172   -3.32459   -0.89648       -11.685415      11.677400      -0.008015
   1699    2.95304   -0.95199    7.12109       -11.223751      11.228744       0.004993
   1700    4.43373   -0.39785    7.13958       -10.745870      10.751414       0.005543
   1701    2.95304    0.51726    7.70515       -10.618886      10.624736       0.005850
   1702    4.57135    1.43238    7.49989       -10.254964      10.260881       0.005917
   1703    2.95304    2.34749    7.70515       -10.330047      10.334456       0.004409
   1704    4.43373    3.26261    7.13958       -10.201593      10.205043       0.003450
   1705    2.95304    3.81675    7.12109       -10.388443      10.389609       0.001166
   1706    3.86816    4.74329    6.22447       -10.532750      10.530320      -0.002430
   1707    2.95304    5.66917    4.88141       -11.284495      11.272260      -0.012235
   1708    1.12281    5.30886    4.74378       -11.935395      11.921922      -0.013473
   1709    2.03793    4.74329    6.22447       -10.889299      10.885462      -0.003837
   1710    1.47236    3.26261    7.13958       -10.809984      10.811944       0.001960
   1711    0.33456    4.05086    5.88158       -11.772181      11.768369      -0.003812
   1712   -0.00833    2.34749    6.57401       -11.841427      11.844959       0.003532
   1713   -0.00833    0.51726    6.57401       -12.295975      12.303672       0.007697
   1714    1.47236   -0.39785    7.13958       -11.536530      11.543146       0.006616
   1715    2.03793   -1.87854    6.22447       -12.402145      12.405470       0.003325
   1716    1.33473    1.43238    7.49989       -10.984309      10.989907       0.005598
   1717    8.01183    3.94540   -4.36940       -10.169482      10.170167       0.000685
   1718    7.99334    2.46471   -4.92354       -10.323341      10.321387      -0.001953
   1719    5.61603    4.29494   -6.41566       -10.118226      10.107386      -0.010840
   1720    7.09672    3.37983   -5.85009       -10.068008      10.062172      -0.005836
   1721    5.96558    6.34120   -4.01986       -10.277632      10.269059      -0.008573
   1722    6.75383    5.08320   -5.15765        -9.979016       9.974375      -0.004641
   1723    5.05046    5.77563   -5.50054       -10.187285      10.176739      -0.010546
   1724    3.22023    6.90677   -2.53917       -11.631980      11.607683      -0.024297
   1725    1.75098    6.32271   -2.53917       -12.645877      12.613074      -0.032803
   1726    2.30512    6.34120   -4.01986       -11.596957      11.572474      -0.024483
   1727    4.13535    6.70151   -4.15748       -10.679321      10.664229      -0.015092
   1728    3.22023    5.77563   -5.50054       -10.819389      10.800573      -0.018816
   1729    2.04255   -8.08437    4.59590       -10.046740      10.057922       0.011181
   1730    4.42692   -9.55799    0.73790        -9.302577       9.313404       0.010827
   1731    5.35347   -8.66137    1.65302        -9.551226       9.558023       0.006797
   1732    3.87278   -9.57649    2.21859        -9.266920       9.279202       0.012282
   1733    4.66103   -8.31848    3.35638        -9.670215       9.677554       0.007339
   1734    2.95767   -9.01092    3.69928        -9.528555       9.540902       0.012347
   1735    5.35347   -8.66137   -0.17721        -9.669927       9.675702       0.005774
   1736    2.04255   -8.08437   -3.12009       -10.775616      10.780617       0.005000
   1737    3.52324   -7.53023   -3.13859       -10.814479      10.816916       0.002437
   1738    2.95767   -9.01092   -2.22347        -9.968569       9.977023       0.008455
   1739    4.66103   -8.31848   -1.88058       -10.047282      10.051780       0.004499
   1740    3.87278   -9.57649   -0.74278        -9.454748       9.465331       0.010582
   1741    0.56187   -7.53023   -3.13859       -11.668091      11.667895      -0.000196
   1742   -0.34182   -9.55799    0.73790       -10.232318      10.242204       0.009885
   1743    1.12744   -9.01092   -2.22347       -10.373942      10.381076       0.007135
   1744    0.21232   -9.57649   -0.74278       -10.193327      10.201887       0.008560
   1745    1.12744  -10.14206    0.73790        -9.561250       9.575035       0.013785
   1746    2.04255   -9.93679   -0.88041        -9.591485       9.603562       0.012077
   1747    2.95767  -10.14206    0.73790        -9.245932       9.259697       0.013765
   1748   -0.57593   -8.31848    3.35638       -10.713909      10.726398       0.012489
   1749    0.21232   -9.57649    2.21859        -9.911058       9.924815       0.013757
   1750    0.56187   -7.53023    4.61439       -10.681605      10.693507       0.011901
   1751    1.12744   -9.01092    3.69928        -9.838347       9.852504       0.014156
   1752    2.04255   -9.93679    2.35621        -9.361757       9.376592       0.014835
   1753   -4.73491   -6.80611    4.23005       -10.364499      10.382403       0.017904
   1754   -4.73491   -5.33685    4.81411       -10.971759      10.993492       0.021732
   1755   -8.61140   -2.94105   -1.45818       -10.854523      10.869000       0.014477
   1756   -7.69628   -3.50662   -2.93886       -10.963177      10.969358       0.006181
   1757   -8.59290   -4.42174   -2.01232       -10.070310      10.083184       0.012874
   1758   -7.69628   -5.33685   -2.93886       -10.067551      10.073898       0.006347
   1759   -8.59290   -4.42174    2.75642        -9.862374       9.889151       0.026777
   1760   -9.17697   -4.42174    1.28717        -9.734968       9.759284       0.024316
   1761   -9.17697   -4.42174   -0.54306        -9.807233       9.826385       0.019152
   1762   -7.11928   -8.27973    0.37205        -9.148353       9.161949       0.013596
   1763   -8.04582   -7.38311    1.28717        -9.056565       9.075868       0.019303
   1764   -8.61140   -5.90242    2.20228        -9.301318       9.325232       0.023914
   1765   -8.04582   -7.38311   -0.54306        -9.137979       9.152656       0.014677
   1766   -8.97170   -6.04005    0.37205        -9.222958       9.243313       0.020354
   1767   -8.61140   -5.90242   -1.45818        -9.457093       9.471554       0.014461
   1768   -7.35339   -7.04022   -2.24643        -9.559361       9.566357       0.006996
   1769   -7.69628   -5.33685    3.68297        -9.736981       9.762757       0.025775
   1770   -7.35339   -7.04022    2.99053        -9.297456       9.319113       0.021657
   1771   -6.56514   -8.29823    1.85274        -9.256878       9.272541       0.015664
   1772   -6.21559   -6.25197    4.24854        -9.910426       9.932951       0.022525
   1773   -5.65002   -7.73265    3.33343        -9.685077       9.702205       0.017128
   1774   -6.35322   -4.42174    4.60884       -10.631243      10.657626       0.026382
   1775   -6.17584   -2.58525    5.23548       -11.074119      11.097160       0.023041
   1776  -10.03383   -0.20088   -1.00688       -10.233567      10.236113       0.002546
   1777   -9.13721   -1.11599   -1.93343       -10.755676      10.757843       0.002167
   1778   -7.65653   -2.03111   -2.49900       -11.864502      11.869539       0.005037
   1779   -9.13721    0.71424    4.68841        -9.758916       9.777262       0.018346
   1780  -10.03383   -0.20088    3.76186        -9.434586       9.451246       0.016661
   1781  -10.61790   -0.20088    2.29261        -9.427441       9.441714       0.014273
   1782  -10.61790   -0.20088    0.46238        -9.713869       9.723035       0.009166
   1783   -9.48675   -3.16225    2.29261        -9.749606       9.771181       0.021575
   1784  -10.05233   -1.68156    3.20772        -9.398668       9.415889       0.017221
   1785   -9.48675   -3.16225    0.46238       -10.054180      10.073967       0.019787
   1786  -10.41263   -1.81919    1.37749        -9.508964       9.523762       0.014798
   1787  -10.05233   -1.68156   -0.45274        -9.958269       9.968486       0.010217
   1788   -8.79432   -2.81936   -1.24099       -10.762360      10.777073       0.014712
   1789   -9.13721   -1.11599    4.68841        -9.588930       9.606906       0.017976
   1790   -8.79432   -2.81936    3.99597        -9.798846       9.820382       0.021536
   1791   -7.65653   -2.03111    5.25398       -10.158951      10.179222       0.020271
   1792   -7.09095   -3.51179    4.33886       -10.707929      10.735070       0.027141
   1793   -4.06954   -0.44591    6.79442       -11.143331      11.158836       0.015505
   1794   -2.58885    0.10823    6.81291       -11.632898      11.645686       0.012788
   1795   -1.10816    1.02335    6.24734       -12.566085      12.574408       0.008323
   1796   -4.06954    1.02335    7.37849       -10.493299      10.506231       0.012931
   1797   -2.45123    1.93846    7.17322       -10.987797      10.996953       0.009156
   1798   -1.10816    2.85357    6.24734       -11.939074      11.942103       0.003028
   1799   -4.06954    2.85357    7.37849       -10.124952      10.135742       0.010790
   1800   -2.58885    3.76869    6.81291       -10.678443      10.684329       0.005885
   1801   -4.06954    4.32283    6.79442       -10.091197      10.100264       0.009066
   1802   -1.45106    4.55694    5.55491       -11.650393      11.647521      -0.002872
   1803   -2.23931    5.81495    4.41711       -11.551663      11.544959      -0.006704
   1804   -3.15442    5.24938    5.89780       -10.574453      10.578301       0.003848
   1805   -4.06954    6.17525    4.55474       -10.730521      10.735454       0.004934
   1806   -4.98465    5.24938    5.89780       -10.057444      10.068798       0.011354
   1807   -5.55022    3.76869    6.81291        -9.801601       9.814933       0.013332
   1808   -6.68802    4.55694    5.55491        -9.948189       9.967655       0.019466
   1809   -7.03091    2.85357    6.24734        -9.840795       9.858192       0.017397
   1810   -5.55022    0.10823    6.81291       -10.475267      10.491260       0.015993
   1811   -5.68785    1.93846    7.17322        -9.930514       9.944744       0.014230
   1812   -6.97243    5.34139    5.23866        -9.630142       9.650350       0.020208
   1813   -5.49174    6.25651    4.67309       -10.109262      10.123088       0.013826
   1814   -6.97243    6.81065    4.65459        -9.136463       9.153828       0.017365
   1815   -4.35395    7.04476    3.41508       -10.618677      10.621435       0.002758
   1816   -5.14220    8.30277    2.27729        -9.706732       9.708691       0.001959
   1817   -6.05731    7.73720    3.75797        -9.310573       9.322151       0.011578
   1818   -6.05731    8.86834    0.79660        -9.205604       9.205863       0.000259
   1819   -7.88754    8.86834    0.79660        -8.484537       8.491925       0.007388
   1820   -9.35680    8.28427    0.79660        -8.153604       8.164714       0.011110
   1821   -6.97243    8.66307    2.41491        -8.746974       8.757036       0.010061
   1822   -8.80266    8.30277    2.27729        -8.218967       8.233440       0.014473
   1823   -7.88754    7.73720    3.75797        -8.565207       8.581835       0.016628
   1824   -8.80266    8.30277   -0.68409        -8.434639       8.438696       0.004056
   1825   -6.97243    8.66307   -0.82171        -9.029645       9.026345      -0.003300
   1826  -10.28335    7.38765   -0.11852        -8.149404       8.158848       0.009444
   1827   -9.59091    7.04476   -1.82188        -8.595509       8.595214      -0.000295
   1828  -10.84892    5.90697   -1.03363        -8.412563       8.417977       0.005413
   1829   -8.45312    6.25651    4.67309        -8.713691       8.734253       0.020563
   1830   -9.59091    7.04476    3.41508        -8.203482       8.222507       0.019025
   1831  -10.28335    7.38765    1.71171        -8.026662       8.042185       0.015524
   1832   -9.93380    5.34139    4.10752        -8.490781       8.512291       0.021510
   1833  -10.84892    5.90697    2.62683        -8.150503       8.169189       0.018686
   1834  -10.83042    4.42628    3.18097        -8.510227       8.530405       0.020178
   1835  -11.41449    4.42628    1.71171        -8.420424       8.436656       0.016232
   1836  -11.20922    6.04459    0.79660        -8.131348       8.144916       0.013567
   1837  -11.41449    4.42628   -0.11852        -8.559561       8.568577       0.009017
   1838  -10.84892    2.94559    2.62683        -9.018093       9.036781       0.018687
   1839  -11.20922    2.80797    0.79660        -9.078259       9.089891       0.011632
   1840   -9.93380    3.51117    4.10752        -9.069529       9.091765       0.022235
   1841   -8.59074    4.42628    5.03339        -9.235475       9.258219       0.022743

 NET CHARGES:
 -------------------------------------
 ATOM                CHARGE    E.S.D.
 -------------------------------------
 O                  -0.6315    0.0158
 C                   0.1260    0.1511
 C                   0.4852    0.2187
 O                  -0.6537    0.0176
 C                   0.1916    0.2060
 H                   0.0750    0.0168
 O                  -0.6731    0.0200
 C                   0.1047    0.1752
 H                   0.0317    0.0187
 O                  -0.6289    0.0170
 C                   0.0831    0.2032
 H                   0.1012    0.0180
 O                  -0.4164    0.0326
 C                   0.2029    0.1386
 O                  -0.6041    0.0104
 H                   0.4207    0.0031
 H                   0.0585    0.0168
 H                   0.0333    0.0126
 H                   0.4242    0.0054
 H                   0.4492    0.0046
 H                   0.4167    0.0039
 H                  -0.0200    0.0135
 H                   0.0215    0.0108
 H                   0.4024    0.0028
 -------------------------------------

 RMS DEVIATION IS            0.779 KCAL/MOLE
 RELATIVE RMS DEVIATION IS   5.514 %

 MULTIPOLE MOMENTS:
 ---------------------------------------------------------
 STATUS  ACTUAL VALUE       QUANTITY        FITTED VALUE 
 ---------------------------------------------------------
 FIXED       0.0000       TOTAL CHARGE        -0.0000
             4.3027 D    DIPOLE MOMENT         4.3001 D
 FREE       -0.5645 D          DX             -0.5824 D
 FREE       -1.7776 D          DY             -1.7788 D
 FREE        3.8775 D          DZ              3.8714 D
 FREE        0.0000 BU         QXX            20.4944 BU
 FREE        0.0000 BU         QYY            -9.0708 BU
 FREE        0.0000 BU         QZZ           -11.4236 BU
 FREE        0.0000 BU         QXY             3.4923 BU
 FREE        0.0000 BU         QXZ            -6.6002 BU
 FREE        0.0000 BU         QYZ             2.2427 BU
 ---------------------------------------------------------
 ...... END OF PROPERTY EVALUATION ......
 CPU     0: STEP CPU TIME=     0.73 TOTAL CPU TIME=         25.0 (      0.4 MIN)
 TOTAL WALL CLOCK TIME=         49.5 SECONDS, CPU UTILIZATION IS    50.40%
               956059  WORDS OF DYNAMIC MEMORY USED
 EXECUTION OF GAMESS TERMINATED NORMALLY Thu May 21 20:38:23 2020
 DDI: 263640 bytes (0.3 MB / 0 MWords) used by master data server.
Note: The following floating-point exceptions are signalling: IEEE_UNDERFLOW_FLAGNote: The following floating-point exceptions are signalling: IEEE_UNDERFLOW_FLAGNote: The following floating-point exceptions are signalling: IEEE_DENORMAL
Note: The following floating-point exceptions are signalling: IEEE_UNDERFLOW_FLAGNote: The following floating-point exceptions are signalling: IEEE_UNDERFLOW_FLAG
 ----------------------------------------
 CPU timing information for all processes
 ========================================
 0: 24.618 + 0.361 = 24.980
 1: 24.402 + 0.89 = 24.492
 2: 24.520 + 0.122 = 24.643
 3: 23.644 + 0.93 = 23.737
 4: 24.607 + 0.118 = 24.725
 5: 24.578 + 0.69 = 24.647
 6: 24.96 + 0.118 = 24.214
 7: 24.590 + 0.81 = 24.672
 ----------------------------------------
 IEEE_DENORMAL IEEE_UNDERFLOW_FLAGNote: The following floating-point exceptions are signalling: IEEE_DENORMAL
 IEEE_DENORMAL
Note: The following floating-point exceptions are signalling: IEEE_UNDERFLOW_FLAG
Note: The following floating-point exceptions are signalling: IEEE_UNDERFLOW_FLAG IEEE_DENORMAL IEEE_UNDERFLOW_FLAG IEEE_DENORMAL IEEE_DENORMAL
 IEEE_DENORMAL


 ddikick.x: exited gracefully.
unset echo
----- accounting info -----
Files used on the master node pietdev were:
-rwxr-xr-x 1 piet piet     1501 mei 21 20:37 /home/piet/scr/alfa-d-fructofuranose_charge_geodisk.F05*
-rw-r--r-- 1 piet piet 50790400 mei 21 20:38 /home/piet/scr/alfa-d-fructofuranose_charge_geodisk.F10
ls: No match.
ls: No match.
ls: No match.
do 21 mei 2020 20:38:26 CEST
0.112u 0.025s 0:52.70 0.2%	0+0k 0+8io 0pf+0w
