----- GAMESS execution script 'rungms' -----
This job is running on host pietdev
under operating system Linux at zo 17 mei 2020 16:11:49 CEST
Available scratch disk space (Kbyte units) at beginning of the job is
Filesystem     1K-blocks     Used Available Use% Mounted on
/dev/sda2      244568380 30391780 201683544  14% /
GAMESS temporary binary files will be written to /home/piet/scr
GAMESS supplementary output files will be written to /home/piet/gamess/scr
Copying input file phenylalanine_charge_geodisk.inp to your run's scratch directory...
cp phenylalanine_charge_geodisk.inp /home/piet/scr/phenylalanine_charge_geodisk.F05
unset echo
 
Assuming a single but multicore node.
 
/home/piet/gamess/ddikick.x /home/piet/gamess/gamess.03.x phenylalanine_charge_geodisk -ddi 1 6 pietdev:cpus=6 -scr /home/piet/scr

 Distributed Data Interface kickoff program.
 Initiating 6 compute processes on 1 nodes to run the following command:
 /home/piet/gamess/gamess.03.x phenylalanine_charge_geodisk 

          ******************************************************
          *         GAMESS VERSION = 30 SEP 2019 (R2)          *
          *             FROM IOWA STATE UNIVERSITY             *
          * M.W.SCHMIDT, K.K.BALDRIDGE, J.A.BOATZ, S.T.ELBERT, *
          *   M.S.GORDON, J.H.JENSEN, S.KOSEKI, N.MATSUNAGA,   *
          *          K.A.NGUYEN, S.J.SU, T.L.WINDUS,           *
          *       TOGETHER WITH M.DUPUIS, J.A.MONTGOMERY       *
          *         J.COMPUT.CHEM.  14, 1347-1363(1993)        *
          **************** 64 BIT LINUX VERSION ****************

  SINCE 1993, STUDENTS AND POSTDOCS WORKING AT IOWA STATE UNIVERSITY
  AND ALSO IN THEIR VARIOUS JOBS AFTER LEAVING ISU HAVE MADE IMPORTANT
  CONTRIBUTIONS TO THE CODE:
     IVANA ADAMOVIC, CHRISTINE AIKENS, YURI ALEXEEV, POOJA ARORA,
     ANDREY ASADCHEV, ROB BELL, PRADIPTA BANDYOPADHYAY, JONATHAN BENTZ,
     COLLEEN BERTONI, BRETT BODE, KURT BRORSEN, CALEB CARLIN, GALINA CHABAN,
     WEI CHEN, CHEOL HO CHOI, PAUL DAY, ALBERT DEFUSCO, NUWAN DESILVA,
     TIM DUDLEY, DMITRI FEDOROV, ALEX FINDLATER, GRAHAM FLETCHER, 
     MARK FREITAG, KURT GLAESEMANN, EMILIE B GUIDEZ, ANASTASIA GUNINA, 
     DAN KEMP, SAROM SOK LEANG, GRANT MERRILL,
     NORIYUKI MINEZAWA, JONATHAN MULLIN,
     TAKESHI NAGATA, SEAN NEDD, HEATHER NETZLOFF, BOSILJKA NJEGIC, RYAN OLSON,
     MIKE PAK, BUU PHAM, DAVID POOLE,
     SPENCER PRUITT, LUKE ROSKOP, TOSAPORN SATTASATHUCHANA,
     JIM SHOEMAKER, LYUDMILA SLIPCHENKO,
     TONY SMITH, JIE SONG, TETSUYA TAKETSUGU, SIMON WEBB,
     JORGE LUIS GALVEZ VALLEJO, PENG XU, SOOHAENG YOO,
     FEDERICO ZAHARIEV

  ADDITIONAL CODE HAS BEEN PROVIDED BY COLLABORATORS IN OTHER GROUPS:
     IOWA STATE UNIVERSITY:
          JOE IVANIC, AARON WEST, LAIMUTIS BYTAUTAS, KLAUS RUEDENBERG
     UNIVERSITY OF TOKYO: KIMIHIKO HIRAO, TAKAHITO NAKAJIMA,
          TAKAO TSUNEDA, MUNEAKI KAMIYA, SUSUMU YANAGISAWA,
          KIYOSHI YAGI, MAHITO CHIBA, SEIKEN TOKURA, NAOAKI KAWAKAMI
     UNIVERSITY OF AARHUS: FRANK JENSEN
     UNIVERSITY OF IOWA: VISVALDAS KAIRYS, HUI LI
     NATIONAL INST. OF STANDARDS AND TECHNOLOGY: WALT STEVENS, DAVID GARMER
     UNIVERSITY OF PISA: BENEDETTA MENNUCCI, JACOPO TOMASI
     UNIVERSITY OF MEMPHIS: HENRY KURTZ, PRAKASHAN KORAMBATH
     UNIVERSITY OF ALBERTA: TOBY ZENG, MARIUSZ KLOBUKOWSKI
     UNIVERSITY OF NEW ENGLAND: MARK SPACKMAN
     MIE UNIVERSITY: HIROAKI UMEDA
     NAT. INST. OF ADVANCED INDUSTRIAL SCIENCE AND TECHNOLOGY: KAZUO KITAURA
     MICHIGAN STATE UNIVERSITY:
          KAROL KOWALSKI, MARTA WLOCH, JEFFREY GOUR, JESSE LUTZ,
          WEI LI, JUN SHEN, J. EMILIANO DEUSTUA, PIOTR PIECUCH
     UNIVERSITY OF MINNESOTA:
          ANDREW SAND, PRACHI SHARMA, YINAN SHU
     UNIVERSITY OF SILESIA: MONIKA MUSIAL, STANISLAW KUCHARSKI
     FACULTES UNIVERSITAIRES NOTRE-DAME DE LA PAIX:
          OLIVIER QUINET, BENOIT CHAMPAGNE
     UNIVERSITY OF CALIFORNIA - SANTA BARBARA: BERNARD KIRTMAN
     INSTITUTE FOR MOLECULAR SCIENCE:
          KAZUYA ISHIMURA, MICHIO KATOUDA, AND SHIGERU NAGASE
     UNIVERSITY OF NOTRE DAME: ANNA POMOGAEVA, DAN CHIPMAN
     KYUSHU UNIVERSITY:
          HARUYUKI NAKANO,
          FENG LONG GU, JACEK KORCHOWIEC, MARCIN MAKOWSKI, AND YURIKO AOKI,
          HIROTOSHI MORI AND EISAKU MIYOSHI
     PENNSYLVANIA STATE UNIVERSITY:
          TZVETELIN IORDANOV, CHET SWALINA, JONATHAN SKONE,
          SHARON HAMMES-SCHIFFER
     WASEDA UNIVERSITY:
          MASATO KOBAYASHI, TOMOKO AKAMA, TSUGUKI TOUMA,
          TAKESHI YOSHIKAWA, YASUHIRO IKABATA, JUNJI SEINO,
          YUYA NAKAJIMA, HIROMI NAKAI
     NANJING UNIVERSITY: SHUHUA LI
     UNIVERSITY OF NEBRASKA:
          PEIFENG SU, DEJUN SI, NANDUN THELLAMUREGE, YALI WANG, HUI LI
     UNIVERSITY OF ZURICH: ROBERTO PEVERATI, KIM BALDRIDGE
     N. COPERNICUS UNIVERSITY AND JACKSON STATE UNIVERSITY:
          MARIA BARYSZ
     UNIVERSITY OF COPENHAGEN: Jimmy Kromann, CASPER STEINMANN
     TOKYO INSTITUTE OF TECHNOLOGY: HIROYA NAKATA
     NAGOYA UNIVERSITY: YOSHIO NISHIMOTO, STEPHAN IRLE
     MOSCOW STATE UNIVERSITY: VLADIMIR MIRONOV
     A.N.NESMEYANOV INSTITUTE OF ORGANOELEMENT COMPOUNDS OF RUSSIAN ACADEMY OF SCIENCES:
          IGOR S. GERASIMOV
     JOHANNES KEPLER UNIVERSITY LINZ:
          CHRISTIAN FRIEDL


 PARALLEL VERSION RUNNING ON        6 PROCESSORS IN        1 NODES.

 EXECUTION OF GAMESS BEGUN Sun May 17 16:11:49 2020

            ECHO OF THE FIRST FEW INPUT CARDS -
 INPUT CARD> $BASIS GBASIS=N21 NGAUSS=3 $END                                                
 INPUT CARD> $CONTRL SCFTYP=RHF DFTTYP=B3LYP MAXIT=60 MULT=1 ICHARG=0 $END                  
 INPUT CARD> $SYSTEM MEMDDI=1000 MWORDS=30 $END                                             
 INPUT CARD> $SCF DIRSCF=.TRUE. $END                                                        
 INPUT CARD> $ELPOT  IEPOT=1 WHERE=PDC $END                                                 
 INPUT CARD> $PDC PTSEL=GEODESIC CONSTR=CHARGE $END                                         
 INPUT CARD> $DATA                                                                          
 INPUT CARD>                                                                                
 INPUT CARD>C1                                                                              
 INPUT CARD>C 6.0000000 -1.3325916150 0.0708500242 -0.4137541981                            
 INPUT CARD>H 1.0000000 -1.1302963780 -0.6185936306 -1.2402663453                           
 INPUT CARD>C 6.0000000 -0.4388630896 -0.2782371527 0.8054787988                            
 INPUT CARD>C 6.0000000 1.0367623932 -0.1937984185 0.4483441907                             
 INPUT CARD>C 6.0000000 1.7259535085 1.0232957270 0.5407446877                              
 INPUT CARD>C 6.0000000 3.0700130883 1.1128043761 0.1715227951                              
 INPUT CARD>C 6.0000000 3.7452742024 -0.0170017362 -0.2973609268                            
 INPUT CARD>C 6.0000000 3.0679990408 -1.2349274667 -0.3942065418                            
 INPUT CARD>C 6.0000000 1.7235985824 -1.3203848433 -0.0247054454                            
 INPUT CARD>H 1.0000000 -0.6609770157 0.4117600005 1.6288775686                             
 INPUT CARD>H 1.0000000 -0.6752607880 -1.2916709946 1.1518925659                            
 INPUT CARD>H 1.0000000 1.2069026027 1.9027900501 0.9092872995                              
 INPUT CARD>H 1.0000000 3.5898386530 2.0610810663 0.2533011461                              
 INPUT CARD>H 1.0000000 4.7893825784 0.0503686603 -0.5816659420                             
 INPUT CARD>H 1.0000000 3.5860556132 -2.1175102670 -0.7533043217                            
 INPUT CARD>H 1.0000000 1.2024233478 -2.2699357363 -0.0980300720                            
 INPUT CARD>H 1.0000000 -2.3947755488 0.0037356837 -0.1510568460                            
 INPUT CARD>H 1.0000000 -1.1208691755 1.0884446579 -0.7593084133                            
 INPUT CARD> $END                                                                           
   30000000 WORDS OF MEMORY AVAILABLE

     BASIS OPTIONS
     -------------
     GBASIS=N21          IGAUSS=       3      POLAR=NONE    
     NDFUNC=       0     NFFUNC=       0     DIFFSP=       F
     NPFUNC=       0      DIFFS=       F     BASNAM=        


     RUN TITLE
     ---------
                                                                                 

 THE POINT GROUP OF THE MOLECULE IS C1      
 THE ORDER OF THE PRINCIPAL AXIS IS     0

 ATOM      ATOMIC                      COORDINATES (BOHR)
           CHARGE         X                   Y                   Z
 C           6.0    -2.5182330059        0.1338871320       -0.7818820607
 H           1.0    -2.1359504393       -1.1689724596       -2.3437635444
 C           6.0    -0.8293309855       -0.5257919782        1.5221342187
 C           6.0     1.9591968375       -0.3662259078        0.8472476686
 C           6.0     3.2615791986        1.9337485284        1.0218592891
 C           6.0     5.8014835156        2.1028953488        0.3241310834
 C           6.0     7.0775419914       -0.0321286227       -0.5619306711
 C           6.0     5.7976775177       -2.3336745268       -0.7449423466
 C           6.0     3.2571290336       -2.4951655522       -0.0466865222
 H           1.0    -1.2490654439        0.7781135736        3.0781322722
 H           1.0    -1.2760578596       -2.4409042461        2.1767613168
 H           1.0     2.2807152130        3.5957518069        1.7183038402
 H           1.0     6.7838113943        3.8948784538        0.4786697585
 H           1.0     9.0506207235        0.0951829663       -1.0991892468
 H           1.0     6.7766624857       -4.0015141808       -1.4235387534
 H           1.0     2.2722506486       -4.2895565513       -0.1852499746
 H           1.0    -4.5254695893        0.0070594186       -0.2854560475
 H           1.0    -2.1181356098        2.0568621562       -1.4348848413

          INTERNUCLEAR DISTANCES (ANGS.)
          ------------------------------

                1 C          2 H          3 C          4 C          5 C     

   1 C       0.0000000    1.0951613 *  1.5514966 *  2.5351708 *  3.3425917  
   2 H       1.0951613 *  0.0000000    2.1860914 *  2.7799281 *  3.7451254  
   3 C       1.5514966 *  2.1860914 *  0.0000000    1.5205741 *  2.5397840 *
   4 C       2.5351708 *  2.7799281 *  1.5205741 *  0.0000000    1.4017276 *
   5 C       3.3425917    3.7451254    2.5397840 *  1.4017276 *  0.0000000  
   6 C       4.5619235    4.7574665    3.8274154    2.4326836 *  1.3967221 *
   7 C       5.0799593    5.0022167    4.3349169    2.8148480 *  2.4212179 *
   8 C       4.5902761    4.3268197    3.8278693    2.4330565 *  2.7883314 *
   9 C       3.3804130    3.1803798    2.5399839 *  1.4016836 *  2.4109289 *
  10 H       2.1770692 *  3.0844572    1.0970033 *  2.1546877 *  2.6935936 *
  11 H       2.1771075 *  2.5263639 *  1.0967837 *  2.1520520 *  3.3909295  
  12 H       3.3993343    4.0546832    2.7342642 *  2.1533925 *  1.0857015 *
  13 H       5.3512898    5.6294827    4.6912416    3.4118502    2.1526008 *
  14 H       6.1243107    5.9936520    5.4191056    3.8990636    3.4045544  
  15 H       5.3941918    4.9727115    4.6917695    3.4122606    3.8728807  
  16 H       3.4648608    3.0778590    2.7344127 *  2.1532103 *  3.3952158  
  17 H       1.0962431 *  1.7811734 *  2.1954641 *  3.4890907    4.3009883  
  18 H       1.0953232 *  1.7735245 *  2.1866665 *  2.7853090 *  3.1303006  

                6 C          7 C          8 C          9 C         10 H     

   1 C       4.5619235    5.0799593    4.5902761    3.3804130    2.1770692 *
   2 H       4.7574665    5.0022167    4.3268197    3.1803798    3.0844572  
   3 C       3.8274154    4.3349169    3.8278693    2.5399839 *  1.0970033 *
   4 C       2.4326836 *  2.8148480 *  2.4330565 *  1.4016836 *  2.1546877 *
   5 C       1.3967221 *  2.4212179 *  2.7883314 *  2.4109289 *  2.6935936 *
   6 C       0.0000000    1.3972442 *  2.4149324 *  2.7877854 *  4.0664030  
   7 C       1.3972442 *  0.0000000    1.3969337 *  2.4208100 *  4.8279686  
   8 C       2.4149324 *  1.3969337 *  0.0000000    1.3968703 *  4.5507924  
   9 C       2.7877854 *  2.4208100 *  1.3968703 *  0.0000000    3.3794768  
  10 H       4.0664030    4.8279686    4.5507924    3.3794768    0.0000000  
  11 H       4.5573790    4.8235098    4.0503872    2.6720280 *  1.7690099 *
  12 H       2.1539625 *  3.4036643    3.8740221    3.3953164    2.4959878 *
  13 H       1.0844976 *  2.1554158 *  3.3993021    3.8722670    4.7625523  
  14 H       2.1569178 *  1.0842188 *  2.1564527 *  3.4041448    5.8926671  
  15 H       3.3994908    2.1553123 *  1.0845673 *  2.1529077 *  5.4871928  
  16 H       3.8734327    3.4031654    2.1539116 *  1.0856551 *  3.6940443  
  17 H       5.5855175    6.1418276    5.6067205    4.3278477    2.5180762 *
  18 H       4.2930798    5.0114627    4.8039540    3.7990917    2.5244475 *

               11 H         12 H         13 H         14 H         15 H     

   1 C       2.1771075 *  3.3993343    5.3512898    6.1243107    5.3941918  
   2 H       2.5263639 *  4.0546832    5.6294827    5.9936520    4.9727115  
   3 C       1.0967837 *  2.7342642 *  4.6912416    5.4191056    4.6917695  
   4 C       2.1520520 *  2.1533925 *  3.4118502    3.8990636    3.4122606  
   5 C       3.3909295    1.0857015 *  2.1526008 *  3.4045544    3.8728807  
   6 C       4.5573790    2.1539625 *  1.0844976 *  2.1569178 *  3.3994908  
   7 C       4.8235098    3.4036643    2.1554158 *  1.0842188 *  2.1553123 *
   8 C       4.0503872    3.8740221    3.3993021    2.1564527 *  1.0845673 *
   9 C       2.6720280 *  3.3953164    3.8722670    3.4041448    2.1529077 *
  10 H       1.7690099 *  2.4959878 *  4.7625523    5.8926671    5.4871928  
  11 H       0.0000000    3.7156396    5.4990441    5.8880067    4.7403168  
  12 H       3.7156396    0.0000000    2.4766425 *  4.2998336    4.9585678  
  13 H       5.4990441    2.4766425 *  0.0000000    2.4857675 *  4.2981268  
  14 H       5.8880067    4.2998336    2.4857675 *  0.0000000    2.4853882 *
  15 H       4.7403168    4.9585678    4.2981268    2.4853882 *  0.0000000  
  16 H       2.4586594 *  4.2925923    4.9579121    4.2993014    2.4767561 *
  17 H       2.5164433 *  4.2074722    6.3412761    7.1972027    6.3743806  
  18 H       3.0848349    2.9775647 *  4.9155028    6.0033519    5.6950263  

               16 H         17 H         18 H     

   1 C       3.4648608    1.0962431 *  1.0953232 *
   2 H       3.0778590    1.7811734 *  1.7735245 *
   3 C       2.7344127 *  2.1954641 *  2.1866665 *
   4 C       2.1532103 *  3.4890907    2.7853090 *
   5 C       3.3952158    4.3009883    3.1303006  
   6 C       3.8734327    5.5855175    4.2930798  
   7 C       3.4031654    6.1418276    5.0114627  
   8 C       2.1539116 *  5.6067205    4.8039540  
   9 C       1.0856551 *  4.3278477    3.7990917  
  10 H       3.6940443    2.5180762 *  2.5244475 *
  11 H       2.4586594 *  2.5164433 *  3.0848349  
  12 H       4.2925923    4.2074722    2.9775647 *
  13 H       4.9579121    6.3412761    4.9155028  
  14 H       4.2993014    7.1972027    6.0033519  
  15 H       2.4767561 *  6.3743806    5.6950263  
  16 H       0.0000000    4.2558470    4.1368703  
  17 H       4.2558470    0.0000000    1.7802812 *
  18 H       4.1368703    1.7802812 *  0.0000000  

  * ... LESS THAN  3.000


     ATOMIC BASIS SET
     ----------------
 THE CONTRACTED PRIMITIVE FUNCTIONS HAVE BEEN UNNORMALIZED
 THE CONTRACTED BASIS FUNCTIONS ARE NOW NORMALIZED TO UNITY

  SHELL TYPE  PRIMITIVE        EXPONENT          CONTRACTION COEFFICIENT(S)

 C         

      1   S       1           172.2560000    0.061766907377
      1   S       2            25.9109000    0.358794042852
      1   S       3             5.5333500    0.700713083689

      2   L       4             3.6649800   -0.395895162119    0.236459946619
      2   L       5             0.7705450    1.215834355681    0.860618805716

      3   L       6             0.1958570    1.000000000000    1.000000000000

 H         

      4   S       7             5.4471780    0.156284978695
      4   S       8             0.8245472    0.904690876670

      5   S       9             0.1831916    1.000000000000

 C         

      6   S      10           172.2560000    0.061766907377
      6   S      11            25.9109000    0.358794042852
      6   S      12             5.5333500    0.700713083689

      7   L      13             3.6649800   -0.395895162119    0.236459946619
      7   L      14             0.7705450    1.215834355681    0.860618805716

      8   L      15             0.1958570    1.000000000000    1.000000000000

 C         

      9   S      16           172.2560000    0.061766907377
      9   S      17            25.9109000    0.358794042852
      9   S      18             5.5333500    0.700713083689

     10   L      19             3.6649800   -0.395895162119    0.236459946619
     10   L      20             0.7705450    1.215834355681    0.860618805716

     11   L      21             0.1958570    1.000000000000    1.000000000000

 C         

     12   S      22           172.2560000    0.061766907377
     12   S      23            25.9109000    0.358794042852
     12   S      24             5.5333500    0.700713083689

     13   L      25             3.6649800   -0.395895162119    0.236459946619
     13   L      26             0.7705450    1.215834355681    0.860618805716

     14   L      27             0.1958570    1.000000000000    1.000000000000

 C         

     15   S      28           172.2560000    0.061766907377
     15   S      29            25.9109000    0.358794042852
     15   S      30             5.5333500    0.700713083689

     16   L      31             3.6649800   -0.395895162119    0.236459946619
     16   L      32             0.7705450    1.215834355681    0.860618805716

     17   L      33             0.1958570    1.000000000000    1.000000000000

 C         

     18   S      34           172.2560000    0.061766907377
     18   S      35            25.9109000    0.358794042852
     18   S      36             5.5333500    0.700713083689

     19   L      37             3.6649800   -0.395895162119    0.236459946619
     19   L      38             0.7705450    1.215834355681    0.860618805716

     20   L      39             0.1958570    1.000000000000    1.000000000000

 C         

     21   S      40           172.2560000    0.061766907377
     21   S      41            25.9109000    0.358794042852
     21   S      42             5.5333500    0.700713083689

     22   L      43             3.6649800   -0.395895162119    0.236459946619
     22   L      44             0.7705450    1.215834355681    0.860618805716

     23   L      45             0.1958570    1.000000000000    1.000000000000

 C         

     24   S      46           172.2560000    0.061766907377
     24   S      47            25.9109000    0.358794042852
     24   S      48             5.5333500    0.700713083689

     25   L      49             3.6649800   -0.395895162119    0.236459946619
     25   L      50             0.7705450    1.215834355681    0.860618805716

     26   L      51             0.1958570    1.000000000000    1.000000000000

 H         

     27   S      52             5.4471780    0.156284978695
     27   S      53             0.8245472    0.904690876670

     28   S      54             0.1831916    1.000000000000

 H         

     29   S      55             5.4471780    0.156284978695
     29   S      56             0.8245472    0.904690876670

     30   S      57             0.1831916    1.000000000000

 H         

     31   S      58             5.4471780    0.156284978695
     31   S      59             0.8245472    0.904690876670

     32   S      60             0.1831916    1.000000000000

 H         

     33   S      61             5.4471780    0.156284978695
     33   S      62             0.8245472    0.904690876670

     34   S      63             0.1831916    1.000000000000

 H         

     35   S      64             5.4471780    0.156284978695
     35   S      65             0.8245472    0.904690876670

     36   S      66             0.1831916    1.000000000000

 H         

     37   S      67             5.4471780    0.156284978695
     37   S      68             0.8245472    0.904690876670

     38   S      69             0.1831916    1.000000000000

 H         

     39   S      70             5.4471780    0.156284978695
     39   S      71             0.8245472    0.904690876670

     40   S      72             0.1831916    1.000000000000

 H         

     41   S      73             5.4471780    0.156284978695
     41   S      74             0.8245472    0.904690876670

     42   S      75             0.1831916    1.000000000000

 H         

     43   S      76             5.4471780    0.156284978695
     43   S      77             0.8245472    0.904690876670

     44   S      78             0.1831916    1.000000000000

 TOTAL NUMBER OF BASIS SET SHELLS             =   44
 NUMBER OF CARTESIAN GAUSSIAN BASIS FUNCTIONS =   92
 NUMBER OF ELECTRONS                          =   58
 CHARGE OF MOLECULE                           =    0
 SPIN MULTIPLICITY                            =    1
 NUMBER OF OCCUPIED ORBITALS (ALPHA)          =   29
 NUMBER OF OCCUPIED ORBITALS (BETA )          =   29
 TOTAL NUMBER OF ATOMS                        =   18
 THE NUCLEAR REPULSION ENERGY IS      339.2580440202

 SELECTED MURRAY-HANDY-LAMING RADIAL GRID

 LEGACY BECKE'S FUZZY CELL METHOD

 SELECTED ORIGINAL BECKE'S PARTITION FUNCTION

     LEBEDEV GRID-BASED DFT OPTIONS
     ------------------------------
     DFTTYP=B3LYP   
     NRAD  =      96     NLEB  =     302
     NRAD0 =      24     NLEB0 =     110
     SWOFF =    5.00E-03 (PURE SCF -> DFT)
     SWITCH=    3.00E-04 (COARSE -> TIGHT GRID)
     THRESH=    0.00E+00 GTHRE=    1.00E+00

 GRIMME'S EMPIRICAL DISPERSION CORRECTION= F

     $CONTRL OPTIONS
     ---------------
 SCFTYP=RHF          RUNTYP=ENERGY       EXETYP=RUN     
 MPLEVL=       0     CITYP =NONE         CCTYP =NONE         VBTYP =NONE    
 DFTTYP=B3LYP        TDDFT =NONE    
 MULT  =       1     ICHARG=       0     NZVAR =       0     COORD =UNIQUE  
 PP    =NONE         RELWFN=NONE         LOCAL =NONE         NUMGRD=       F
 ISPHER=      -1     NOSYM =       0     MAXIT =      60     UNITS =ANGS    
 PLTORB=       F     MOLPLT=       F     AIMPAC=       F     FRIEND=        
 NPRINT=       7     IREST =       0     GEOM  =INPUT   
 NORMF =       0     NORMP =       0     ITOL  =      20     ICUT  =       9
 INTTYP=BEST         GRDTYP=BEST         QMTTOL= 1.0E-06

     $SYSTEM OPTIONS
     ---------------
  REPLICATED MEMORY=    30000000 WORDS (ON EVERY NODE).
 DISTRIBUTED MEMDDI=        1000 MILLION WORDS IN AGGREGATE,
 MEMDDI DISTRIBUTED OVER   6 PROCESSORS IS   166666666 WORDS/PROCESSOR.
 TOTAL MEMORY REQUESTED ON EACH PROCESSOR=   196666666 WORDS.
 TIMLIM=      525600.00 MINUTES, OR     365.0 DAYS.
 PARALL= T  BALTYP=  DLB     KDIAG=    0  COREFL= F
 MXSEQ2=     300 MXSEQ3=     150  mem10=         0

     INPUT FOR POTENTIAL-DERIVED CHARGES 
     -----------------------------------
     VDWSCL=    1.40   RMAX=    3.00   DELR=    0.80
     VDWINC=    0.20 PTDENS=    0.28
     LAYER =       4  NFREQ=      30 MAXPDC=   10000
     CONSTR=CHARGE    UNITS=ANGS      PTSEL=GEODESIC
     CENTER=  0.0000  0.0000  0.0000
     DPOLE =  0.0000  0.0000  0.0000
     QPOLE =  0.0000  0.0000  0.0000  0.0000  0.0000  0.0000


          ----------------
          PROPERTIES INPUT
          ----------------

     MOMENTS            FIELD           POTENTIAL          DENSITY
 IEMOM =       1   IEFLD =       0   IEPOT =       1   IEDEN =       0
 WHERE =COMASS     WHERE =NUCLEI     WHERE =PDC        WHERE =NUCLEI  
 OUTPUT=BOTH       OUTPUT=BOTH       OUTPUT=BOTH       OUTPUT=BOTH    
 IEMINT=       0   IEFINT=       0                     IEDINT=       0
                                                       MORB  =       0
          EXTRAPOLATION IN EFFECT
          DIIS IN EFFECT
 ORBITAL PRINTING OPTION: NPREO=     1    92     2     1

     -------------------------------
     INTEGRAL TRANSFORMATION OPTIONS
     -------------------------------
     NWORD  =            0
     CUTOFF = 1.0E-09     MPTRAN =       0
     DIRTRF =       T     AOINTS =DUP     

          ----------------------
          INTEGRAL INPUT OPTIONS
          ----------------------
 NOPK  =       1 NORDER=       0 SCHWRZ=       T

     ------------------------------------------
     THE POINT GROUP IS C1 , NAXIS= 0, ORDER= 1
     ------------------------------------------

     DIMENSIONS OF THE SYMMETRY SUBSPACES ARE
 A   =   92

 ..... DONE SETTING UP THE RUN .....
 CPU     0: STEP CPU TIME=     0.02 TOTAL CPU TIME=          0.0 (      0.0 MIN)
 TOTAL WALL CLOCK TIME=          0.0 SECONDS, CPU UTILIZATION IS    50.00%

          ********************
          1 ELECTRON INTEGRALS
          ********************
 ...... END OF ONE-ELECTRON INTEGRALS ......
 CPU     0: STEP CPU TIME=     0.02 TOTAL CPU TIME=          0.0 (      0.0 MIN)
 TOTAL WALL CLOCK TIME=          0.0 SECONDS, CPU UTILIZATION IS    80.00%

          -------------
          GUESS OPTIONS
          -------------
          GUESS =HUCKEL            NORB  =       0          NORDER=       0
          MIX   =       F          PRTMO =       F          PUNMO =       F
          TOLZ  = 1.0E-08          TOLE  = 1.0E-05
          SYMDEN=       F          PURIFY=       F

 INITIAL GUESS ORBITALS GENERATED BY HUCKEL   ROUTINE.
 HUCKEL GUESS REQUIRES     84630 WORDS.

 SYMMETRIES FOR INITIAL GUESS ORBITALS FOLLOW.   BOTH SET(S).
    29 ORBITALS ARE OCCUPIED (    8 CORE ORBITALS).
     9=A       10=A       11=A       12=A       13=A       14=A       15=A   
    16=A       17=A       18=A       19=A       20=A       21=A       22=A   
    23=A       24=A       25=A       26=A       27=A       28=A       29=A   
    30=A       31=A       32=A       33=A       34=A       35=A       36=A   
    37=A       38=A       39=A   
 ...... END OF INITIAL ORBITAL SELECTION ......
 CPU     0: STEP CPU TIME=     0.02 TOTAL CPU TIME=          0.1 (      0.0 MIN)
 TOTAL WALL CLOCK TIME=          0.1 SECONDS, CPU UTILIZATION IS    85.71%

                    ----------------------
                    AO INTEGRAL TECHNOLOGY
                    ----------------------
     S,P,L SHELL ROTATED AXIS INTEGRALS, REPROGRAMMED BY
        KAZUYA ISHIMURA (IMS) AND JOSE SIERRA (SYNSTAR).
     S,P,D,L SHELL ROTATED AXIS INTEGRALS PROGRAMMED BY
        KAZUYA ISHIMURA (INSTITUTE FOR MOLECULAR SCIENCE).
     S,P,D,F,G SHELL TO TOTAL QUARTET ANGULAR MOMENTUM SUM 5,
        ERIC PROGRAM BY GRAHAM FLETCHER (ELORET AND NASA ADVANCED
        SUPERCOMPUTING DIVISION, AMES RESEARCH CENTER).
     S,P,D,F,G,L SHELL GENERAL RYS QUADRATURE PROGRAMMED BY
        MICHEL DUPUIS (PACIFIC NORTHWEST NATIONAL LABORATORY).

          --------------------
          2 ELECTRON INTEGRALS
          --------------------

 DIRECT SCF METHOD SKIPS INTEGRAL STORAGE ON DISK.
 DIRECT TRANSFORMATION SKIPS AO INTEGRAL STORAGE ON DISK.
  ...... END OF TWO-ELECTRON INTEGRALS .....
 CPU     0: STEP CPU TIME=     0.02 TOTAL CPU TIME=          0.1 (      0.0 MIN)
 TOTAL WALL CLOCK TIME=          0.1 SECONDS, CPU UTILIZATION IS    88.89%

          --------------------------
             R-B3LYP SCF CALCULATION
          --------------------------

     NUCLEAR ENERGY =       339.2580440202
     MAXIT =   60     NPUNCH=    2
     EXTRAP=T  DAMP=F  SHIFT=F  RSTRCT=F  DIIS=T  DEM=F  SOSCF=F
         DENSITY MATRIX CONVERGENCE THRESHOLD=  2.00E-05
     COARSE -> FINE DFT GRID SWITCH THRESHOLD=  3.00E-04 (SWITCH IN $DFT)
                   HF -> DFT SWITCH THRESHOLD=  5.00E-03 (SWOFF IN $DFT)
     MEMORY REQUIRED FOR RHF ITERS=    702793 WORDS.

 DIRECT SCF CALCULATION, SCHWRZ=T   FDIFF=T,  DIRTHR=  0.00E+00 NITDIR=10
 SCHWARZ INEQUALITY OVERHEAD:      4159 INTEGRALS, T=        0.00

 DFT CODE IS SWITCHING FROM THE FINE GRID NRAD= 96,  NLEB=  302
                      TO THE COARSE GRID NRAD0= 24, NLEB0=  110

     EXCHANGE FUNCTIONAL   =B88&HFX   
     CORRELATION FUNCTIONAL=LYP88&VWN5
     DFT THRESHOLD         =.766E-08
     GRID CHANGE THRESHOLD =.300E-03
 FOR AN EULER-MACLAURIN QUADRATURE USING  96 RADIAL POINTS:
 SMALLEST GAUSSIAN PRIMITIVE EXPONENT=        0.1831915800 OF TYPE -S-
 ON ATOM NUMBER   2 HAS RADIAL NORMALIZATION=  1.000000
  LARGEST GAUSSIAN PRIMITIVE EXPONENT=      172.2560000000 OF TYPE -S-
 ON ATOM NUMBER   1 HAS RADIAL NORMALIZATION=  1.000000
 DFT IS SWITCHED OFF, PERFORMING PURE SCF UNTIL SWOFF THRESHOLD IS REACHED.

                                                                                   NONZERO     BLOCKS
 ITER EX DEM     TOTAL ENERGY        E CHANGE  DENSITY CHANGE    DIIS ERROR      INTEGRALS    SKIPPED
   1  0  0     -306.4887395158  -306.4887395158   0.510039114   0.513864091        7008844     186338
          * * *   INITIATING DIIS PROCEDURE   * * *
   2  1  0     -307.0345700953    -0.5458305795   0.093746253   0.082668597        6988956     193028
   3  2  0     -307.0553534537    -0.0207833583   0.043074388   0.016709939        6910905     207249
   4  3  0     -307.0575485600    -0.0021951063   0.010209817   0.006093329        6788701     222697
   5  4  0     -307.0578779913    -0.0003294314   0.003814737   0.002624322        6669899     232535
 CONVERGED TO SWOFF, SO DFT CALCULATION IS NOW SWITCHED ON.
          * * *   INITIATING DIIS PROCEDURE   * * *
   6  5  0     -308.9405744952    -1.8826965039   0.121795864   0.088485295        7011982     184889
   7  6  0     -308.9620178666    -0.0214433714   0.034764123   0.026343600        6962341     200239
   8  7  0     -308.9648877586    -0.0028698921   0.018613048   0.019534714        6869227     211743
   9  8  0     -308.9673897911    -0.0025020325   0.004830534   0.004323155        6771691     222518
  10  9  0     -308.9674360091    -0.0000462180   0.001187187   0.001459464        6504845     245873
  11 10  0     -308.9674415969    -0.0000055878   0.000328154   0.000434509        6263779     264290
  12 11  0     -308.9674420940    -0.0000004971   0.000068333   0.000067805        5984067     280014
 DFT CODE IS SWITCHING BACK TO THE FINE GRID
          * * *   INITIATING DIIS PROCEDURE   * * *
  13 12  0     -308.9688007368    -0.0013586428   0.001534966   0.002808255        7014813     183399
  14 13  0     -308.9688141066    -0.0000133698   0.000307059   0.000234014        6493873     245309
  15 14  0     -308.9688141999    -0.0000000933   0.000315644   0.000138954        6024321     276009
  16 15  0     -308.9688143669    -0.0000001670   0.000096169   0.000078032        5891703     283728
  17 16  0     -308.9688143836    -0.0000000167   0.000026504   0.000025558        5570438     304179
  18 17  0     -308.9688143861    -0.0000000025   0.000003970   0.000003461        5247973     320741
  19 18  0     -308.9688143863    -0.0000000003   0.000001861   0.000001287        4572963     352235

          -----------------
          DENSITY CONVERGED
          -----------------
     TIME TO FORM FOCK OPERATORS=      16.6 SECONDS (       0.9 SEC/ITER)
     FOCK TIME ON FIRST ITERATION=       0.1, LAST ITERATION=       2.1
     TIME TO SOLVE SCF EQUATIONS=       0.3 SECONDS (       0.0 SEC/ITER)

 FINAL R-B3LYP ENERGY IS     -308.9688143863 AFTER  19 ITERATIONS
 DFT EXCHANGE + CORRELATION ENERGY =       -37.8094689594
 TOTAL ELECTRON NUMBER             =        58.0005693677

          ------------
          EIGENVECTORS
          ------------

                      1          2          3          4          5
                  -10.1282   -10.1211   -10.1208   -10.1193   -10.1188
                     A          A          A          A          A   
    1  C  1  S   -0.014879   0.001059   0.000025  -0.025754   0.001938
    2  C  1  S   -0.004553   0.000358   0.000008  -0.005748   0.000416
    3  C  1  X   -0.001878  -0.000020   0.000004   0.000467   0.000097
    4  C  1  Y    0.000021   0.000005  -0.000107  -0.000092  -0.000005
    5  C  1  Z    0.000015  -0.000003  -0.000023   0.000339   0.000014
    6  C  1  S    0.008529  -0.001574   0.000026   0.026739  -0.001671
    7  C  1  X    0.008300  -0.000847  -0.000031   0.008757  -0.001071
    8  C  1  Y   -0.000236   0.000072   0.001246  -0.002955   0.000276
    9  C  1  Z    0.000815  -0.000529   0.000360   0.010152  -0.000957
   10  H  2  S   -0.001184   0.000119   0.000159  -0.001529   0.000199
   11  H  2  S   -0.001190   0.000006   0.000443  -0.000093  -0.000248
   12  C  3  S   -0.025257  -0.031429  -0.000737   0.971233  -0.070176
   13  C  3  S   -0.003256  -0.004255  -0.000098   0.114472  -0.008090
   14  C  3  X   -0.000218  -0.000453  -0.000030   0.000200   0.000045
   15  C  3  Y    0.000103  -0.000087   0.000314   0.000099  -0.000010
   16  C  3  Z   -0.000253   0.000222   0.000095  -0.000347   0.000020
   17  C  3  S    0.008801  -0.001367  -0.000303  -0.109184   0.004882
   18  C  3  X    0.008863  -0.001445  -0.000088  -0.006878  -0.001105
   19  C  3  Y   -0.001209   0.000533  -0.003530  -0.002187   0.000165
   20  C  3  Z    0.003205  -0.000841  -0.000925   0.008330  -0.000498
   21  C  4  S    0.981873  -0.020936  -0.001389   0.008890  -0.036064
   22  C  4  S    0.111620  -0.000009  -0.000003   0.000862  -0.001748
   23  C  4  X    0.000107  -0.000039   0.000004   0.001196   0.000378
   24  C  4  Y    0.000148  -0.000022   0.000173   0.000159   0.000014
   25  C  4  Z   -0.000581   0.000041   0.000041  -0.000553  -0.000055
   26  C  4  S   -0.110855  -0.035670  -0.002210   0.006619  -0.016958
   27  C  4  X   -0.015498  -0.022364  -0.001429  -0.029404  -0.009136
   28  C  4  Y   -0.001195  -0.001995   0.007738  -0.001908  -0.000589
   29  C  4  Z    0.005480   0.006132   0.002297   0.006994   0.002489
   30  C  5  S   -0.063085  -0.161843   0.161034  -0.121060  -0.317601
   31  C  5  S   -0.011534  -0.022099   0.020533  -0.014382  -0.036159
   32  C  5  X    0.000738  -0.001290   0.001235   0.000843  -0.001734
   33  C  5  Y    0.001867   0.000453  -0.000364   0.000324   0.000180
   34  C  5  Z    0.000237   0.000487  -0.000432  -0.000043   0.000542
   35  C  5  S    0.041603   0.060670  -0.033681   0.016620   0.034290
   36  C  5  X   -0.003638   0.021394  -0.009849  -0.000223   0.007926
   37  C  5  Y   -0.022306  -0.020565   0.006313  -0.008617  -0.005024
   38  C  5  Z   -0.004725  -0.011210   0.004332  -0.002263  -0.003471
   39  C  6  S   -0.001171   0.661819  -0.638203  -0.006509   0.179656
   40  C  6  S    0.000330   0.076893  -0.071497  -0.000839   0.017905
   41  C  6  X    0.000683  -0.000867   0.000425   0.000208  -0.001303
   42  C  6  Y    0.000052  -0.001172   0.001557   0.000037   0.001225
   43  C  6  Z   -0.000188  -0.000029   0.000243  -0.000120   0.000679
   44  C  6  S   -0.012078  -0.103747   0.059356  -0.002897  -0.004949
   45  C  6  X    0.002703   0.017070  -0.006956  -0.000164   0.010528
   46  C  6  Y    0.009083   0.034565  -0.010809   0.001724  -0.007978
   47  C  6  Z    0.001539   0.003394  -0.000549   0.000749  -0.005011
   48  C  7  S   -0.006999  -0.389711  -0.027108  -0.007665   0.835232
   49  C  7  S   -0.001722  -0.049749  -0.003395  -0.001013   0.091120
   50  C  7  X    0.000216   0.002167   0.000134  -0.000021  -0.001049
   51  C  7  Y    0.000008   0.000050   0.001518  -0.000012  -0.000063
   52  C  7  Z   -0.000043  -0.000617   0.000327   0.000005   0.000295
   53  C  7  S    0.014082   0.096746   0.006176   0.003676  -0.063438
   54  C  7  X   -0.007749  -0.041658  -0.002589  -0.000961   0.008257
   55  C  7  Y   -0.000498  -0.001794  -0.015334   0.000100   0.000488
   56  C  7  Z    0.002019   0.011655  -0.002949   0.000149  -0.002282
   57  C  8  S   -0.001112   0.579498   0.711111  -0.009002   0.184175
   58  C  8  S    0.000343   0.067657   0.080039  -0.001084   0.018402
   59  C  8  X    0.000684  -0.000811  -0.000518   0.000204  -0.001307
   60  C  8  Y    0.000044   0.000868   0.001632   0.000016  -0.001391
   61  C  8  Z   -0.000194   0.000445   0.000552  -0.000130   0.000050
   62  C  8  S   -0.012109  -0.095828  -0.071510  -0.002978  -0.005327
   63  C  8  X    0.002688   0.016068   0.008916   0.000138   0.010564
   64  C  8  Y   -0.008863  -0.030915  -0.013871  -0.001720   0.009294
   65  C  8  Z   -0.002761  -0.012097  -0.005960  -0.000135  -0.000856
   66  C  9  S   -0.063188  -0.143069  -0.180535  -0.123356  -0.317780
   67  C  9  S   -0.011559  -0.019657  -0.023164  -0.014656  -0.036194
   68  C  9  X    0.000741  -0.001131  -0.001367   0.000831  -0.001743
   69  C  9  Y   -0.001780  -0.000558  -0.000585  -0.000271  -0.000405
   70  C  9  Z   -0.000626   0.000196   0.000241  -0.000156   0.000400
   71  C  9  S    0.041736   0.056239   0.040871   0.016809   0.034410
   72  C  9  X   -0.003644   0.020120   0.012356   0.000193   0.007996
   73  C  9  Y    0.022122   0.022255   0.010412   0.008512   0.006077
   74  C  9  Z    0.005960  -0.000486  -0.001021   0.001676  -0.000797
   75  H 10  S   -0.000700  -0.000099   0.000488   0.001034   0.000019
   76  H 10  S   -0.000514   0.000017   0.000726   0.015381  -0.001127
   77  H 11  S   -0.000672  -0.000042  -0.000498   0.001041   0.000017
   78  H 11  S   -0.000888   0.000195  -0.000666   0.015428  -0.001096
   79  H 12  S   -0.000316   0.001038  -0.000157   0.000425   0.000773
   80  H 12  S    0.002806   0.004706  -0.000306   0.000598  -0.001409
   81  H 13  S   -0.000581  -0.002396   0.001602  -0.000046  -0.000697
   82  H 13  S   -0.001523   0.000113  -0.004658   0.000043   0.003098
   83  H 14  S    0.000182   0.001462   0.000098  -0.000090  -0.002191
   84  H 14  S    0.001834   0.005040   0.000267  -0.000006   0.008482
   85  H 15  S   -0.000587  -0.002182  -0.001873  -0.000030  -0.000709
   86  H 15  S   -0.001544  -0.000457   0.004572   0.000023   0.003134
   87  H 16  S   -0.000322   0.001018   0.000286   0.000477   0.000772
   88  H 16  S    0.002838   0.004603   0.000873   0.000394  -0.001390
   89  H 17  S    0.000014   0.000035  -0.000006  -0.001152   0.000061
   90  H 17  S    0.003875  -0.000208  -0.000025  -0.000455  -0.000317
   91  H 18  S   -0.001096   0.000132  -0.000150  -0.001508   0.000202
   92  H 18  S   -0.001454   0.000078  -0.000458  -0.000097  -0.000253

                      6          7          8          9         10
                  -10.1183   -10.1178   -10.1068    -0.8535    -0.7809
                     A          A          A          A          A   
    1  C  1  S   -0.000204  -0.006103   0.985835  -0.020222  -0.094149
    2  C  1  S   -0.000036  -0.001077   0.112030   0.022386   0.095402
    3  C  1  X   -0.000025  -0.000382   0.000223   0.012519   0.029589
    4  C  1  Y   -0.000016   0.000046  -0.000004  -0.002517  -0.008788
    5  C  1  Z    0.000004  -0.000174   0.000007   0.008696   0.030615
    6  C  1  S    0.000065   0.002663  -0.089268   0.036107   0.216500
    7  C  1  X    0.000067   0.001765  -0.003280  -0.007908  -0.008655
    8  C  1  Y    0.000299  -0.000562   0.000865   0.000975   0.000475
    9  C  1  Z    0.000100   0.002074  -0.002989  -0.003407  -0.001130
   10  H  2  S    0.000232  -0.000327  -0.000188   0.010123   0.046013
   11  H  2  S   -0.000286   0.000639   0.016313  -0.000097   0.000546
   12  C  3  S   -0.000265   0.153250   0.025498  -0.047960  -0.136066
   13  C  3  S   -0.000030   0.015872   0.001280   0.045918   0.126541
   14  C  3  X   -0.000003  -0.000204  -0.000569   0.026138   0.016527
   15  C  3  Y   -0.000284  -0.000005  -0.000061   0.002467   0.007393
   16  C  3  Z   -0.000066   0.000071   0.000228  -0.010049  -0.027401
   17  C  3  S    0.000112  -0.001788   0.010761   0.108971   0.367892
   18  C  3  X    0.000112   0.007126  -0.009920  -0.001687   0.015568
   19  C  3  Y   -0.002590   0.000071   0.002733   0.001967   0.004827
   20  C  3  Z   -0.000636  -0.000589  -0.009581  -0.006237  -0.017174
   21  C  4  S    0.000839   0.081647   0.014999  -0.111329  -0.090585
   22  C  4  S    0.000035   0.003414  -0.000976   0.120238   0.097028
   23  C  4  X   -0.000039  -0.002712   0.001686   0.044506  -0.059394
   24  C  4  Y   -0.002590  -0.000128  -0.000123   0.003354  -0.001851
   25  C  4  Z   -0.000617   0.000675   0.000281  -0.013854   0.009636
   26  C  4  S    0.000439   0.036664   0.007019   0.204950   0.187031
   27  C  4  X    0.000431   0.028445  -0.007770   0.002908   0.012218
   28  C  4  Y    0.020963   0.001621   0.000134   0.000520   0.000825
   29  C  4  Z    0.004948  -0.007676   0.000821  -0.002085  -0.003601
   30  C  5  S    0.682670   0.578600   0.000471  -0.097851  -0.011370
   31  C  5  S    0.075564   0.062707   0.000112   0.106766   0.012272
   32  C  5  X   -0.000043  -0.000084  -0.000283   0.019757  -0.063438
   33  C  5  Y   -0.001424   0.000426   0.000060  -0.051194  -0.025550
   34  C  5  Z   -0.000328   0.000137  -0.000051  -0.018338   0.011160
   35  C  5  S   -0.060216  -0.060506   0.001789   0.186163   0.024305
   36  C  5  X   -0.000838  -0.008357   0.004425   0.012250  -0.007791
   37  C  5  Y    0.011294   0.015096  -0.000596  -0.013325   0.006319
   38  C  5  Z    0.002940   0.005961  -0.000423  -0.006467   0.002528
   39  C  6  S    0.172874   0.254623   0.000432  -0.089880   0.067857
   40  C  6  S    0.016480   0.022831   0.000110   0.099283  -0.071990
   41  C  6  X    0.001095   0.000868   0.000148  -0.029476  -0.020024
   42  C  6  Y   -0.000071   0.001348   0.000090  -0.048712   0.039219
   43  C  6  Z   -0.000333   0.000076   0.000023  -0.003121   0.015059
   44  C  6  S    0.003437   0.017748  -0.003324   0.156596  -0.148548
   45  C  6  X   -0.009557  -0.011489   0.001431  -0.001155   0.007132
   46  C  6  Y   -0.003241  -0.014958  -0.000056  -0.007441   0.009665
   47  C  6  Z    0.001992  -0.000253  -0.000874  -0.001575   0.000343
   48  C  7  S    0.005039   0.349267   0.000631  -0.088032   0.096179
   49  C  7  S    0.000546   0.036576   0.000003   0.096218  -0.103248
   50  C  7  X    0.000006   0.001159   0.000090  -0.054232   0.034257
   51  C  7  Y   -0.001662   0.000095   0.000012  -0.003574   0.002419
   52  C  7  Z   -0.000403  -0.000306  -0.000057   0.014957  -0.009489
   53  C  7  S   -0.000578  -0.033968  -0.000074   0.164824  -0.204631
   54  C  7  X    0.000192   0.009622  -0.000762  -0.015710   0.007230
   55  C  7  Y    0.004664   0.000556  -0.000136  -0.001118   0.000435
   56  C  7  Z    0.001072  -0.002690   0.000496   0.004446  -0.002200
   57  C  8  S   -0.168614   0.261562   0.000383  -0.089867   0.068177
   58  C  8  S   -0.016143   0.023552   0.000106   0.099246  -0.072369
   59  C  8  X   -0.001075   0.000886   0.000146  -0.029345  -0.019925
   60  C  8  Y   -0.000243  -0.001223  -0.000093   0.044887  -0.041764
   61  C  8  Z    0.000252  -0.000551  -0.000010   0.019398  -0.004488
   62  C  8  S   -0.002721   0.017479  -0.003259   0.156736  -0.148950
   63  C  8  X    0.009248  -0.011598   0.001373  -0.001343   0.006788
   64  C  8  Y   -0.001580   0.013437   0.000403   0.007331  -0.008835
   65  C  8  Z   -0.003066   0.006629  -0.000802   0.002012  -0.004019
   66  C  9  S   -0.669065   0.592910   0.000207  -0.097793  -0.010892
   67  C  9  S   -0.074072   0.064267   0.000082   0.106723   0.011804
   68  C  9  X    0.000034  -0.000092  -0.000311   0.019903  -0.063328
   69  C  9  Y   -0.001424  -0.000412  -0.000012   0.053861   0.017735
   70  C  9  Z   -0.000358  -0.000058  -0.000106   0.007014   0.021608
   71  C  9  S    0.058645  -0.061579   0.002087   0.185831   0.022697
   72  C  9  X    0.000613  -0.008330   0.004248   0.012061  -0.008086
   73  C  9  Y    0.010924  -0.016321   0.000848   0.014764  -0.006839
   74  C  9  Z    0.002495  -0.001656   0.000102   0.000429  -0.000498
   75  H 10  S    0.000184  -0.000510  -0.001087   0.019706   0.062363
   76  H 10  S    0.000305   0.002707   0.002178  -0.003238  -0.000633
   77  H 11  S   -0.000202  -0.000512  -0.001101   0.019799   0.062458
   78  H 11  S   -0.000280   0.002668   0.002191  -0.002829  -0.000213
   79  H 12  S   -0.001694  -0.002377   0.000565   0.034464   0.010923
   80  H 12  S    0.006147   0.004086   0.000314  -0.000126   0.003598
   81  H 13  S   -0.000522  -0.000719   0.000103   0.030232  -0.029377
   82  H 13  S    0.003841   0.008576   0.000138  -0.005003  -0.005208
   83  H 14  S   -0.000024  -0.001758   0.000107   0.029638  -0.041964
   84  H 14  S    0.000035   0.003694   0.000310  -0.002307  -0.003838
   85  H 15  S    0.000511  -0.000739   0.000098   0.030217  -0.029517
   86  H 15  S   -0.003642   0.008674   0.000124  -0.004975  -0.005184
   87  H 16  S    0.001638  -0.002411   0.000525   0.034417   0.010621
   88  H 16  S   -0.006080   0.004215   0.000412  -0.000097   0.003606
   89  H 17  S   -0.000003  -0.000194  -0.000219   0.007317   0.042026
   90  H 17  S    0.000039   0.000924   0.015229  -0.006377  -0.005199
   91  H 18  S   -0.000251  -0.000332  -0.000207   0.010129   0.046003
   92  H 18  S    0.000277   0.000613   0.016355   0.000074   0.000684

                     11         12         13         14         15
                   -0.7396    -0.7165    -0.6281    -0.6024    -0.5735
                     A          A          A          A          A   
    1  C  1  S   -0.000440  -0.126783  -0.129420  -0.001744   0.047936
    2  C  1  S    0.000407   0.121468   0.119544   0.001564  -0.045220
    3  C  1  X    0.000151   0.004458  -0.047154  -0.001557   0.019745
    4  C  1  Y    0.002846  -0.005323   0.016535  -0.015214  -0.018204
    5  C  1  Z    0.000736   0.018992  -0.056266  -0.004717   0.065333
    6  C  1  S    0.001280   0.349366   0.432965   0.006152  -0.176664
    7  C  1  X    0.000161   0.002943  -0.003503  -0.000645   0.005990
    8  C  1  Y    0.001065  -0.001395   0.003734  -0.004622  -0.007984
    9  C  1  Z    0.000279   0.005409  -0.012736  -0.001198   0.028727
   10  H  2  S   -0.001160   0.065731   0.089269   0.008618  -0.049043
   11  H  2  S   -0.001625   0.004487   0.025645   0.008293  -0.021406
   12  C  3  S    0.000227  -0.072046   0.101170   0.000529  -0.081984
   13  C  3  S   -0.000225   0.067495  -0.092084  -0.000412   0.076722
   14  C  3  X   -0.000239  -0.067930  -0.077846  -0.002078  -0.044555
   15  C  3  Y    0.015385   0.008672   0.020418  -0.051946  -0.018148
   16  C  3  Z    0.003611  -0.028493  -0.067589  -0.013454   0.068370
   17  C  3  S   -0.000611   0.216097  -0.351660  -0.002087   0.294696
   18  C  3  X   -0.000089  -0.002399  -0.027056  -0.000644  -0.020876
   19  C  3  Y    0.007903   0.001306   0.004656  -0.040349  -0.008151
   20  C  3  Z    0.001967  -0.005231  -0.013387  -0.010117   0.031095
   21  C  4  S    0.000478   0.088152   0.047709   0.001535   0.088833
   22  C  4  S   -0.000504  -0.091554  -0.048032  -0.001561  -0.093736
   23  C  4  X    0.000103  -0.081139   0.101180   0.000650  -0.084459
   24  C  4  Y    0.102057  -0.002941   0.012961  -0.186190  -0.007410
   25  C  4  Z    0.024588   0.013419  -0.042036  -0.045411   0.036432
   26  C  4  S   -0.001086  -0.220110  -0.137378  -0.004818  -0.282374
   27  C  4  X    0.000004   0.015583   0.021372   0.000327  -0.031438
   28  C  4  Y    0.012013   0.000778   0.003610  -0.066975  -0.004233
   29  C  4  Z    0.002897  -0.004111  -0.014213  -0.016372   0.019843
   30  C  5  S   -0.119773   0.069329  -0.052129   0.089338  -0.024817
   31  C  5  S    0.127383  -0.073153   0.053855  -0.092590   0.025463
   32  C  5  X    0.052339   0.034912   0.057815   0.107494   0.091217
   33  C  5  Y    0.010969   0.045550   0.029096   0.014373   0.143836
   34  C  5  Z   -0.012418  -0.000796  -0.013324  -0.027999   0.012276
   35  C  5  S    0.278589  -0.182377   0.149205  -0.278155   0.076505
   36  C  5  X    0.005481  -0.016477   0.017292   0.036080   0.020230
   37  C  5  Y   -0.001705   0.018749   0.002830   0.013809   0.063998
   38  C  5  Z   -0.002056   0.005938  -0.009602  -0.007252   0.012827
   39  C  6  S   -0.119379  -0.040342  -0.016152  -0.095200  -0.058585
   40  C  6  S    0.127244   0.042519   0.016140   0.099158   0.059832
   41  C  6  X   -0.053240   0.070461  -0.089014   0.090878  -0.064294
   42  C  6  Y    0.003531  -0.037524   0.042951   0.004995   0.112391
   43  C  6  Z    0.016476  -0.029851   0.035212  -0.025044   0.047143
   44  C  6  S    0.279502   0.112038   0.054159   0.293404   0.202234
   45  C  6  X   -0.007213   0.004888  -0.034182   0.028353  -0.030231
   46  C  6  Y   -0.002888  -0.006083   0.005895  -0.007548   0.046151
   47  C  6  Z    0.001560  -0.002042   0.012425  -0.009925   0.020159
   48  C  7  S   -0.000387  -0.108320   0.079253   0.001550   0.073036
   49  C  7  S    0.000410   0.115339  -0.082700  -0.001608  -0.075954
   50  C  7  X    0.000025  -0.007990  -0.032143  -0.000613  -0.021531
   51  C  7  Y    0.099067  -0.001073  -0.004205   0.173548  -0.003217
   52  C  7  Z    0.023898   0.002149   0.007916   0.042028   0.005867
   53  C  7  S    0.000916   0.261891  -0.233598  -0.004784  -0.237601
   54  C  7  X   -0.000017   0.002172  -0.004919   0.000030   0.011990
   55  C  7  Y    0.009037   0.000187  -0.000468   0.060269  -0.000123
   56  C  7  Z    0.002174  -0.001118   0.000183   0.014507  -0.003061
   57  C  8  S    0.118890  -0.041423  -0.019082   0.093713  -0.060052
   58  C  8  S   -0.126721   0.043664   0.019253  -0.097648   0.061312
   59  C  8  X    0.053586   0.070273  -0.087589  -0.094330  -0.062162
   60  C  8  Y    0.010806   0.046831  -0.054097  -0.009768  -0.121048
   61  C  8  Z   -0.013072  -0.009427   0.011380   0.024842  -0.009857
   62  C  8  S   -0.278341   0.114610   0.062145  -0.288195   0.207390
   63  C  8  X    0.007225   0.004867  -0.033075  -0.030003  -0.029897
   64  C  8  Y   -0.001869   0.006447  -0.010196  -0.012075  -0.050062
   65  C  8  Z   -0.002662   0.001005   0.008224   0.005697  -0.003163
   66  C  9  S    0.120130   0.068799  -0.050371  -0.090923  -0.022967
   67  C  9  S   -0.127772  -0.072543   0.052105   0.094238   0.023544
   68  C  9  X   -0.051787   0.035723   0.061348  -0.104100   0.092013
   69  C  9  Y    0.003921  -0.040354  -0.020151  -0.002193  -0.133571
   70  C  9  Z    0.015807  -0.021693  -0.026065   0.029810  -0.055029
   71  C  9  S   -0.279400  -0.181590   0.143399   0.282586   0.070336
   72  C  9  X   -0.005476  -0.016048   0.019933  -0.035410   0.019732
   73  C  9  Y   -0.002467  -0.019542   0.000871   0.008236  -0.062672
   74  C  9  Z    0.001001  -0.003432  -0.010719   0.012215  -0.017788
   75  H 10  S    0.005020   0.038555  -0.071119  -0.021501   0.079911
   76  H 10  S    0.003419   0.002179  -0.020305  -0.011784   0.035495
   77  H 11  S   -0.005555   0.038466  -0.071685   0.021937   0.079574
   78  H 11  S   -0.003743   0.001702  -0.020648   0.012504   0.035105
   79  H 12  S    0.063423  -0.035191   0.031752  -0.087967   0.056371
   80  H 12  S    0.012261  -0.010571   0.013096  -0.044178   0.031227
   81  H 13  S    0.062930   0.024141   0.010046   0.090296   0.078844
   82  H 13  S    0.012196   0.005476   0.006773   0.044852   0.041732
   83  H 14  S    0.000199   0.062741  -0.069775  -0.001507  -0.067222
   84  H 14  S    0.000038   0.013620  -0.031100  -0.000785  -0.039307
   85  H 15  S   -0.062658   0.024751   0.012492  -0.088892   0.080466
   86  H 15  S   -0.012150   0.005658   0.007886  -0.044121   0.042653
   87  H 16  S   -0.063633  -0.035011   0.029820   0.089379   0.054694
   88  H 16  S   -0.012299  -0.010690   0.011464   0.044864   0.030786
   89  H 17  S    0.000188   0.070062   0.093687   0.001699  -0.033757
   90  H 17  S    0.000021   0.012637   0.032549   0.000706  -0.010503
   91  H 18  S    0.001736   0.065770   0.089717  -0.006665  -0.048685
   92  H 18  S    0.001785   0.004302   0.025983  -0.008044  -0.021175

                     16         17         18         19         20
                   -0.5093    -0.4663    -0.4525    -0.4267    -0.4215
                     A          A          A          A          A   
    1  C  1  S   -0.011109   0.000407  -0.000465   0.003977   0.000011
    2  C  1  S    0.010382  -0.000310   0.002096  -0.002840  -0.000010
    3  C  1  X    0.014086   0.003607   0.100138   0.199362   0.007529
    4  C  1  Y    0.017128   0.115018   0.012200   0.006652   0.145663
    5  C  1  Z   -0.060182   0.032784  -0.061416  -0.071467   0.034580
    6  C  1  S    0.047126  -0.001791   0.002341  -0.023462  -0.000030
    7  C  1  X    0.013137   0.002223   0.065243   0.144007   0.005441
    8  C  1  Y    0.009233   0.081001   0.010810   0.005776   0.112007
    9  C  1  Z   -0.032783   0.022857  -0.050850  -0.056997   0.027129
   10  H  2  S    0.029596  -0.060016   0.035726   0.054227  -0.076601
   11  H  2  S    0.021807  -0.046034   0.022781   0.047091  -0.065631
   12  C  3  S    0.040813  -0.000461  -0.000330  -0.013010  -0.000156
   13  C  3  S   -0.034175   0.000383   0.000365   0.012293   0.000175
   14  C  3  X    0.093015   0.002276   0.133168   0.103438   0.007967
   15  C  3  Y    0.015172   0.188115   0.023138   0.024545   0.110714
   16  C  3  Z   -0.058998   0.049933  -0.100043  -0.132684   0.028284
   17  C  3  S   -0.179816   0.001868  -0.000625   0.052489   0.000587
   18  C  3  X    0.045715   0.001555   0.079701   0.084353   0.006100
   19  C  3  Y    0.010157   0.138925   0.014936   0.019661   0.086071
   20  C  3  Z   -0.037515   0.036865  -0.067641  -0.104821   0.021861
   21  C  4  S   -0.025965  -0.000224  -0.064023   0.036380   0.000647
   22  C  4  S    0.024104   0.000212   0.064258  -0.037674  -0.000678
   23  C  4  X   -0.086000  -0.000487  -0.084981  -0.191051  -0.008054
   24  C  4  Y   -0.002392   0.176290   0.003077   0.010212  -0.157849
   25  C  4  Z    0.010710   0.044238  -0.012160  -0.013228  -0.035337
   26  C  4  S    0.097486   0.001082   0.264678  -0.154482  -0.003053
   27  C  4  X   -0.081345  -0.000107  -0.034157  -0.111492  -0.004701
   28  C  4  Y   -0.003093   0.112090   0.005489   0.008417  -0.064023
   29  C  4  Z    0.012509   0.028163  -0.018772  -0.018425  -0.013799
   30  C  5  S   -0.021679   0.021000   0.055305  -0.004026   0.026625
   31  C  5  S    0.018208  -0.021200  -0.054606   0.002197  -0.029998
   32  C  5  X   -0.116394  -0.158669   0.035294  -0.010957  -0.008209
   33  C  5  Y    0.103811  -0.095589  -0.090184   0.126981   0.180746
   34  C  5  Z    0.054582   0.022860  -0.048665  -0.001151   0.045070
   35  C  5  S    0.103879  -0.083339  -0.228800   0.024893  -0.098390
   36  C  5  X   -0.053095  -0.089596   0.027426  -0.034633  -0.008024
   37  C  5  Y    0.065624  -0.048188  -0.035687   0.068187   0.120650
   38  C  5  Z    0.027575   0.013607  -0.029483  -0.003936   0.029016
   39  C  6  S    0.010702  -0.007767  -0.054898   0.002560   0.011152
   40  C  6  S   -0.014005   0.007155   0.054777   0.000161  -0.014590
   41  C  6  X    0.092411   0.185103   0.056832  -0.037916   0.020316
   42  C  6  Y    0.130357  -0.057658   0.110752  -0.128907   0.193946
   43  C  6  Z    0.003349  -0.067673   0.003309  -0.039091   0.040753
   44  C  6  S   -0.035696   0.035019   0.224441  -0.021031  -0.033278
   45  C  6  X    0.065780   0.094736   0.036134  -0.046424  -0.000159
   46  C  6  Y    0.088872  -0.030251   0.053798  -0.069339   0.134622
   47  C  6  Z    0.001876  -0.034654  -0.002237  -0.016591   0.032817
   48  C  7  S   -0.029490   0.000359   0.057916  -0.026581  -0.000623
   49  C  7  S    0.025958  -0.000348  -0.058034   0.029916   0.000778
   50  C  7  X    0.204970  -0.001010  -0.067487  -0.167136  -0.008327
   51  C  7  Y    0.014175   0.190924  -0.003167  -0.000968  -0.163906
   52  C  7  Z   -0.056555   0.046458   0.013943   0.034062  -0.037125
   53  C  7  S    0.127573  -0.001503  -0.241119   0.102381   0.002146
   54  C  7  X    0.115029  -0.000607  -0.027736  -0.114885  -0.005555
   55  C  7  Y    0.008004   0.105471  -0.000976  -0.001409  -0.060911
   56  C  7  Z   -0.032003   0.025724   0.003895   0.021045  -0.013083
   57  C  8  S    0.010953   0.006981  -0.054914   0.002488  -0.011972
   58  C  8  S   -0.014241  -0.006311   0.054795   0.000125   0.015614
   59  C  8  X    0.090782  -0.185027   0.056416  -0.045594  -0.020349
   60  C  8  Y   -0.118060  -0.082189  -0.100408   0.122650   0.199962
   61  C  8  Z   -0.056049   0.034253  -0.047371   0.023827   0.054288
   62  C  8  S   -0.036837  -0.032276   0.224612  -0.020024   0.035977
   63  C  8  X    0.065155  -0.094588   0.035691  -0.051638  -0.001834
   64  C  8  Y   -0.080190  -0.042616  -0.047366   0.062894   0.139110
   65  C  8  Z   -0.038716   0.017231  -0.026451   0.016824   0.033826
   66  C  9  S   -0.022222  -0.020226   0.055275  -0.002733  -0.025693
   67  C  9  S    0.018794   0.020472  -0.054627   0.000843   0.028924
   68  C  9  X   -0.116063   0.159760   0.035788  -0.002058   0.008020
   69  C  9  Y   -0.117248  -0.074481   0.102230  -0.119770   0.172886
   70  C  9  Z    0.001136  -0.063156  -0.002096  -0.063220   0.040545
   71  C  9  S    0.105560   0.080360  -0.227980   0.019679   0.095226
   72  C  9  X   -0.052487   0.090636   0.027106  -0.030415   0.005872
   73  C  9  Y   -0.071121  -0.036760   0.045580  -0.062829   0.115957
   74  C  9  Z   -0.005479  -0.033539  -0.009506  -0.036705   0.028774
   75  H 10  S   -0.057068   0.095650  -0.057298  -0.055701   0.062422
   76  H 10  S   -0.027469   0.071356  -0.056454  -0.048472   0.056616
   77  H 11  S   -0.056325  -0.097026  -0.054172  -0.043500  -0.066106
   78  H 11  S   -0.026245  -0.072770  -0.054711  -0.038022  -0.059937
   79  H 12  S    0.103801  -0.011898  -0.121908   0.074835   0.086365
   80  H 12  S    0.067915  -0.000525  -0.093931   0.062306   0.089812
   81  H 13  S    0.075901   0.027277   0.131835  -0.090663   0.109834
   82  H 13  S    0.050109   0.021146   0.098837  -0.078992   0.099178
   83  H 14  S    0.140685  -0.001107  -0.100171  -0.083503  -0.004982
   84  H 14  S    0.094836  -0.000795  -0.072743  -0.077876  -0.004505
   85  H 15  S    0.075390  -0.026273   0.131848  -0.087730  -0.114287
   86  H 15  S    0.049759  -0.020493   0.098799  -0.076459  -0.103365
   87  H 16  S    0.104126   0.010514  -0.121945   0.075268  -0.082001
   88  H 16  S    0.067825  -0.000398  -0.093799   0.063820  -0.085534
   89  H 17  S   -0.007725  -0.001924  -0.068707  -0.141936  -0.005330
   90  H 17  S   -0.009347  -0.001559  -0.058973  -0.123067  -0.004853
   91  H 18  S    0.030048   0.059964   0.030979   0.041969   0.083036
   92  H 18  S    0.022607   0.046086   0.018632   0.037362   0.071697

                     21         22         23         24         25
                   -0.4137    -0.3902    -0.3681    -0.3481    -0.3455
                     A          A          A          A          A   
    1  C  1  S   -0.000313   0.000347  -0.000653   0.002143   0.015812
    2  C  1  S    0.000209   0.001149   0.002381  -0.002195  -0.015906
    3  C  1  X    0.005559   0.184824  -0.144774  -0.006304  -0.081379
    4  C  1  Y    0.204484  -0.038537  -0.056157   0.207891   0.025077
    5  C  1  Z    0.049030   0.161869   0.227012   0.031957  -0.182037
    6  C  1  S    0.001994  -0.022928  -0.011336  -0.008155  -0.057967
    7  C  1  X    0.004074   0.141784  -0.112878  -0.003108  -0.053142
    8  C  1  Y    0.159395  -0.024750  -0.042683   0.164590   0.017398
    9  C  1  Z    0.038811   0.108709   0.173746   0.026597  -0.136405
   10  H  2  S   -0.108738  -0.042650  -0.116585  -0.124055   0.067926
   11  H  2  S   -0.089253  -0.040693  -0.110019  -0.132834   0.087774
   12  C  3  S    0.000353  -0.025207   0.008234   0.000968   0.008163
   13  C  3  S   -0.000230   0.021089  -0.004379  -0.000987  -0.007640
   14  C  3  X    0.009876  -0.174737  -0.019250   0.003427   0.054890
   15  C  3  Y    0.146076   0.051172   0.035350  -0.189837  -0.030902
   16  C  3  Z    0.040223  -0.166104  -0.137697  -0.024282   0.198495
   17  C  3  S   -0.001880   0.112942  -0.057430  -0.003050  -0.031556
   18  C  3  X    0.007580  -0.119474  -0.035688   0.001932   0.035514
   19  C  3  Y    0.114076   0.038460   0.027634  -0.143783  -0.027251
   20  C  3  Z    0.031314  -0.125596  -0.105849  -0.016632   0.165428
   21  C  4  S    0.000148   0.018358  -0.020602   0.000464   0.001474
   22  C  4  S   -0.000168  -0.016208   0.020204  -0.000378  -0.002861
   23  C  4  X   -0.007859   0.082215  -0.065369   0.000707  -0.014054
   24  C  4  Y   -0.046862   0.037146   0.020035  -0.117341   0.035357
   25  C  4  Z   -0.006751  -0.163892  -0.080293  -0.040378  -0.075993
   26  C  4  S   -0.001233  -0.072093   0.095244  -0.003619  -0.006571
   27  C  4  X   -0.004905   0.064122  -0.063260  -0.001851  -0.029401
   28  C  4  Y   -0.055588   0.029242   0.014985  -0.098387   0.031667
   29  C  4  Z   -0.010326  -0.128157  -0.061170  -0.034751  -0.073116
   30  C  5  S   -0.000120  -0.016893   0.010209  -0.007309   0.000965
   31  C  5  S    0.002523   0.019021  -0.010914   0.003045  -0.001151
   32  C  5  X    0.182615   0.047779  -0.125567  -0.036517  -0.031386
   33  C  5  Y   -0.060838  -0.027739   0.041236   0.120110   0.011615
   34  C  5  Z   -0.069808  -0.113694  -0.033394   0.014219  -0.138980
   35  C  5  S   -0.005975   0.061142  -0.037166   0.054407  -0.003538
   36  C  5  X    0.090645   0.036860  -0.085096  -0.041741  -0.027690
   37  C  5  Y   -0.059448  -0.009743   0.036028   0.086599   0.006861
   38  C  5  Z   -0.044652  -0.093374  -0.032889   0.003415  -0.123227
   39  C  6  S   -0.019198   0.014214  -0.008294   0.002631  -0.000349
   40  C  6  S    0.021626  -0.014698   0.008046  -0.000477  -0.000053
   41  C  6  X   -0.168615  -0.092380   0.087144   0.035396  -0.055383
   42  C  6  Y   -0.073038   0.059116  -0.008170  -0.133710   0.060223
   43  C  6  Z    0.030390  -0.024056  -0.098012  -0.069087  -0.160350
   44  C  6  S    0.077292  -0.056431   0.030972  -0.019036   0.002261
   45  C  6  X   -0.099256  -0.044509   0.043945   0.012063  -0.046942
   46  C  6  Y   -0.058719   0.027258   0.010527  -0.097293   0.051979
   47  C  6  Z    0.014627  -0.032822  -0.071581  -0.048370  -0.146746
   48  C  7  S   -0.000448   0.004524  -0.004847   0.000394   0.001042
   49  C  7  S    0.000604  -0.007325   0.007344  -0.000438  -0.001274
   50  C  7  X   -0.008784   0.162674  -0.172352  -0.003972  -0.044995
   51  C  7  Y   -0.050416   0.018872   0.003702   0.180463   0.022938
   52  C  7  Z   -0.009170  -0.098775  -0.017306   0.021734  -0.185756
   53  C  7  S    0.001558  -0.013229   0.014643  -0.001282  -0.002414
   54  C  7  X   -0.006028   0.115785  -0.135017  -0.003698  -0.041174
   55  C  7  Y   -0.055257   0.015585   0.004265   0.116573   0.025348
   56  C  7  Z   -0.011212  -0.077633  -0.018408   0.008885  -0.163183
   57  C  8  S    0.017873   0.014986  -0.008341  -0.002707  -0.000023
   58  C  8  S   -0.020110  -0.015435   0.008116   0.000408   0.000152
   59  C  8  X    0.170276  -0.084901   0.087213  -0.047033  -0.047441
   60  C  8  Y   -0.043857  -0.036093   0.052890  -0.143323   0.054603
   61  C  8  Z   -0.057901  -0.049046  -0.083426  -0.037940  -0.165171
   62  C  8  S   -0.072570  -0.060304   0.031095   0.020659  -0.000813
   63  C  8  X    0.098333  -0.039554   0.043969  -0.022724  -0.044466
   64  C  8  Y   -0.042419  -0.005880   0.024047  -0.102100   0.046075
   65  C  8  Z   -0.037861  -0.042157  -0.068426  -0.035705  -0.149344
   66  C  9  S    0.001647  -0.018227   0.010274   0.007653  -0.000158
   67  C  9  S   -0.004212   0.020267  -0.011035  -0.003534  -0.000985
   68  C  9  X   -0.184054   0.039082  -0.125497   0.029139  -0.036211
   69  C  9  Y   -0.093760   0.075165  -0.021611   0.125646   0.022758
   70  C  9  Z    0.034686  -0.085842  -0.049038   0.011027  -0.136622
   71  C  9  S    0.000576   0.066917  -0.037414  -0.055423   0.006559
   72  C  9  X   -0.093390   0.032597  -0.085123   0.033426  -0.035361
   73  C  9  Y   -0.077439   0.049616  -0.017140   0.091526   0.028434
   74  C  9  Z    0.013826  -0.077288  -0.046208   0.009663  -0.118976
   75  H 10  S    0.077591  -0.018943  -0.062047  -0.106076   0.083118
   76  H 10  S    0.062200  -0.029907  -0.059490  -0.106255   0.087515
   77  H 11  S   -0.080626  -0.022532  -0.057909   0.125824   0.053238
   78  H 11  S   -0.064105  -0.033112  -0.054664   0.126552   0.057569
   79  H 12  S   -0.104259  -0.041131   0.048366   0.102465  -0.017420
   80  H 12  S   -0.084270  -0.041267   0.044659   0.101978  -0.011861
   81  H 13  S   -0.076395  -0.012305   0.031176  -0.089464   0.011892
   82  H 13  S   -0.072882  -0.006201   0.026779  -0.088995   0.011847
   83  H 14  S   -0.005755   0.128098  -0.118585   0.000878   0.004233
   84  H 14  S   -0.005216   0.119732  -0.114992   0.001012   0.004849
   85  H 15  S    0.073628  -0.013564   0.030464   0.090787  -0.010335
   86  H 15  S    0.069919  -0.007192   0.026089   0.090346  -0.010423
   87  H 16  S    0.108046  -0.036443   0.048687  -0.105466   0.007307
   88  H 16  S    0.088443  -0.037930   0.045285  -0.101656   0.012750
   89  H 17  S   -0.003980  -0.096901   0.150931  -0.001548   0.009579
   90  H 17  S   -0.003809  -0.089690   0.150346  -0.000051   0.020820
   91  H 18  S    0.116246  -0.034023  -0.108437   0.140261   0.035358
   92  H 18  S    0.095256  -0.033681  -0.102170   0.154582   0.052016

                     26         27         28         29         30
                   -0.3297    -0.3263    -0.2446    -0.2359     0.0107
                     A          A          A          A          A   
    1  C  1  S    0.000251  -0.003836  -0.000043   0.024791   0.007271
    2  C  1  S   -0.000330   0.001671  -0.000141  -0.020304  -0.004264
    3  C  1  X    0.005919   0.157616  -0.000254  -0.083057  -0.009511
    4  C  1  Y    0.152114   0.000672  -0.019756   0.019116   0.030201
    5  C  1  Z    0.036430  -0.037572  -0.004287  -0.068593  -0.007235
    6  C  1  S   -0.000686   0.014999   0.001051  -0.147173  -0.064656
    7  C  1  X    0.005267   0.136981   0.001190  -0.052871  -0.012215
    8  C  1  Y    0.121670  -0.002183  -0.025361   0.020888   0.075021
    9  C  1  Z    0.029194  -0.021475  -0.006021  -0.072926  -0.013110
   10  H  2  S   -0.100743   0.052507   0.011432   0.001361  -0.013127
   11  H  2  S   -0.109478   0.063806  -0.003045   0.033555   0.053834
   12  C  3  S    0.000707   0.016055  -0.000008   0.000958   0.000077
   13  C  3  S   -0.000818  -0.018259   0.000133  -0.001437  -0.000289
   14  C  3  X   -0.009769  -0.243308   0.000082   0.027152   0.001662
   15  C  3  Y   -0.192702  -0.008458   0.011593  -0.019042  -0.017756
   16  C  3  Z   -0.046573   0.071616   0.002724   0.080481  -0.007339
   17  C  3  S   -0.001947  -0.047222  -0.000502  -0.004643  -0.004868
   18  C  3  X   -0.006701  -0.163777  -0.000017  -0.010127  -0.012302
   19  C  3  Y   -0.159740  -0.005141   0.027714  -0.013918  -0.096661
   20  C  3  Z   -0.038930   0.053226   0.009038   0.059003  -0.054292
   21  C  4  S    0.000766   0.017620  -0.000041  -0.000049   0.000554
   22  C  4  S   -0.000460  -0.014737   0.000003  -0.001280  -0.000387
   23  C  4  X    0.010074   0.244544   0.000207  -0.077214  -0.017997
   24  C  4  Y    0.204042   0.008512  -0.002357   0.063812   0.015804
   25  C  4  Z    0.046922  -0.066117   0.001202  -0.264215  -0.066562
   26  C  4  S   -0.005103  -0.079151   0.000707   0.007562  -0.005501
   27  C  4  X    0.008133   0.213371  -0.000202  -0.101165  -0.036040
   28  C  4  Y    0.132276   0.008041  -0.012809   0.064841   0.067919
   29  C  4  Z    0.030234  -0.057686  -0.001507  -0.267350  -0.092146
   30  C  5  S   -0.013785  -0.003027   0.000483   0.000215  -0.000463
   31  C  5  S    0.014879   0.001070  -0.000899  -0.000497   0.001863
   32  C  5  X   -0.061537  -0.165258  -0.067335  -0.042754   0.079087
   33  C  5  Y   -0.166986  -0.043103   0.059579   0.035217  -0.071520
   34  C  5  Z   -0.029611   0.044892  -0.235127  -0.151225   0.275785
   35  C  5  S    0.059426   0.004208   0.003430   0.003697  -0.016517
   36  C  5  X   -0.018936  -0.130097  -0.074502  -0.041805   0.155143
   37  C  5  Y   -0.125125  -0.013827   0.058326   0.030972  -0.112335
   38  C  5  Z   -0.038415   0.037052  -0.246212  -0.164460   0.472983
   39  C  6  S    0.007517   0.006116  -0.000267  -0.000130   0.000413
   40  C  6  S   -0.009555  -0.009015   0.000328   0.000202  -0.000395
   41  C  6  X    0.020238   0.174618  -0.069438   0.034066  -0.062026
   42  C  6  Y    0.138076   0.000847   0.057253  -0.029143   0.052983
   43  C  6  Z    0.025318  -0.037724  -0.237207   0.121170  -0.216373
   44  C  6  S   -0.033632  -0.005665   0.001476  -0.003362  -0.008117
   45  C  6  X    0.035009   0.114457  -0.073630   0.037407  -0.101418
   46  C  6  Y    0.113175   0.008427   0.061734  -0.029450   0.085272
   47  C  6  Z    0.017661  -0.018003  -0.247166   0.127323  -0.373939
   48  C  7  S    0.000184  -0.000852  -0.000036   0.000334   0.000258
   49  C  7  S   -0.000096   0.003586   0.000031  -0.000461  -0.000287
   50  C  7  X   -0.002817  -0.115556  -0.000464   0.077084  -0.018044
   51  C  7  Y   -0.147216  -0.006706   0.000722  -0.063502   0.014501
   52  C  7  Z   -0.031514   0.046759  -0.001328   0.263443  -0.063491
   53  C  7  S   -0.000987  -0.005848   0.000199   0.000157  -0.000762
   54  C  7  X   -0.002134  -0.096123  -0.000533   0.080158  -0.032185
   55  C  7  Y   -0.092818  -0.006414   0.002280  -0.067678   0.020622
   56  C  7  Z   -0.018918   0.039160  -0.000978   0.280540  -0.109687
   57  C  8  S   -0.007209   0.006735   0.000260  -0.000141  -0.000364
   58  C  8  S    0.008972  -0.009733  -0.000296   0.000211   0.000504
   59  C  8  X   -0.007050   0.176439   0.068828   0.034826   0.079229
   60  C  8  Y    0.133505   0.008013  -0.056722  -0.029999  -0.066390
   61  C  8  Z    0.041834  -0.036551   0.235664   0.124046   0.279430
   62  C  8  S    0.034683  -0.008939  -0.001793  -0.003212   0.004537
   63  C  8  X   -0.026389   0.117498   0.073109   0.038152   0.132754
   64  C  8  Y    0.106960  -0.005846  -0.057263  -0.032700  -0.121909
   65  C  8  Z    0.038212  -0.022198   0.246376   0.130000   0.479025
   66  C  9  S    0.013855  -0.004239  -0.000516   0.000170   0.001111
   67  C  9  S   -0.015077   0.002421   0.000899  -0.000461  -0.002460
   68  C  9  X    0.051326  -0.169994   0.067564  -0.041971  -0.059488
   69  C  9  Y   -0.158899   0.028379  -0.054952   0.037217   0.049354
   70  C  9  Z   -0.042936   0.063198   0.237748  -0.148209  -0.214211
   71  C  9  S   -0.060355   0.008701  -0.002952   0.004064   0.014939
   72  C  9  X    0.009842  -0.130738   0.075082  -0.041353  -0.119527
   73  C  9  Y   -0.126153   0.003095  -0.061208   0.047199   0.103180
   74  C  9  Z   -0.017275   0.040549   0.247247  -0.158173  -0.363450
   75  H 10  S   -0.131219   0.066291   0.005426   0.043213   0.008567
   76  H 10  S   -0.150289   0.089282  -0.008997   0.055915   0.113643
   77  H 11  S    0.139407   0.054469  -0.006114   0.037004   0.006840
   78  H 11  S    0.160734   0.076550   0.006683   0.047550  -0.051153
   79  H 12  S   -0.089351   0.060520   0.000157  -0.001141   0.001159
   80  H 12  S   -0.099872   0.069517   0.000773   0.004069   0.007333
   81  H 13  S    0.104675   0.062865  -0.000771   0.000063   0.001003
   82  H 13  S    0.109103   0.069742  -0.001409  -0.000161   0.005186
   83  H 14  S   -0.003384  -0.107441  -0.000002   0.000775   0.000359
   84  H 14  S   -0.003489  -0.112348   0.000003   0.001643   0.001908
   85  H 15  S   -0.099530   0.069282   0.000659   0.000074  -0.000438
   86  H 15  S   -0.103536   0.076549   0.001264  -0.000159  -0.003356
   87  H 16  S    0.091737   0.055483  -0.000013  -0.001182  -0.001055
   88  H 16  S    0.104638   0.063144  -0.000954   0.004035   0.005404
   89  H 17  S   -0.005516  -0.130922   0.000454   0.036123   0.005182
   90  H 17  S   -0.005661  -0.142207   0.001169   0.076493   0.029199
   91  H 18  S    0.107337   0.041367  -0.012479   0.000005   0.010832
   92  H 18  S    0.116824   0.052061   0.001819   0.030509  -0.046472

                     31         32         33         34         35
                    0.0116     0.1134     0.1389     0.1536     0.1622
                     A          A          A          A          A   
    1  C  1  S   -0.032822   0.034489  -0.091451  -0.005422   0.044054
    2  C  1  S    0.021931  -0.014632   0.046486   0.001927  -0.015694
    3  C  1  X    0.043289   0.021308  -0.078990   0.005070  -0.007990
    4  C  1  Y   -0.012194  -0.009387   0.018515   0.119938  -0.044120
    5  C  1  Z    0.060685   0.021570  -0.059418   0.020595   0.168356
    6  C  1  S    0.281611  -0.451202   1.190011   0.076000  -0.673801
    7  C  1  X    0.024038   0.023429  -0.256155   0.017777  -0.062989
    8  C  1  Y   -0.027379  -0.052911   0.088020   0.304679  -0.168465
    9  C  1  Z    0.136823   0.150273  -0.295989   0.041714   0.598870
   10  H  2  S    0.005656  -0.003305  -0.012198   0.028845   0.038564
   11  H  2  S   -0.006197   0.209368  -0.547891   0.364910   0.714225
   12  C  3  S   -0.000459   0.022678  -0.091705   0.002644   0.013922
   13  C  3  S   -0.000330  -0.007790   0.039772  -0.000699  -0.009591
   14  C  3  X   -0.008650   0.101379  -0.012540   0.005400  -0.009081
   15  C  3  Y   -0.005911   0.026477  -0.029735   0.199968   0.001592
   16  C  3  Z    0.005518  -0.087067   0.114637   0.048004   0.061719
   17  C  3  S    0.029172  -0.391166   1.240386  -0.036403  -0.170064
   18  C  3  X    0.057053   0.297235   0.032233   0.017192   0.010252
   19  C  3  Y   -0.042622   0.103573  -0.107898   0.622039   0.021447
   20  C  3  Z    0.072212  -0.330562   0.403789   0.155522   0.157207
   21  C  4  S   -0.001955   0.025126   0.009586   0.001185  -0.010938
   22  C  4  S    0.001967  -0.012291  -0.006658  -0.000067   0.005116
   23  C  4  X    0.080182   0.034594   0.018307   0.000741   0.024798
   24  C  4  Y   -0.071082   0.000264   0.001535   0.049227  -0.046577
   25  C  4  Z    0.293852   0.001430  -0.006599   0.002246   0.210013
   26  C  4  S    0.011387  -0.363248   0.118625  -0.018733   0.041633
   27  C  4  X    0.170428   0.020169   0.320234  -0.003111  -0.015499
   28  C  4  Y   -0.100742  -0.015499   0.029957   0.057837  -0.094519
   29  C  4  Z    0.459849   0.048869  -0.114476  -0.005373   0.401298
   30  C  5  S   -0.001473   0.051527  -0.005697  -0.018730   0.008689
   31  C  5  S    0.001935  -0.041520   0.017951   0.007527  -0.013152
   32  C  5  X   -0.026579   0.060833  -0.037149  -0.042639  -0.040897
   33  C  5  Y    0.023830  -0.086795   0.019055   0.155025   0.045154
   34  C  5  Z   -0.081015  -0.021242  -0.048530   0.070631  -0.170369
   35  C  5  S   -0.003247  -0.492030  -0.041061   0.381661  -0.055123
   36  C  5  X   -0.048930   0.166742   0.023377  -0.161850  -0.126109
   37  C  5  Y    0.062258  -0.339026   0.263716   0.428764   0.039094
   38  C  5  Z   -0.129077  -0.114645  -0.028014   0.187986  -0.409734
   39  C  6  S   -0.000010   0.035650   0.041026  -0.024994  -0.006744
   40  C  6  S   -0.000429  -0.018565  -0.029460   0.009572   0.005608
   41  C  6  X   -0.054849  -0.076812   0.004843   0.039057   0.047099
   42  C  6  Y    0.047809  -0.080494  -0.084718   0.117538  -0.039537
   43  C  6  Z   -0.195779  -0.032682   0.059746   0.000811   0.198815
   44  C  6  S    0.008413  -0.468726  -0.448882   0.407054   0.067671
   45  C  6  X   -0.098152  -0.164408  -0.024604   0.133767   0.104456
   46  C  6  Y    0.076885  -0.183439  -0.335766   0.279718  -0.042405
   47  C  6  Z   -0.337181  -0.061405   0.079499  -0.001628   0.440040
   48  C  7  S   -0.000915   0.045008   0.018779  -0.000377   0.000958
   49  C  7  S    0.001036  -0.032555  -0.002777   0.000014  -0.002755
   50  C  7  X    0.079967  -0.088728  -0.120807   0.006161  -0.059108
   51  C  7  Y   -0.067655  -0.014646   0.012169   0.038118   0.049267
   52  C  7  Z    0.279855   0.061520  -0.047353   0.016826  -0.199097
   53  C  7  S    0.002297  -0.457455  -0.402870   0.008550   0.032579
   54  C  7  X    0.142872  -0.299869  -0.251664   0.014478  -0.148379
   55  C  7  Y   -0.116862  -0.036740   0.023714   0.015139   0.101290
   56  C  7  Z    0.479179   0.157181  -0.097254   0.019821  -0.424679
   57  C  8  S   -0.000163   0.036242   0.040692   0.022741  -0.002525
   58  C  8  S   -0.000250  -0.018992  -0.029170  -0.008262   0.003489
   59  C  8  X   -0.022732  -0.076053   0.003389  -0.041016   0.045102
   60  C  8  Y    0.019938   0.087203   0.049896   0.104695  -0.044360
   61  C  8  Z   -0.083519   0.007340   0.093071   0.035825   0.201016
   62  C  8  S    0.011107  -0.475927  -0.445977  -0.377229   0.006019
   63  C  8  X   -0.044868  -0.160846  -0.031221  -0.137265   0.096277
   64  C  8  Y    0.036183   0.195204   0.263438   0.243439  -0.130871
   65  C  8  Z   -0.142317   0.028675   0.226025   0.089157   0.425416
   66  C  9  S   -0.001111   0.050596  -0.003844   0.018354   0.007596
   67  C  9  S    0.000933  -0.040464   0.016432  -0.006516  -0.012078
   68  C  9  X   -0.058155   0.060137  -0.034815   0.046655  -0.039585
   69  C  9  Y    0.041358   0.088456   0.008906   0.169306   0.052838
   70  C  9  Z   -0.195634   0.021521  -0.052463   0.020201  -0.174919
   71  C  9  S    0.003927  -0.487770  -0.062799  -0.377079  -0.060316
   72  C  9  X   -0.111241   0.171356   0.023375   0.167688  -0.110829
   73  C  9  Y    0.053575   0.353697  -0.207143   0.471337   0.185745
   74  C  9  Z   -0.333575   0.051329  -0.141383   0.066085  -0.384896
   75  H 10  S   -0.035273   0.008537  -0.018878  -0.043084  -0.042554
   76  H 10  S   -0.108861   0.391568  -0.723239  -0.689909  -0.198051
   77  H 11  S   -0.031239   0.010099  -0.019086   0.049851  -0.031671
   78  H 11  S   -0.131531   0.413677  -0.710412   0.760717  -0.059793
   79  H 12  S    0.000145   0.044035   0.044258  -0.025146  -0.014061
   80  H 12  S   -0.026079   0.743584  -0.092090  -0.788933   0.063012
   81  H 13  S   -0.000907   0.052523   0.037480  -0.039917  -0.004890
   82  H 13  S   -0.002399   0.623938   0.568171  -0.625981  -0.074945
   83  H 14  S   -0.001274   0.064038   0.024348  -0.000807   0.004169
   84  H 14  S   -0.007368   0.714545   0.479684  -0.016735   0.024522
   85  H 15  S   -0.001211   0.053129   0.037867   0.038365  -0.000568
   86  H 15  S   -0.004267   0.628938   0.574790   0.593125  -0.000673
   87  H 16  S   -0.000402   0.044743   0.043615   0.025709  -0.010873
   88  H 16  S   -0.026387   0.742782  -0.064609   0.790054   0.113904
   89  H 17  S   -0.027492   0.021223  -0.018151   0.002710  -0.028539
   90  H 17  S   -0.157716   0.227992  -0.684141   0.009849  -0.072044
   91  H 18  S    0.011020  -0.004239  -0.012688  -0.035217   0.034597
   92  H 18  S   -0.022454   0.225883  -0.555421  -0.493498   0.691257

                     36         37         38         39         40
                    0.1803     0.1885     0.1933     0.1990     0.2062
                     A          A          A          A          A   
    1  C  1  S   -0.114313   0.003378   0.076502   0.029010  -0.003213
    2  C  1  S    0.048388  -0.001566  -0.023451  -0.011758   0.001483
    3  C  1  X   -0.026431   0.002443  -0.147245   0.289753  -0.003543
    4  C  1  Y   -0.010414  -0.195587  -0.016523   0.014064  -0.178877
    5  C  1  Z   -0.031779  -0.054474   0.029390  -0.088928  -0.063309
    6  C  1  S    1.500212  -0.045500  -1.003069  -0.405117   0.047293
    7  C  1  X   -0.086191   0.009724  -0.626788   1.078165  -0.011870
    8  C  1  Y   -0.072559  -0.645992  -0.029987   0.060649  -0.828966
    9  C  1  Z    0.024826  -0.185964  -0.029472  -0.386825  -0.277108
   10  H  2  S   -0.030263  -0.065424   0.017782  -0.029171  -0.029218
   11  H  2  S   -0.651135  -0.763986   0.528397  -0.397340  -0.806272
   12  C  3  S    0.045309   0.000453  -0.115484  -0.037027   0.000725
[...]
   1368   -0.36094   -5.75182    5.13813        -6.886791       6.887841       0.001050
   1369   -3.66043   -6.29890    2.17676        -6.486374       6.491006       0.004632
   1370   -4.58697   -5.40228    3.09188        -6.337991       6.341974       0.003982
   1371   -5.15255   -3.92159    4.00699        -6.389949       6.393194       0.003245
   1372   -4.58697   -5.40228    1.26165        -6.666559       6.670398       0.003840
   1373   -5.51285   -4.05921    2.17676        -6.651585       6.655048       0.003462
   1374   -2.19117   -5.75182   -0.78461        -7.645045       7.650481       0.005436
   1375   -3.10629   -6.31739    0.69607        -6.879355       6.884338       0.004983
   1376   -2.19117   -6.88296    2.17676        -6.707081       6.712435       0.005354
   1377   -4.23743   -3.35602    5.48768        -6.412436       6.414720       0.002285
   1378   -3.89454   -5.05939    4.79524        -6.255767       6.259065       0.003298
   1379   -3.10629   -6.31739    3.65745        -6.354090       6.358345       0.004255
   1380   -2.75674   -4.27113    6.05325        -6.423329       6.425069       0.001740
   1381   -2.19117   -5.75182    5.13813        -6.414281       6.417104       0.002824
   1382   -1.27606   -6.67770    3.79507        -6.695038       6.698945       0.003907
   1383    2.28072    4.51087    6.16036        -7.173861       7.173786      -0.000074
   1384    3.76140    5.42598    5.59479        -7.055433       7.055356      -0.000077
   1385    2.28072    5.98012    5.57630        -6.760934       6.763851       0.002916
   1386    4.11094    7.47224    3.19899        -6.797844       6.803055       0.005210
   1387    3.19583    6.90667    4.67968        -6.665355       6.669239       0.003884
   1388    3.19583    8.03781    1.71830        -6.715769       6.721203       0.005433
   1389    1.36560    8.03781    1.71830        -6.579979       6.585516       0.005538
   1390   -0.10366    7.45374    1.71830        -6.725198       6.730989       0.005791
   1391    2.28072    7.83254    3.33661        -6.501618       6.507270       0.005652
   1392    0.45049    7.47224    3.19899        -6.548084       6.554292       0.006207
   1393    1.36560    6.90667    4.67968        -6.559672       6.564907       0.005235
   1394    0.45049    7.47224    0.23762        -6.905544       6.909727       0.004183
   1395    2.28072    7.83254    0.09999        -6.896474       6.900093       0.003620
   1396    1.36560    6.90667   -1.24307        -7.344042       7.344594       0.000552
   1397   -1.03020    6.55713    0.80319        -7.203427       7.208633       0.005206
   1398   -0.33777    6.21423   -0.90018        -7.586281       7.588905       0.002624
   1399    0.80003    5.42598    5.59479        -6.894734       6.898870       0.004137
   1400   -0.33777    6.21423    4.33678        -6.805681       6.811909       0.006229
   1401   -1.03020    6.55713    2.63342        -6.936904       6.943277       0.006373
   1402   10.64180    3.89488    2.86304        -6.612096       6.612149       0.000053
   1403    9.74518    4.80999    3.78959        -6.449507       6.449348      -0.000159
   1404    8.26450    5.72511    4.35516        -6.477818       6.478154       0.000336
   1405    6.78381    6.27925    4.33666        -6.687876       6.689201       0.001325
   1406   10.66030    5.37557    2.30890        -6.161686       6.164762       0.003076
   1407   10.09473    6.85625    1.39378        -5.898232       5.903119       0.004887
   1408    9.16818    7.75287    0.47867        -5.857086       5.862398       0.005312
   1409    9.40229    6.51336    3.09715        -6.059134       6.062460       0.003326
   1410    8.61404    7.77137    1.95936        -5.920359       5.925436       0.005077
   1411    7.69893    7.20579    3.44004        -6.210505       6.214172       0.003667
   1412   10.09473    6.85625   -0.43644        -5.940591       5.945607       0.005016
   1413   11.02060    5.51319    0.47867        -6.124910       6.129670       0.004760
   1414   11.22587    3.89488    1.39378        -6.577127       6.580229       0.003102
   1415   10.66030    5.37557   -1.35156        -6.288510       6.293145       0.004635
   1416    8.26450    5.72511   -3.39782        -6.688687       6.687952      -0.000735
   1417    9.74518    4.80999   -2.83225        -6.708684       6.710719       0.002036
   1418    8.61404    7.77137   -1.00202        -5.971023       5.975506       0.004483
   1419    9.40229    6.51336   -2.13981        -6.185439       6.188756       0.003318
   1420    7.69893    7.20579   -2.48270        -6.315142       6.316906       0.001764
   1421    7.69893    8.33694    0.47867        -5.977722       5.982935       0.005213
   1422    5.86870    8.33694    0.47867        -6.370635       6.375466       0.004831
   1423    4.39944    7.75287    0.47867        -6.995786       7.000542       0.004756
   1424    6.78381    8.13167    2.09698        -6.192351       6.197548       0.005197
   1425    4.95358    7.77137    1.95936        -6.791757       6.797474       0.005716
   1426    5.86870    7.20579    3.44004        -6.673788       6.677910       0.004122
   1427    4.95358    7.77137   -1.00202        -6.808634       6.810911       0.002277
   1428    6.78381    8.13167   -1.13964        -6.232455       6.235971       0.003515
   1429    5.86870    7.20579   -2.48270        -6.744732       6.744345      -0.000387
   1430   12.01199   -0.81993    2.21173        -6.538786       6.536329      -0.002457
   1431   12.90861    0.09518    1.28518        -6.117421       6.118777       0.001357
   1432   12.01199    1.01030    2.21173        -6.521504       6.520375      -0.001129
   1433   11.43499   -3.76281   -1.09919        -6.647470       6.651661       0.004190
   1434   12.36154   -2.86619   -0.18407        -6.285718       6.288311       0.002593
   1435   12.92711   -1.38550    0.73104        -6.099234       6.100985       0.001751
   1436   12.92711    1.57587    0.73104        -6.060000       6.062964       0.002964
   1437   12.36154    3.05656   -0.18407        -6.183436       6.187891       0.004455
   1438   11.43499    3.95318   -1.09919        -6.457939       6.463135       0.005196
   1439   11.66910    2.71366    1.51929        -6.621334       6.623110       0.001776
   1440   12.36154    3.05656   -2.01430        -6.017400       6.022144       0.004744
   1441   13.28741    1.71349   -1.09919        -5.810304       5.815104       0.004800
   1442   13.49268    0.09518   -0.18407        -5.830564       5.834419       0.003854
   1443   12.92711    1.57587   -2.92942        -5.778966       5.783736       0.004770
   1444   13.49268    0.09518   -2.01430        -5.707610       5.712654       0.005044
   1445   12.90861    0.09518   -3.48356        -5.766478       5.771172       0.004693
   1446   12.36154   -2.86619   -2.01430        -6.145370       6.150070       0.004700
   1447   12.92711   -1.38550   -2.92942        -5.838736       5.843650       0.004914
   1448   13.28741   -1.52313   -1.09919        -5.863105       5.867404       0.004299
   1449   10.53131   -1.73505   -4.97568        -6.497486       6.498998       0.001511
   1450   12.01199   -0.81993   -4.41011        -5.984291       5.987918       0.003627
   1451   11.66910   -2.52330   -3.71767        -6.231962       6.236380       0.004418
   1452   10.53131    1.92541   -4.97568        -6.362983       6.362957      -0.000025
   1453   12.01199    1.01030   -4.41011        -5.937213       5.940440       0.003227
   1454   10.66893    0.09518   -5.33598        -6.320900       6.321286       0.000385
   1455   10.88085    3.97167   -2.57988        -6.506888       6.510565       0.003677
   1456   11.66910    2.71366   -3.71767        -6.086649       6.089803       0.003154
   1457    9.96574    3.40610   -4.06056        -6.694062       6.693847      -0.000215
   1458    9.16103   -7.85951   -1.42354        -5.916003       5.920698       0.004694
   1459   10.08758   -6.96289   -0.50842        -6.046727       6.050138       0.003411
   1460   10.65315   -5.48220    0.40669        -6.444348       6.445414       0.001066
   1461    8.60689   -7.87800    0.05715        -6.151497       6.154435       0.002938
   1462    9.39514   -6.62000    1.19494        -6.440958       6.440764      -0.000194
   1463    7.69178   -7.31243    1.53783        -6.677647       6.676866      -0.000781
   1464   11.21872   -4.00151   -0.50842        -6.747932       6.750954       0.003022
   1465   11.21872   -4.00151   -2.33865        -6.513886       6.519155       0.005269
   1466   10.63466   -4.00151   -3.80791        -6.432745       6.437261       0.004516
   1467   10.08758   -6.96289   -2.33865        -5.881294       5.886350       0.005056
   1468   10.65315   -5.48220   -3.25377        -6.061016       6.065970       0.004954
   1469   11.01345   -5.61982   -1.42354        -6.148622       6.152810       0.004188
   1470    6.77666   -6.38588   -5.28153        -6.329998       6.332292       0.002294
   1471    8.25735   -5.83174   -5.30003        -6.170225       6.173058       0.002832
   1472    9.73804   -4.91663   -4.73445        -6.206116       6.209671       0.003555
   1473    7.69178   -7.31243   -4.38491        -6.020582       6.025085       0.004503
   1474    9.39514   -6.62000   -4.04202        -5.913796       5.918680       0.004884
   1475    8.60689   -7.87800   -2.90423        -5.874586       5.879935       0.005349
   1476    8.39497   -4.00151   -5.66033        -6.617487       6.617305      -0.000182
   1477    6.77666   -4.91663   -5.86560        -6.666869       6.665899      -0.000970
   1478    5.29598   -5.83174   -5.30003        -6.862637       6.862370      -0.000266
   1479    5.86155   -7.31243   -4.38491        -6.410489       6.414100       0.003610
   1480    4.94643   -7.87800   -2.90423        -6.701620       6.706750       0.005130
   1481    5.86155   -8.44357   -1.42354        -6.477359       6.482494       0.005135
   1482    6.77666   -8.23831   -3.04185        -6.127858       6.133073       0.005215
   1483    7.69178   -8.44357   -1.42354        -6.056413       6.061262       0.004849
   1484    6.77666   -8.23831    0.19477        -6.487072       6.490063       0.002991
   1485    2.27225   -6.67393    3.67274        -7.366013       7.364512      -0.001501
   1486    4.65662   -8.14755   -0.18525        -6.973865       6.978515       0.004650
   1487    4.10248   -8.16604    1.29544        -6.899524       6.901793       0.002269
   1488    3.18737   -7.60047    2.77612        -7.030088       7.030031      -0.000057
   1489    2.27225   -6.67393   -4.04324        -7.095758       7.097718       0.001960
   1490    3.18737   -7.60047   -3.14662        -6.895659       6.900060       0.004401
   1491    4.10248   -8.16604   -1.66594        -6.859557       6.865319       0.005761
   1492    0.79156   -6.11979   -4.06174        -7.209946       7.211635       0.001689
   1493   -0.11212   -8.14755   -0.18525        -6.623462       6.629782       0.006320
   1494   -1.03867   -7.25093    0.72986        -7.013488       7.020199       0.006711
   1495   -1.03867   -7.25093   -1.10036        -6.922618       6.928775       0.006157
   1496   -1.60424   -5.77024   -2.01548        -7.589533       7.594482       0.004949
   1497    1.35714   -7.60047   -3.14662        -6.734317       6.738702       0.004385
   1498    0.44202   -8.16604   -1.66594        -6.571322       6.577205       0.005884
   1499   -0.34623   -6.90804   -2.80373        -6.954155       6.958802       0.004647
   1500    1.35714   -8.73162   -0.18525        -6.471502       6.477309       0.005807
   1501    2.27225   -8.52635   -1.80356        -6.542252       6.547837       0.005585
   1502    3.18737   -8.73162   -0.18525        -6.590473       6.595498       0.005025
   1503   -0.34623   -6.90804    2.43323        -7.214105       7.219734       0.005629
   1504    0.44202   -8.16604    1.29544        -6.670151       6.675700       0.005549
   1505    1.35714   -7.60047    2.77612        -6.930642       6.933472       0.002830
   1506    2.27225   -8.52635    1.43306        -6.617758       6.621748       0.003991
   1507   -6.90984    3.86505   -0.28546        -5.984764       5.986058       0.001294
   1508   -6.35570    3.88355    1.19523        -6.239904       6.241683       0.001779
   1509   -7.83639    2.96843   -1.20057        -5.663613       5.665167       0.001554
   1510   -8.40196    1.48775   -2.11569        -5.492073       5.493799       0.001726
   1511   -7.48684    0.92217   -3.59637        -5.741506       5.741771       0.000265
   1512   -8.38346    0.00706   -2.66983        -5.497645       5.499261       0.001616
   1513   -7.48684   -0.90806   -3.59637        -5.755915       5.756453       0.000538
   1514   -6.00616    1.83729    3.59103        -6.531342       6.534652       0.003310
   1515   -7.14395    2.62554    2.33303        -5.986560       5.989452       0.002892
   1516   -7.83639    2.96843    0.62966        -5.702395       5.704821       0.002427
   1517   -7.48684    0.92217    3.02546        -5.908211       5.911726       0.003515
   1518   -8.40196    1.48775    1.54477        -5.566500       5.569902       0.003402
   1519   -8.38346    0.00706    2.09891        -5.599796       5.603562       0.003766
   1520   -8.96753    0.00706    0.62966        -5.401601       5.405190       0.003588
   1521   -8.76226    1.62537   -0.28546        -5.426037       5.428889       0.002852
   1522   -8.96753    0.00706   -1.20057        -5.366608       5.369400       0.002792
   1523   -6.90984   -3.85093   -0.28546        -6.066061       6.068354       0.002293
   1524   -7.83639   -2.95431    0.62966        -5.759233       5.762369       0.003136
   1525   -8.40196   -1.47363    1.54477        -5.594113       5.597825       0.003713
   1526   -7.83639   -2.95431   -1.20057        -5.712262       5.714520       0.002258
   1527   -8.76226   -1.61125   -0.28546        -5.450469       5.453680       0.003211
   1528   -8.40196   -1.47363   -2.11569        -5.513143       5.515216       0.002073
   1529   -7.14395   -2.61142   -2.90394        -5.899340       5.900246       0.000906
   1530   -7.48684   -0.90806    3.02546        -5.932037       5.935677       0.003640
   1531   -7.14395   -2.61142    2.33303        -6.055997       6.059446       0.003449
   1532   -6.35570   -3.86943    1.19523        -6.350156       6.353102       0.002946
   1533   -6.00616   -1.82317    3.59103        -6.608285       6.611493       0.003208
   1534   -6.14378    0.00706    3.95134        -6.522202       6.525493       0.003291
   1535   -2.11814    4.44123   -5.29288        -6.474683       6.472963      -0.001720
   1536   -0.63745    3.88709   -5.31137        -7.044613       7.040257      -0.004356
   1537    0.84324    2.97198   -4.74580        -8.146010       8.135657      -0.010353
   1538   -2.11814    2.97198   -5.87694        -6.679968       6.676668      -0.003300
   1539   -0.28791    5.93335   -2.91557        -7.207592       7.206708      -0.000884
   1540    0.50035    4.67534   -4.05337        -7.632860       7.627247      -0.005614
   1541   -1.20302    5.36778   -4.39626        -6.702003       6.700678      -0.001325
   1542   -1.20302    6.49892   -1.43488        -7.008259       7.010531       0.002272
   1543   -3.03325    6.49892   -1.43488        -6.425804       6.428125       0.002320
   1544   -4.50251    5.91485   -1.43488        -6.191681       6.193320       0.001640
   1545   -2.11814    6.29365    0.18343        -7.028201       7.032042       0.003841
   1546   -3.94836    5.93335    0.04580        -6.526269       6.528666       0.002397
   1547   -3.03325    5.36778    1.52649        -7.208466       7.212266       0.003799
   1548   -3.94836    5.93335   -2.91557        -6.112122       6.113355       0.001233
   1549   -2.11814    6.29365   -3.05320        -6.468540       6.469622       0.001082
   1550   -3.03325    5.36778   -4.39626        -6.213231       6.213284       0.000054
   1551   -5.42905    5.01824   -2.35000        -6.059715       6.060378       0.000663
   1552   -4.73662    4.67534   -4.05337        -6.032702       6.032700      -0.000002
   1553   -3.59882    3.88709   -5.31137        -6.230879       6.229610      -0.001269
   1554   -5.42905    5.01824   -0.51977        -6.302739       6.303853       0.001114

 NET CHARGES:
 -------------------------------------
 ATOM                CHARGE    E.S.D.
 -------------------------------------
 C                  -0.1677    0.1563
 H                   0.0580    0.0114
 C                  -0.0143    0.1807
 C                   0.0034    0.1727
 C                  -0.1555    0.1749
 C                  -0.1679    0.1735
 C                  -0.1162    0.1690
 C                  -0.1707    0.1729
 C                  -0.1533    0.1734
 H                   0.0381    0.0126
 H                   0.0370    0.0128
 H                   0.1442    0.0108
 H                   0.1423    0.0108
 H                   0.1323    0.0106
 H                   0.1431    0.0108
 H                   0.1431    0.0108
 H                   0.0475    0.0102
 H                   0.0566    0.0111
 -------------------------------------

 RMS DEVIATION IS            0.878 KCAL/MOLE
 RELATIVE RMS DEVIATION IS  15.332 %

 MULTIPOLE MOMENTS:
 ---------------------------------------------------------
 STATUS  ACTUAL VALUE       QUANTITY        FITTED VALUE 
 ---------------------------------------------------------
 FIXED       0.0000       TOTAL CHARGE        -0.0000
             0.3251 D    DIPOLE MOMENT         0.3008 D
 FREE       -0.3250 D          DX             -0.3004 D
 FREE        0.0062 D          DY              0.0032 D
 FREE       -0.0048 D          DZ              0.0152 D
 FREE        0.0000 BU         QXX             3.1067 BU
 FREE        0.0000 BU         QYY             3.3465 BU
 FREE        0.0000 BU         QZZ            -6.4532 BU
 FREE        0.0000 BU         QXY             0.6628 BU
 FREE        0.0000 BU         QXZ            -2.7615 BU
 FREE        0.0000 BU         QYZ             2.5185 BU
 ---------------------------------------------------------
 ...... END OF PROPERTY EVALUATION ......
 CPU     0: STEP CPU TIME=     0.50 TOTAL CPU TIME=         18.0 (      0.3 MIN)
 TOTAL WALL CLOCK TIME=         26.3 SECONDS, CPU UTILIZATION IS    68.39%
               703069  WORDS OF DYNAMIC MEMORY USED
 EXECUTION OF GAMESS TERMINATED NORMALLY Sun May 17 16:12:15 2020
 DDI: 263640 bytes (0.3 MB / 0 MWords) used by master data server.
Note: The following floating-point exceptions are signalling: IEEE_UNDERFLOW_FLAGNote: The following floating-point exceptions are signalling:
 ----------------------------------------
 CPU timing information for all processes
 ========================================
 0: 17.696 + 0.279 = 17.975
 1: 17.83 + 0.77 = 17.160
 2: 16.620 + 0.40 = 16.660
 3: 17.451 + 0.64 = 17.515
 4: 16.606 + 0.104 = 16.710
 5: 16.371 + 0.80 = 16.452
 ----------------------------------------
Note: The following floating-point exceptions are signalling: IEEE_DENORMAL
Note: The following floating-point exceptions are signalling: IEEE_UNDERFLOW_FLAG IEEE_UNDERFLOW_FLAG IEEE_DENORMALNote: The following floating-point exceptions are signalling: IEEE_UNDERFLOW_FLAGNote: The following floating-point exceptions are signalling: IEEE_UNDERFLOW_FLAG IEEE_UNDERFLOW_FLAG IEEE_DENORMAL IEEE_DENORMAL

 IEEE_DENORMAL
 IEEE_DENORMAL

 ddikick.x: exited gracefully.
unset echo
----- accounting info -----
Files used on the master node pietdev were:
-rwxr-xr-x 1 piet piet     1190 mei 17 16:11 /home/piet/scr/phenylalanine_charge_geodisk.F05*
-rw-r--r-- 1 piet piet 50790400 mei 17 16:12 /home/piet/scr/phenylalanine_charge_geodisk.F10
ls: No match.
ls: No match.
ls: No match.
zo 17 mei 2020 16:12:18 CEST
0.113u 0.025s 0:29.40 0.4%	0+0k 0+8io 0pf+0w
