----- GAMESS execution script 'rungms' -----
This job is running on host pietdev
under operating system Linux at zo 17 mei 2020 16:12:44 CEST
Available scratch disk space (Kbyte units) at beginning of the job is
Filesystem     1K-blocks     Used Available Use% Mounted on
/dev/sda2      244568380 30391776 201683548  14% /
GAMESS temporary binary files will be written to /home/piet/scr
GAMESS supplementary output files will be written to /home/piet/gamess/scr
Copying input file phenylalanine_fukui_neu.inp to your run's scratch directory...
cp phenylalanine_fukui_neu.inp /home/piet/scr/phenylalanine_fukui_neu.F05
unset echo
 
Assuming a single but multicore node.
 
/home/piet/gamess/ddikick.x /home/piet/gamess/gamess.03.x phenylalanine_fukui_neu -ddi 1 6 pietdev:cpus=6 -scr /home/piet/scr

 Distributed Data Interface kickoff program.
 Initiating 6 compute processes on 1 nodes to run the following command:
 /home/piet/gamess/gamess.03.x phenylalanine_fukui_neu 

          ******************************************************
          *         GAMESS VERSION = 30 SEP 2019 (R2)          *
          *             FROM IOWA STATE UNIVERSITY             *
          * M.W.SCHMIDT, K.K.BALDRIDGE, J.A.BOATZ, S.T.ELBERT, *
          *   M.S.GORDON, J.H.JENSEN, S.KOSEKI, N.MATSUNAGA,   *
          *          K.A.NGUYEN, S.J.SU, T.L.WINDUS,           *
          *       TOGETHER WITH M.DUPUIS, J.A.MONTGOMERY       *
          *         J.COMPUT.CHEM.  14, 1347-1363(1993)        *
          **************** 64 BIT LINUX VERSION ****************

  SINCE 1993, STUDENTS AND POSTDOCS WORKING AT IOWA STATE UNIVERSITY
  AND ALSO IN THEIR VARIOUS JOBS AFTER LEAVING ISU HAVE MADE IMPORTANT
  CONTRIBUTIONS TO THE CODE:
     IVANA ADAMOVIC, CHRISTINE AIKENS, YURI ALEXEEV, POOJA ARORA,
     ANDREY ASADCHEV, ROB BELL, PRADIPTA BANDYOPADHYAY, JONATHAN BENTZ,
     COLLEEN BERTONI, BRETT BODE, KURT BRORSEN, CALEB CARLIN, GALINA CHABAN,
     WEI CHEN, CHEOL HO CHOI, PAUL DAY, ALBERT DEFUSCO, NUWAN DESILVA,
     TIM DUDLEY, DMITRI FEDOROV, ALEX FINDLATER, GRAHAM FLETCHER, 
     MARK FREITAG, KURT GLAESEMANN, EMILIE B GUIDEZ, ANASTASIA GUNINA, 
     DAN KEMP, SAROM SOK LEANG, GRANT MERRILL,
     NORIYUKI MINEZAWA, JONATHAN MULLIN,
     TAKESHI NAGATA, SEAN NEDD, HEATHER NETZLOFF, BOSILJKA NJEGIC, RYAN OLSON,
     MIKE PAK, BUU PHAM, DAVID POOLE,
     SPENCER PRUITT, LUKE ROSKOP, TOSAPORN SATTASATHUCHANA,
     JIM SHOEMAKER, LYUDMILA SLIPCHENKO,
     TONY SMITH, JIE SONG, TETSUYA TAKETSUGU, SIMON WEBB,
     JORGE LUIS GALVEZ VALLEJO, PENG XU, SOOHAENG YOO,
     FEDERICO ZAHARIEV

  ADDITIONAL CODE HAS BEEN PROVIDED BY COLLABORATORS IN OTHER GROUPS:
     IOWA STATE UNIVERSITY:
          JOE IVANIC, AARON WEST, LAIMUTIS BYTAUTAS, KLAUS RUEDENBERG
     UNIVERSITY OF TOKYO: KIMIHIKO HIRAO, TAKAHITO NAKAJIMA,
          TAKAO TSUNEDA, MUNEAKI KAMIYA, SUSUMU YANAGISAWA,
          KIYOSHI YAGI, MAHITO CHIBA, SEIKEN TOKURA, NAOAKI KAWAKAMI
     UNIVERSITY OF AARHUS: FRANK JENSEN
     UNIVERSITY OF IOWA: VISVALDAS KAIRYS, HUI LI
     NATIONAL INST. OF STANDARDS AND TECHNOLOGY: WALT STEVENS, DAVID GARMER
     UNIVERSITY OF PISA: BENEDETTA MENNUCCI, JACOPO TOMASI
     UNIVERSITY OF MEMPHIS: HENRY KURTZ, PRAKASHAN KORAMBATH
     UNIVERSITY OF ALBERTA: TOBY ZENG, MARIUSZ KLOBUKOWSKI
     UNIVERSITY OF NEW ENGLAND: MARK SPACKMAN
     MIE UNIVERSITY: HIROAKI UMEDA
     NAT. INST. OF ADVANCED INDUSTRIAL SCIENCE AND TECHNOLOGY: KAZUO KITAURA
     MICHIGAN STATE UNIVERSITY:
          KAROL KOWALSKI, MARTA WLOCH, JEFFREY GOUR, JESSE LUTZ,
          WEI LI, JUN SHEN, J. EMILIANO DEUSTUA, PIOTR PIECUCH
     UNIVERSITY OF MINNESOTA:
          ANDREW SAND, PRACHI SHARMA, YINAN SHU
     UNIVERSITY OF SILESIA: MONIKA MUSIAL, STANISLAW KUCHARSKI
     FACULTES UNIVERSITAIRES NOTRE-DAME DE LA PAIX:
          OLIVIER QUINET, BENOIT CHAMPAGNE
     UNIVERSITY OF CALIFORNIA - SANTA BARBARA: BERNARD KIRTMAN
     INSTITUTE FOR MOLECULAR SCIENCE:
          KAZUYA ISHIMURA, MICHIO KATOUDA, AND SHIGERU NAGASE
     UNIVERSITY OF NOTRE DAME: ANNA POMOGAEVA, DAN CHIPMAN
     KYUSHU UNIVERSITY:
          HARUYUKI NAKANO,
          FENG LONG GU, JACEK KORCHOWIEC, MARCIN MAKOWSKI, AND YURIKO AOKI,
          HIROTOSHI MORI AND EISAKU MIYOSHI
     PENNSYLVANIA STATE UNIVERSITY:
          TZVETELIN IORDANOV, CHET SWALINA, JONATHAN SKONE,
          SHARON HAMMES-SCHIFFER
     WASEDA UNIVERSITY:
          MASATO KOBAYASHI, TOMOKO AKAMA, TSUGUKI TOUMA,
          TAKESHI YOSHIKAWA, YASUHIRO IKABATA, JUNJI SEINO,
          YUYA NAKAJIMA, HIROMI NAKAI
     NANJING UNIVERSITY: SHUHUA LI
     UNIVERSITY OF NEBRASKA:
          PEIFENG SU, DEJUN SI, NANDUN THELLAMUREGE, YALI WANG, HUI LI
     UNIVERSITY OF ZURICH: ROBERTO PEVERATI, KIM BALDRIDGE
     N. COPERNICUS UNIVERSITY AND JACKSON STATE UNIVERSITY:
          MARIA BARYSZ
     UNIVERSITY OF COPENHAGEN: Jimmy Kromann, CASPER STEINMANN
     TOKYO INSTITUTE OF TECHNOLOGY: HIROYA NAKATA
     NAGOYA UNIVERSITY: YOSHIO NISHIMOTO, STEPHAN IRLE
     MOSCOW STATE UNIVERSITY: VLADIMIR MIRONOV
     A.N.NESMEYANOV INSTITUTE OF ORGANOELEMENT COMPOUNDS OF RUSSIAN ACADEMY OF SCIENCES:
          IGOR S. GERASIMOV
     JOHANNES KEPLER UNIVERSITY LINZ:
          CHRISTIAN FRIEDL


 PARALLEL VERSION RUNNING ON        6 PROCESSORS IN        1 NODES.

 EXECUTION OF GAMESS BEGUN Sun May 17 16:12:44 2020

            ECHO OF THE FIRST FEW INPUT CARDS -
 INPUT CARD> $BASIS GBASIS=N21 NGAUSS=3 $END                                                
 INPUT CARD> $CONTRL SCFTYP=RHF MAXIT=60 MULT=1 ICHARG=0 $END                               
 INPUT CARD> $SYSTEM MEMDDI=1000 MWORDS=30 $END                                             
 INPUT CARD> $SCF DIRSCF=.TRUE. $END                                                        
 INPUT CARD> $DATA                                                                          
 INPUT CARD>                                                                                
 INPUT CARD>C1                                                                              
 INPUT CARD>C 6.0000000 -1.3325916150 0.0708500242 -0.4137541981                            
 INPUT CARD>H 1.0000000 -1.1302963780 -0.6185936306 -1.2402663453                           
 INPUT CARD>C 6.0000000 -0.4388630896 -0.2782371527 0.8054787988                            
 INPUT CARD>C 6.0000000 1.0367623932 -0.1937984185 0.4483441907                             
 INPUT CARD>C 6.0000000 1.7259535085 1.0232957270 0.5407446877                              
 INPUT CARD>C 6.0000000 3.0700130883 1.1128043761 0.1715227951                              
 INPUT CARD>C 6.0000000 3.7452742024 -0.0170017362 -0.2973609268                            
 INPUT CARD>C 6.0000000 3.0679990408 -1.2349274667 -0.3942065418                            
 INPUT CARD>C 6.0000000 1.7235985824 -1.3203848433 -0.0247054454                            
 INPUT CARD>H 1.0000000 -0.6609770157 0.4117600005 1.6288775686                             
 INPUT CARD>H 1.0000000 -0.6752607880 -1.2916709946 1.1518925659                            
 INPUT CARD>H 1.0000000 1.2069026027 1.9027900501 0.9092872995                              
 INPUT CARD>H 1.0000000 3.5898386530 2.0610810663 0.2533011461                              
 INPUT CARD>H 1.0000000 4.7893825784 0.0503686603 -0.5816659420                             
 INPUT CARD>H 1.0000000 3.5860556132 -2.1175102670 -0.7533043217                            
 INPUT CARD>H 1.0000000 1.2024233478 -2.2699357363 -0.0980300720                            
 INPUT CARD>H 1.0000000 -2.3947755488 0.0037356837 -0.1510568460                            
 INPUT CARD>H 1.0000000 -1.1208691755 1.0884446579 -0.7593084133                            
 INPUT CARD> $END                                                                           
   30000000 WORDS OF MEMORY AVAILABLE

     BASIS OPTIONS
     -------------
     GBASIS=N21          IGAUSS=       3      POLAR=NONE    
     NDFUNC=       0     NFFUNC=       0     DIFFSP=       F
     NPFUNC=       0      DIFFS=       F     BASNAM=        


     RUN TITLE
     ---------
                                                                                 

 THE POINT GROUP OF THE MOLECULE IS C1      
 THE ORDER OF THE PRINCIPAL AXIS IS     0

 ATOM      ATOMIC                      COORDINATES (BOHR)
           CHARGE         X                   Y                   Z
 C           6.0    -2.5182330059        0.1338871320       -0.7818820607
 H           1.0    -2.1359504393       -1.1689724596       -2.3437635444
 C           6.0    -0.8293309855       -0.5257919782        1.5221342187
 C           6.0     1.9591968375       -0.3662259078        0.8472476686
 C           6.0     3.2615791986        1.9337485284        1.0218592891
 C           6.0     5.8014835156        2.1028953488        0.3241310834
 C           6.0     7.0775419914       -0.0321286227       -0.5619306711
 C           6.0     5.7976775177       -2.3336745268       -0.7449423466
 C           6.0     3.2571290336       -2.4951655522       -0.0466865222
 H           1.0    -1.2490654439        0.7781135736        3.0781322722
 H           1.0    -1.2760578596       -2.4409042461        2.1767613168
 H           1.0     2.2807152130        3.5957518069        1.7183038402
 H           1.0     6.7838113943        3.8948784538        0.4786697585
 H           1.0     9.0506207235        0.0951829663       -1.0991892468
 H           1.0     6.7766624857       -4.0015141808       -1.4235387534
 H           1.0     2.2722506486       -4.2895565513       -0.1852499746
 H           1.0    -4.5254695893        0.0070594186       -0.2854560475
 H           1.0    -2.1181356098        2.0568621562       -1.4348848413

          INTERNUCLEAR DISTANCES (ANGS.)
          ------------------------------

                1 C          2 H          3 C          4 C          5 C     

   1 C       0.0000000    1.0951613 *  1.5514966 *  2.5351708 *  3.3425917  
   2 H       1.0951613 *  0.0000000    2.1860914 *  2.7799281 *  3.7451254  
   3 C       1.5514966 *  2.1860914 *  0.0000000    1.5205741 *  2.5397840 *
   4 C       2.5351708 *  2.7799281 *  1.5205741 *  0.0000000    1.4017276 *
   5 C       3.3425917    3.7451254    2.5397840 *  1.4017276 *  0.0000000  
   6 C       4.5619235    4.7574665    3.8274154    2.4326836 *  1.3967221 *
   7 C       5.0799593    5.0022167    4.3349169    2.8148480 *  2.4212179 *
   8 C       4.5902761    4.3268197    3.8278693    2.4330565 *  2.7883314 *
   9 C       3.3804130    3.1803798    2.5399839 *  1.4016836 *  2.4109289 *
  10 H       2.1770692 *  3.0844572    1.0970033 *  2.1546877 *  2.6935936 *
  11 H       2.1771075 *  2.5263639 *  1.0967837 *  2.1520520 *  3.3909295  
  12 H       3.3993343    4.0546832    2.7342642 *  2.1533925 *  1.0857015 *
  13 H       5.3512898    5.6294827    4.6912416    3.4118502    2.1526008 *
  14 H       6.1243107    5.9936520    5.4191056    3.8990636    3.4045544  
  15 H       5.3941918    4.9727115    4.6917695    3.4122606    3.8728807  
  16 H       3.4648608    3.0778590    2.7344127 *  2.1532103 *  3.3952158  
  17 H       1.0962431 *  1.7811734 *  2.1954641 *  3.4890907    4.3009883  
  18 H       1.0953232 *  1.7735245 *  2.1866665 *  2.7853090 *  3.1303006  

                6 C          7 C          8 C          9 C         10 H     

   1 C       4.5619235    5.0799593    4.5902761    3.3804130    2.1770692 *
   2 H       4.7574665    5.0022167    4.3268197    3.1803798    3.0844572  
   3 C       3.8274154    4.3349169    3.8278693    2.5399839 *  1.0970033 *
   4 C       2.4326836 *  2.8148480 *  2.4330565 *  1.4016836 *  2.1546877 *
   5 C       1.3967221 *  2.4212179 *  2.7883314 *  2.4109289 *  2.6935936 *
   6 C       0.0000000    1.3972442 *  2.4149324 *  2.7877854 *  4.0664030  
   7 C       1.3972442 *  0.0000000    1.3969337 *  2.4208100 *  4.8279686  
   8 C       2.4149324 *  1.3969337 *  0.0000000    1.3968703 *  4.5507924  
   9 C       2.7877854 *  2.4208100 *  1.3968703 *  0.0000000    3.3794768  
  10 H       4.0664030    4.8279686    4.5507924    3.3794768    0.0000000  
  11 H       4.5573790    4.8235098    4.0503872    2.6720280 *  1.7690099 *
  12 H       2.1539625 *  3.4036643    3.8740221    3.3953164    2.4959878 *
  13 H       1.0844976 *  2.1554158 *  3.3993021    3.8722670    4.7625523  
  14 H       2.1569178 *  1.0842188 *  2.1564527 *  3.4041448    5.8926671  
  15 H       3.3994908    2.1553123 *  1.0845673 *  2.1529077 *  5.4871928  
  16 H       3.8734327    3.4031654    2.1539116 *  1.0856551 *  3.6940443  
  17 H       5.5855175    6.1418276    5.6067205    4.3278477    2.5180762 *
  18 H       4.2930798    5.0114627    4.8039540    3.7990917    2.5244475 *

               11 H         12 H         13 H         14 H         15 H     

   1 C       2.1771075 *  3.3993343    5.3512898    6.1243107    5.3941918  
   2 H       2.5263639 *  4.0546832    5.6294827    5.9936520    4.9727115  
   3 C       1.0967837 *  2.7342642 *  4.6912416    5.4191056    4.6917695  
   4 C       2.1520520 *  2.1533925 *  3.4118502    3.8990636    3.4122606  
   5 C       3.3909295    1.0857015 *  2.1526008 *  3.4045544    3.8728807  
   6 C       4.5573790    2.1539625 *  1.0844976 *  2.1569178 *  3.3994908  
   7 C       4.8235098    3.4036643    2.1554158 *  1.0842188 *  2.1553123 *
   8 C       4.0503872    3.8740221    3.3993021    2.1564527 *  1.0845673 *
   9 C       2.6720280 *  3.3953164    3.8722670    3.4041448    2.1529077 *
  10 H       1.7690099 *  2.4959878 *  4.7625523    5.8926671    5.4871928  
  11 H       0.0000000    3.7156396    5.4990441    5.8880067    4.7403168  
  12 H       3.7156396    0.0000000    2.4766425 *  4.2998336    4.9585678  
  13 H       5.4990441    2.4766425 *  0.0000000    2.4857675 *  4.2981268  
  14 H       5.8880067    4.2998336    2.4857675 *  0.0000000    2.4853882 *
  15 H       4.7403168    4.9585678    4.2981268    2.4853882 *  0.0000000  
  16 H       2.4586594 *  4.2925923    4.9579121    4.2993014    2.4767561 *
  17 H       2.5164433 *  4.2074722    6.3412761    7.1972027    6.3743806  
  18 H       3.0848349    2.9775647 *  4.9155028    6.0033519    5.6950263  

               16 H         17 H         18 H     

   1 C       3.4648608    1.0962431 *  1.0953232 *
   2 H       3.0778590    1.7811734 *  1.7735245 *
   3 C       2.7344127 *  2.1954641 *  2.1866665 *
   4 C       2.1532103 *  3.4890907    2.7853090 *
   5 C       3.3952158    4.3009883    3.1303006  
   6 C       3.8734327    5.5855175    4.2930798  
   7 C       3.4031654    6.1418276    5.0114627  
   8 C       2.1539116 *  5.6067205    4.8039540  
   9 C       1.0856551 *  4.3278477    3.7990917  
  10 H       3.6940443    2.5180762 *  2.5244475 *
  11 H       2.4586594 *  2.5164433 *  3.0848349  
  12 H       4.2925923    4.2074722    2.9775647 *
  13 H       4.9579121    6.3412761    4.9155028  
  14 H       4.2993014    7.1972027    6.0033519  
  15 H       2.4767561 *  6.3743806    5.6950263  
  16 H       0.0000000    4.2558470    4.1368703  
  17 H       4.2558470    0.0000000    1.7802812 *
  18 H       4.1368703    1.7802812 *  0.0000000  

  * ... LESS THAN  3.000


     ATOMIC BASIS SET
     ----------------
 THE CONTRACTED PRIMITIVE FUNCTIONS HAVE BEEN UNNORMALIZED
 THE CONTRACTED BASIS FUNCTIONS ARE NOW NORMALIZED TO UNITY

  SHELL TYPE  PRIMITIVE        EXPONENT          CONTRACTION COEFFICIENT(S)

 C         

      1   S       1           172.2560000    0.061766907377
      1   S       2            25.9109000    0.358794042852
      1   S       3             5.5333500    0.700713083689

      2   L       4             3.6649800   -0.395895162119    0.236459946619
      2   L       5             0.7705450    1.215834355681    0.860618805716

      3   L       6             0.1958570    1.000000000000    1.000000000000

 H         

      4   S       7             5.4471780    0.156284978695
      4   S       8             0.8245472    0.904690876670

      5   S       9             0.1831916    1.000000000000

 C         

      6   S      10           172.2560000    0.061766907377
      6   S      11            25.9109000    0.358794042852
      6   S      12             5.5333500    0.700713083689

      7   L      13             3.6649800   -0.395895162119    0.236459946619
      7   L      14             0.7705450    1.215834355681    0.860618805716

      8   L      15             0.1958570    1.000000000000    1.000000000000

 C         

      9   S      16           172.2560000    0.061766907377
      9   S      17            25.9109000    0.358794042852
      9   S      18             5.5333500    0.700713083689

     10   L      19             3.6649800   -0.395895162119    0.236459946619
     10   L      20             0.7705450    1.215834355681    0.860618805716

     11   L      21             0.1958570    1.000000000000    1.000000000000

 C         

     12   S      22           172.2560000    0.061766907377
     12   S      23            25.9109000    0.358794042852
     12   S      24             5.5333500    0.700713083689

     13   L      25             3.6649800   -0.395895162119    0.236459946619
     13   L      26             0.7705450    1.215834355681    0.860618805716

     14   L      27             0.1958570    1.000000000000    1.000000000000

 C         

     15   S      28           172.2560000    0.061766907377
     15   S      29            25.9109000    0.358794042852
     15   S      30             5.5333500    0.700713083689

     16   L      31             3.6649800   -0.395895162119    0.236459946619
     16   L      32             0.7705450    1.215834355681    0.860618805716

     17   L      33             0.1958570    1.000000000000    1.000000000000

 C         

     18   S      34           172.2560000    0.061766907377
     18   S      35            25.9109000    0.358794042852
     18   S      36             5.5333500    0.700713083689

     19   L      37             3.6649800   -0.395895162119    0.236459946619
     19   L      38             0.7705450    1.215834355681    0.860618805716

     20   L      39             0.1958570    1.000000000000    1.000000000000

 C         

     21   S      40           172.2560000    0.061766907377
     21   S      41            25.9109000    0.358794042852
     21   S      42             5.5333500    0.700713083689

     22   L      43             3.6649800   -0.395895162119    0.236459946619
     22   L      44             0.7705450    1.215834355681    0.860618805716

     23   L      45             0.1958570    1.000000000000    1.000000000000

 C         

     24   S      46           172.2560000    0.061766907377
     24   S      47            25.9109000    0.358794042852
     24   S      48             5.5333500    0.700713083689

     25   L      49             3.6649800   -0.395895162119    0.236459946619
     25   L      50             0.7705450    1.215834355681    0.860618805716

     26   L      51             0.1958570    1.000000000000    1.000000000000

 H         

     27   S      52             5.4471780    0.156284978695
     27   S      53             0.8245472    0.904690876670

     28   S      54             0.1831916    1.000000000000

 H         

     29   S      55             5.4471780    0.156284978695
     29   S      56             0.8245472    0.904690876670

     30   S      57             0.1831916    1.000000000000

 H         

     31   S      58             5.4471780    0.156284978695
     31   S      59             0.8245472    0.904690876670

     32   S      60             0.1831916    1.000000000000

 H         

     33   S      61             5.4471780    0.156284978695
     33   S      62             0.8245472    0.904690876670

     34   S      63             0.1831916    1.000000000000

 H         

     35   S      64             5.4471780    0.156284978695
     35   S      65             0.8245472    0.904690876670

     36   S      66             0.1831916    1.000000000000

 H         

     37   S      67             5.4471780    0.156284978695
     37   S      68             0.8245472    0.904690876670

     38   S      69             0.1831916    1.000000000000

 H         

     39   S      70             5.4471780    0.156284978695
     39   S      71             0.8245472    0.904690876670

     40   S      72             0.1831916    1.000000000000

 H         

     41   S      73             5.4471780    0.156284978695
     41   S      74             0.8245472    0.904690876670

     42   S      75             0.1831916    1.000000000000

 H         

     43   S      76             5.4471780    0.156284978695
     43   S      77             0.8245472    0.904690876670

     44   S      78             0.1831916    1.000000000000

 TOTAL NUMBER OF BASIS SET SHELLS             =   44
 NUMBER OF CARTESIAN GAUSSIAN BASIS FUNCTIONS =   92
 NUMBER OF ELECTRONS                          =   58
 CHARGE OF MOLECULE                           =    0
 SPIN MULTIPLICITY                            =    1
 NUMBER OF OCCUPIED ORBITALS (ALPHA)          =   29
 NUMBER OF OCCUPIED ORBITALS (BETA )          =   29
 TOTAL NUMBER OF ATOMS                        =   18
 THE NUCLEAR REPULSION ENERGY IS      339.2580440202

     $CONTRL OPTIONS
     ---------------
 SCFTYP=RHF          RUNTYP=ENERGY       EXETYP=RUN     
 MPLEVL=       0     CITYP =NONE         CCTYP =NONE         VBTYP =NONE    
 DFTTYP=NONE         TDDFT =NONE    
 MULT  =       1     ICHARG=       0     NZVAR =       0     COORD =UNIQUE  
 PP    =NONE         RELWFN=NONE         LOCAL =NONE         NUMGRD=       F
 ISPHER=      -1     NOSYM =       0     MAXIT =      60     UNITS =ANGS    
 PLTORB=       F     MOLPLT=       F     AIMPAC=       F     FRIEND=        
 NPRINT=       7     IREST =       0     GEOM  =INPUT   
 NORMF =       0     NORMP =       0     ITOL  =      20     ICUT  =       9
 INTTYP=BEST         GRDTYP=BEST         QMTTOL= 1.0E-06

     $SYSTEM OPTIONS
     ---------------
  REPLICATED MEMORY=    30000000 WORDS (ON EVERY NODE).
 DISTRIBUTED MEMDDI=        1000 MILLION WORDS IN AGGREGATE,
 MEMDDI DISTRIBUTED OVER   6 PROCESSORS IS   166666666 WORDS/PROCESSOR.
 TOTAL MEMORY REQUESTED ON EACH PROCESSOR=   196666666 WORDS.
 TIMLIM=      525600.00 MINUTES, OR     365.0 DAYS.
 PARALL= T  BALTYP=  DLB     KDIAG=    0  COREFL= F
 MXSEQ2=     300 MXSEQ3=     150  mem10=         0

          ----------------
          PROPERTIES INPUT
          ----------------

     MOMENTS            FIELD           POTENTIAL          DENSITY
 IEMOM =       1   IEFLD =       0   IEPOT =       0   IEDEN =       0
 WHERE =COMASS     WHERE =NUCLEI     WHERE =NUCLEI     WHERE =NUCLEI  
 OUTPUT=BOTH       OUTPUT=BOTH       OUTPUT=BOTH       OUTPUT=BOTH    
 IEMINT=       0   IEFINT=       0                     IEDINT=       0
                                                       MORB  =       0
          EXTRAPOLATION IN EFFECT
          SOSCF IN EFFECT
 ORBITAL PRINTING OPTION: NPREO=     1    92     2     1

     -------------------------------
     INTEGRAL TRANSFORMATION OPTIONS
     -------------------------------
     NWORD  =            0
     CUTOFF = 1.0E-09     MPTRAN =       0
     DIRTRF =       T     AOINTS =DUP     

          ----------------------
          INTEGRAL INPUT OPTIONS
          ----------------------
 NOPK  =       1 NORDER=       0 SCHWRZ=       T

     ------------------------------------------
     THE POINT GROUP IS C1 , NAXIS= 0, ORDER= 1
     ------------------------------------------

     DIMENSIONS OF THE SYMMETRY SUBSPACES ARE
 A   =   92

 ..... DONE SETTING UP THE RUN .....
 CPU     0: STEP CPU TIME=     0.02 TOTAL CPU TIME=          0.0 (      0.0 MIN)
 TOTAL WALL CLOCK TIME=          0.0 SECONDS, CPU UTILIZATION IS    66.67%

          ********************
          1 ELECTRON INTEGRALS
          ********************
 ...... END OF ONE-ELECTRON INTEGRALS ......
 CPU     0: STEP CPU TIME=     0.01 TOTAL CPU TIME=          0.0 (      0.0 MIN)
 TOTAL WALL CLOCK TIME=          0.0 SECONDS, CPU UTILIZATION IS    75.00%

          -------------
          GUESS OPTIONS
          -------------
          GUESS =HUCKEL            NORB  =       0          NORDER=       0
          MIX   =       F          PRTMO =       F          PUNMO =       F
          TOLZ  = 1.0E-08          TOLE  = 1.0E-05
          SYMDEN=       F          PURIFY=       F

 INITIAL GUESS ORBITALS GENERATED BY HUCKEL   ROUTINE.
 HUCKEL GUESS REQUIRES     84630 WORDS.

 SYMMETRIES FOR INITIAL GUESS ORBITALS FOLLOW.   BOTH SET(S).
    29 ORBITALS ARE OCCUPIED (    8 CORE ORBITALS).
     9=A       10=A       11=A       12=A       13=A       14=A       15=A   
    16=A       17=A       18=A       19=A       20=A       21=A       22=A   
    23=A       24=A       25=A       26=A       27=A       28=A       29=A   
    30=A       31=A       32=A       33=A       34=A       35=A       36=A   
    37=A       38=A       39=A   
 ...... END OF INITIAL ORBITAL SELECTION ......
 CPU     0: STEP CPU TIME=     0.02 TOTAL CPU TIME=          0.0 (      0.0 MIN)
 TOTAL WALL CLOCK TIME=          0.1 SECONDS, CPU UTILIZATION IS    83.33%

                    ----------------------
                    AO INTEGRAL TECHNOLOGY
                    ----------------------
     S,P,L SHELL ROTATED AXIS INTEGRALS, REPROGRAMMED BY
        KAZUYA ISHIMURA (IMS) AND JOSE SIERRA (SYNSTAR).
     S,P,D,L SHELL ROTATED AXIS INTEGRALS PROGRAMMED BY
        KAZUYA ISHIMURA (INSTITUTE FOR MOLECULAR SCIENCE).
     S,P,D,F,G SHELL TO TOTAL QUARTET ANGULAR MOMENTUM SUM 5,
        ERIC PROGRAM BY GRAHAM FLETCHER (ELORET AND NASA ADVANCED
        SUPERCOMPUTING DIVISION, AMES RESEARCH CENTER).
     S,P,D,F,G,L SHELL GENERAL RYS QUADRATURE PROGRAMMED BY
        MICHEL DUPUIS (PACIFIC NORTHWEST NATIONAL LABORATORY).

          --------------------
          2 ELECTRON INTEGRALS
          --------------------

 DIRECT SCF METHOD SKIPS INTEGRAL STORAGE ON DISK.
 DIRECT TRANSFORMATION SKIPS AO INTEGRAL STORAGE ON DISK.
  ...... END OF TWO-ELECTRON INTEGRALS .....
 CPU     0: STEP CPU TIME=     0.01 TOTAL CPU TIME=          0.1 (      0.0 MIN)
 TOTAL WALL CLOCK TIME=          0.1 SECONDS, CPU UTILIZATION IS    75.00%

          --------------------------
                 RHF SCF CALCULATION
          --------------------------

     NUCLEAR ENERGY =       339.2580440202
     MAXIT =   60     NPUNCH=    2
     EXTRAP=T  DAMP=F  SHIFT=F  RSTRCT=F  DIIS=F  DEM=F  SOSCF=T
     DENSITY MATRIX CONV=  2.00E-05
     SOSCF WILL OPTIMIZE    1827 ORBITAL ROTATIONS, SOGTOL=   0.250
     MEMORY REQUIRED FOR RHF ITERS=    114180 WORDS.

 DIRECT SCF CALCULATION, SCHWRZ=T   FDIFF=T,  DIRTHR=  0.00E+00 NITDIR=10
 SCHWARZ INEQUALITY OVERHEAD:      4159 INTEGRALS, T=        0.00

                                                                                   NONZERO     BLOCKS
 ITER EX DEM     TOTAL ENERGY        E CHANGE  DENSITY CHANGE     ORB. GRAD      INTEGRALS    SKIPPED
   1  0  0     -306.4887395158  -306.4887395158   0.510039114   0.000000000        7008844     186338
          ---------------START SECOND ORDER SCF---------------
   2  1  0     -307.0345700953    -0.5458305795   0.090135591   0.035589343        6988956     193028
   3  2  0     -307.0553274892    -0.0207573939   0.059303831   0.007892527        6908137     207722
   4  3  0     -307.0577827176    -0.0024552284   0.003872270   0.002145926        6804849     220844
   5  4  0     -307.0578862417    -0.0001035241   0.001886574   0.000882006        6588385     239347
   6  5  0     -307.0579058746    -0.0000196330   0.000363537   0.000108432        6352774     256096
   7  6  0     -307.0579063620    -0.0000004873   0.000208992   0.000039603        6060418     273869
   8  7  0     -307.0579064573    -0.0000000953   0.000049341   0.000021975        5821258     287600
   9  8  0     -307.0579064683    -0.0000000110   0.000031740   0.000010272        5484676     307707
  10  9  0     -307.0579064721    -0.0000000038   0.000010589   0.000002546        5384533     313616
  11 10  0     -307.0579064729    -0.0000000008   0.000003325   0.000000654        5079900     326719

          -----------------
          DENSITY CONVERGED
          -----------------
     TIME TO FORM FOCK OPERATORS=       1.1 SECONDS (       0.1 SEC/ITER)
     FOCK TIME ON FIRST ITERATION=       0.1, LAST ITERATION=       0.1
     TIME TO SOLVE SCF EQUATIONS=       0.1 SECONDS (       0.0 SEC/ITER)

 FINAL RHF ENERGY IS     -307.0579064729 AFTER  11 ITERATIONS

          ------------
          EIGENVECTORS
          ------------

                      1          2          3          4          5
                  -11.1865   -11.1788   -11.1787   -11.1758   -11.1753
                     A          A          A          A          A   
    1  C  1  S   -0.011029  -0.000025  -0.000043  -0.000474  -0.000139
    2  C  1  S   -0.003733   0.000051   0.000138  -0.000102  -0.000029
    3  C  1  X   -0.001675  -0.000045  -0.000103  -0.000006  -0.000018
    4  C  1  Y    0.000021   0.000088  -0.000022   0.000005  -0.000039
    5  C  1  Z    0.000003   0.000005  -0.000048  -0.000019  -0.000001
    6  C  1  S    0.007639  -0.000479  -0.001139   0.000085   0.000095
    7  C  1  X    0.007507  -0.000172  -0.000487  -0.000078   0.000063
    8  C  1  Y   -0.000269  -0.000947   0.000424   0.000020   0.000533
    9  C  1  Z    0.000940  -0.000381  -0.000126  -0.000054   0.000181
   10  H  2  S   -0.001089  -0.000061   0.000101   0.000027   0.000234
   11  H  2  S   -0.000948  -0.000376   0.000253  -0.000094  -0.000148
   12  C  3  S   -0.000411  -0.006292  -0.017093  -0.002289   0.000806
   13  C  3  S   -0.000322  -0.000989  -0.002675  -0.000425   0.000097
   14  C  3  X    0.000058  -0.000146  -0.000416   0.000116  -0.000003
   15  C  3  Y    0.000107  -0.000331   0.000052   0.000009  -0.000184
   16  C  3  Z   -0.000288  -0.000005   0.000233  -0.000035  -0.000042
   17  C  3  S    0.006460   0.000161   0.000259   0.002330  -0.000061
   18  C  3  X    0.008110   0.000056   0.000187   0.000945   0.000069
   19  C  3  Y   -0.001090   0.002593  -0.000588   0.000028  -0.003040
   20  C  3  Z    0.002881   0.000282  -0.001176  -0.000153  -0.000737
   21  C  4  S    0.987108   0.002137   0.005714   0.002739   0.000133
   22  C  4  S    0.101086   0.000606   0.001687   0.000363  -0.000025
   23  C  4  X   -0.000027  -0.000196  -0.000539  -0.000265  -0.000023
   24  C  4  Y    0.000127  -0.000628   0.000183  -0.000019  -0.001824
   25  C  4  Z   -0.000498  -0.000089   0.000216   0.000080  -0.000437
   26  C  4  S   -0.095863  -0.009159  -0.025716   0.001574   0.000382
   27  C  4  X   -0.012605  -0.005012  -0.014084   0.003420   0.000289
   28  C  4  Y   -0.000981  -0.003232   0.000038   0.000235   0.019920
   29  C  4  Z    0.004542   0.000726   0.004258  -0.000948   0.004734
   30  C  5  S   -0.018464  -0.047380  -0.046203  -0.119832   0.702793
   31  C  5  S   -0.005781  -0.008392  -0.007465  -0.012164   0.070904
   32  C  5  X    0.000543  -0.001243  -0.000763  -0.001137   0.000243
   33  C  5  Y    0.001378   0.000282   0.000467   0.000153  -0.001357
   34  C  5  Z    0.000177   0.000419   0.000341   0.000366  -0.000393
   35  C  5  S    0.033017   0.035216   0.033399   0.001798  -0.059071
   36  C  5  X   -0.003978   0.014943   0.013194  -0.000369  -0.002734
   37  C  5  Y   -0.019142  -0.009496  -0.012828   0.003790   0.011249
   38  C  5  Z   -0.003822  -0.006612  -0.006988   0.001036   0.003472
   39  C  6  S   -0.006099   0.889994   0.416010   0.061775   0.029375
   40  C  6  S   -0.000412   0.090034   0.042891   0.002632   0.000542
   41  C  6  X    0.000715  -0.000474  -0.000656  -0.000473   0.000806
   42  C  6  Y    0.000087  -0.001532   0.000130   0.001289   0.000223
   43  C  6  Z   -0.000190  -0.000224   0.000222   0.000452  -0.000180
   44  C  6  S   -0.008655  -0.080730  -0.058258   0.024060   0.015132
   45  C  6  X    0.001524   0.009582   0.011206   0.002213  -0.009838
   46  C  6  Y    0.007470   0.018347   0.019411  -0.018116  -0.005192
   47  C  6  Z    0.001481   0.001616   0.001451  -0.005032   0.001612
   48  C  7  S   -0.006686  -0.034604  -0.098841   0.968541   0.001410
   49  C  7  S   -0.001508  -0.005552  -0.015730   0.097051   0.000144
   50  C  7  X    0.000239   0.000569   0.001593  -0.001256   0.000003
   51  C  7  Y    0.000010  -0.001091   0.000509  -0.000082  -0.001171
   52  C  7  Z   -0.000051  -0.000427  -0.000337   0.000351  -0.000284
   53  C  7  S    0.011613   0.021323   0.059811  -0.083112  -0.000270
   54  C  7  X   -0.006362  -0.010864  -0.030432   0.019208   0.000137
   55  C  7  Y   -0.000407   0.012621  -0.006760   0.001250   0.001286
   56  C  7  Z    0.001649   0.006195   0.007191  -0.005285   0.000273
   57  C  8  S   -0.006010  -0.423184   0.886452   0.062716  -0.028669
   58  C  8  S   -0.000396  -0.042309   0.090304   0.002722  -0.000546
   59  C  8  X    0.000716  -0.000052  -0.000807  -0.000476  -0.000789
   60  C  8  Y    0.000013  -0.001274   0.000766  -0.001353   0.000106
   61  C  8  Z   -0.000211  -0.000298   0.000423  -0.000185   0.000255
   62  C  8  S   -0.008691   0.025438  -0.096311   0.024007  -0.014500
   63  C  8  X    0.001516  -0.000289   0.014701   0.002251   0.009564
   64  C  8  Y   -0.007391   0.001854  -0.024753   0.018407  -0.003648
   65  C  8  Z   -0.002081   0.000560  -0.010229   0.003766  -0.003663
   66  C  9  S   -0.018570   0.007868  -0.066448  -0.119686  -0.692131
   67  C  9  S   -0.005806   0.001802  -0.011159  -0.012154  -0.069828
   68  C  9  X    0.000546   0.000472  -0.001377  -0.001139  -0.000238
   69  C  9  Y   -0.001315  -0.000023  -0.000720  -0.000301  -0.001385
   70  C  9  Z   -0.000458  -0.000131   0.000223   0.000257  -0.000272
   71  C  9  S    0.033147  -0.006093   0.048175   0.001821   0.057876
   72  C  9  X   -0.003980  -0.003161   0.019740  -0.000368   0.002535
   73  C  9  Y    0.018884   0.000366   0.018507  -0.003826   0.011235
   74  C  9  Z    0.005321   0.000957  -0.001282  -0.000803   0.002021
   75  H 10  S   -0.000657  -0.000434  -0.000041  -0.000068   0.000264
   76  H 10  S   -0.000147  -0.000436   0.000452  -0.000124   0.000449
   77  H 11  S   -0.000633   0.000312  -0.000311  -0.000068  -0.000274
   78  H 11  S   -0.000484   0.000640   0.000143  -0.000131  -0.000399
   79  H 12  S   -0.000431   0.000030   0.000478  -0.000169  -0.001246
   80  H 12  S    0.002766   0.003146   0.004009  -0.001487   0.005236
   81  H 13  S   -0.000518  -0.001942  -0.001434  -0.000167  -0.000132
   82  H 13  S   -0.001184   0.005162   0.000420   0.004467   0.002463
   83  H 14  S    0.000132   0.000134   0.000378  -0.002195  -0.000010
   84  H 14  S    0.001590   0.002315   0.006445   0.006510  -0.000009
   85  H 15  S   -0.000522   0.000591  -0.002340  -0.000169   0.000133
   86  H 15  S   -0.001203  -0.003703   0.003594   0.004474  -0.002359
   87  H 16  S   -0.000435   0.000280   0.000390  -0.000168   0.001212
   88  H 16  S    0.002792   0.000102   0.005086  -0.001479  -0.005203
   89  H 17  S   -0.000015   0.000010   0.000009  -0.000018  -0.000005
   90  H 17  S    0.003527   0.000019   0.000008   0.000018   0.000027
   91  H 18  S   -0.001011   0.000109   0.000035   0.000031  -0.000252
   92  H 18  S   -0.001182   0.000467  -0.000042  -0.000106   0.000138

                      6          7          8          9         10
                  -11.1751   -11.1737   -11.1600    -1.1517    -1.0594
                     A          A          A          A          A   
    1  C  1  S    0.001098  -0.006958   0.987432  -0.019848  -0.093129
    2  C  1  S    0.000608  -0.003076   0.101553   0.022599   0.095013
    3  C  1  X   -0.000358   0.000499   0.000231   0.012184   0.028785
    4  C  1  Y    0.000068  -0.000121  -0.000017  -0.002556  -0.008671
    5  C  1  Z   -0.000254   0.000433   0.000056   0.008849   0.030178
    6  C  1  S   -0.004624   0.022025  -0.079585   0.035753   0.217189
    7  C  1  X   -0.000950   0.007700  -0.003136  -0.008669  -0.009871
    8  C  1  Y    0.000248  -0.002666   0.000837   0.001044   0.000568
    9  C  1  Z   -0.000747   0.009195  -0.002895  -0.003647  -0.001415
   10  H  2  S    0.000140  -0.001390   0.000207   0.010191   0.046318
   11  H  2  S    0.000636   0.000369   0.014519  -0.000621   0.000073
   12  C  3  S   -0.123163   0.980155   0.006352  -0.047216  -0.133961
   13  C  3  S   -0.014795   0.103930  -0.000796   0.046500   0.123372
   14  C  3  X   -0.000136   0.000167  -0.000636   0.025744   0.015603
   15  C  3  Y   -0.000025   0.000101  -0.000003   0.002424   0.007272
   16  C  3  Z    0.000124  -0.000347   0.000020  -0.009896  -0.026990
   17  C  3  S    0.025887  -0.093519   0.011768   0.104535   0.372715
   18  C  3  X    0.007545  -0.004472  -0.008744  -0.005030   0.016231
   19  C  3  Y    0.000605  -0.001800   0.002493   0.001847   0.005056
   20  C  3  Z   -0.002558   0.006819  -0.008742  -0.005754  -0.018239
   21  C  4  S    0.026360   0.003555   0.010452  -0.109967  -0.089765
   22  C  4  S   -0.002796  -0.001406  -0.001285   0.121353   0.097873
   23  C  4  X   -0.002327   0.000141   0.001483   0.043032  -0.055620
   24  C  4  Y   -0.000148   0.000086  -0.000110   0.003215  -0.001794
   25  C  4  Z    0.000653  -0.000231   0.000256  -0.013307   0.009226
   26  C  4  S    0.044601   0.020995   0.006292   0.206421   0.184023
   27  C  4  X    0.037856  -0.016319  -0.006312  -0.003345   0.014272
   28  C  4  Y    0.002337  -0.001106   0.000143   0.000166   0.000988
   29  C  4  Z   -0.010075   0.003534   0.000617  -0.000548  -0.003712
   30  C  5  S    0.674621   0.082598  -0.000273  -0.096879  -0.011955
   31  C  5  S    0.067957   0.007471   0.000069   0.108150   0.012787
   32  C  5  X    0.000355   0.000875  -0.000271   0.019353  -0.061822
   33  C  5  Y   -0.000015   0.000295   0.000034  -0.049605  -0.027079
   34  C  5  Z   -0.000131  -0.000079  -0.000042  -0.017898   0.010276
   35  C  5  S   -0.073580  -0.006868   0.001434   0.189178   0.028800
   36  C  5  X   -0.012133  -0.003364   0.003968   0.013407  -0.002870
   37  C  5  Y    0.020656  -0.001849  -0.000336  -0.013194   0.003487
   38  C  5  Z    0.008505   0.000319  -0.000343  -0.006748   0.000585
   39  C  6  S    0.067263   0.021318   0.000130  -0.089303   0.067182
   40  C  6  S    0.002406   0.000779   0.000091   0.101267  -0.071884
   41  C  6  X    0.000858   0.000489   0.000116  -0.028648  -0.020785
   42  C  6  Y    0.000881   0.000282   0.000073  -0.047302   0.039478
   43  C  6  Z   -0.000018  -0.000131   0.000025  -0.003050   0.015367
   44  C  6  S    0.034301   0.006069  -0.002962   0.156222  -0.153453
   45  C  6  X   -0.014924  -0.004477   0.001326   0.000508   0.008983
   46  C  6  Y   -0.017059  -0.002943  -0.000052  -0.005191   0.011841
   47  C  6  Z    0.000155   0.000827  -0.000795  -0.001566   0.000163
   48  C  7  S    0.159190   0.020246   0.000348  -0.087450   0.096072
   49  C  7  S    0.015893   0.001764  -0.000014   0.097871  -0.104307
   50  C  7  X    0.000765   0.000269   0.000073  -0.052680   0.034616
   51  C  7  Y    0.000059   0.000015   0.000011  -0.003473   0.002431
   52  C  7  Z   -0.000205  -0.000073  -0.000049   0.014511  -0.009525
   53  C  7  S   -0.030195  -0.003314  -0.000093   0.167216  -0.205873
   54  C  7  X    0.013951   0.002481  -0.000671  -0.014779   0.007493
   55  C  7  Y    0.000868   0.000275  -0.000122  -0.001061   0.000380
   56  C  7  Z   -0.003817  -0.000783   0.000438   0.004221  -0.002132
   57  C  8  S    0.068701   0.021329   0.000108  -0.089293   0.067492
   58  C  8  S    0.002514   0.000793   0.000089   0.101238  -0.072261
   59  C  8  X    0.000868   0.000491   0.000115  -0.028519  -0.020700
   60  C  8  Y   -0.000775  -0.000193  -0.000079   0.043602  -0.042142
   61  C  8  Z   -0.000420  -0.000251  -0.000002   0.018821  -0.004330
   62  C  8  S    0.034476   0.005913  -0.002900   0.156352  -0.153788
   63  C  8  X   -0.015075  -0.004254   0.001269   0.000333   0.008560
   64  C  8  Y    0.015157   0.002379   0.000367   0.005313  -0.010771
   65  C  8  Z    0.007959   0.002074  -0.000727   0.000991  -0.005160
   66  C  9  S    0.685203   0.085072  -0.000466  -0.096830  -0.011519
   67  C  9  S    0.069018   0.007694   0.000051   0.108111   0.012339
   68  C  9  X    0.000360   0.000861  -0.000295   0.019485  -0.061716
   69  C  9  Y    0.000093  -0.000220   0.000005   0.052239   0.019489
   70  C  9  Z   -0.000110  -0.000175  -0.000083   0.006680   0.021511
   71  C  9  S   -0.074371  -0.007015   0.001685   0.188898   0.027392
   72  C  9  X   -0.012296  -0.003006   0.003805   0.013222  -0.003355
   73  C  9  Y   -0.022325   0.001293   0.000566   0.014784  -0.003345
   74  C  9  Z   -0.001829   0.000905   0.000034   0.000125  -0.000871
   75  H 10  S   -0.000676   0.001111  -0.001004   0.019805   0.061903
   76  H 10  S   -0.001596   0.013878   0.001621  -0.003535  -0.001104
   77  H 11  S   -0.000678   0.001116  -0.001016   0.019884   0.061994
   78  H 11  S   -0.001639   0.013915   0.001633  -0.003145  -0.000728
   79  H 12  S   -0.002133  -0.000270   0.000502   0.034563   0.011093
   80  H 12  S    0.002312   0.001423   0.000222  -0.000937   0.004243
   81  H 13  S    0.000054  -0.000044   0.000094   0.030430  -0.029450
   82  H 13  S    0.006309   0.001903   0.000096  -0.006547  -0.005516
   83  H 14  S   -0.001071  -0.000356   0.000100   0.029840  -0.042300
   84  H 14  S   -0.000281  -0.000096   0.000265  -0.003464  -0.003686
   85  H 15  S    0.000048  -0.000036   0.000090   0.030416  -0.029590
   86  H 15  S    0.006346   0.001915   0.000084  -0.006526  -0.005503
   87  H 16  S   -0.002161  -0.000236   0.000466   0.034521   0.010795
   88  H 16  S    0.002430   0.001289   0.000312  -0.000898   0.004287
   89  H 17  S    0.000131  -0.001059   0.000166   0.007347   0.042180
   90  H 17  S    0.000739  -0.000044   0.013553  -0.006762  -0.005538
   91  H 18  S    0.000125  -0.001376   0.000190   0.010190   0.046289
   92  H 18  S    0.000633   0.000368   0.014558  -0.000441   0.000213

                     11         12         13         14         15
                   -1.0084    -0.9789    -0.8622    -0.8234    -0.7872
                     A          A          A          A          A   
    1  C  1  S   -0.000398  -0.125938  -0.128580  -0.001408  -0.043885
    2  C  1  S    0.000370   0.119215   0.114292   0.001196   0.039807
    3  C  1  X    0.000143   0.005187  -0.046696  -0.001349  -0.019021
    4  C  1  Y    0.002366  -0.005075   0.016995  -0.013119   0.017350
    5  C  1  Z    0.000603   0.017998  -0.058270  -0.004055  -0.062187
    6  C  1  S    0.001247   0.354725   0.447893   0.005011   0.169639
    7  C  1  X    0.000085   0.004749  -0.001087  -0.000402  -0.007743
    8  C  1  Y    0.002044  -0.001534   0.003332  -0.006809   0.007269
    9  C  1  Z    0.000615   0.005733  -0.011470  -0.001948  -0.026289
   10  H  2  S   -0.001081   0.065955   0.089877   0.007914   0.046559
   11  H  2  S   -0.000394   0.005171   0.027399   0.004914   0.021674
   12  C  3  S    0.000208  -0.071673   0.104615   0.000395   0.079054
   13  C  3  S   -0.000209   0.065934  -0.091096  -0.000267  -0.070048
   14  C  3  X   -0.000219  -0.066668  -0.072637  -0.001738   0.049129
   15  C  3  Y    0.013572   0.008506   0.020271  -0.046717   0.017485
   16  C  3  Z    0.003190  -0.028000  -0.067841  -0.012034  -0.065701
   17  C  3  S   -0.000555   0.216732  -0.374801  -0.001661  -0.293262
   18  C  3  X   -0.000036  -0.001174  -0.022542  -0.000635   0.025947
   19  C  3  Y    0.003913   0.001498   0.004110  -0.029920   0.008360
   20  C  3  Z    0.000964  -0.005727  -0.012090  -0.007471  -0.031422
   21  C  4  S    0.000444   0.087829   0.043660   0.001322  -0.090798
   22  C  4  S   -0.000460  -0.090004  -0.043181  -0.001324   0.093567
   23  C  4  X    0.000095  -0.080255   0.101051   0.000458   0.077337
   24  C  4  Y    0.100756  -0.003176   0.011785  -0.183364   0.006400
   25  C  4  Z    0.024286   0.014311  -0.039592  -0.044601  -0.031954
   26  C  4  S   -0.001106  -0.226441  -0.127996  -0.004234   0.304769
   27  C  4  X    0.000007   0.010692   0.029213   0.000250   0.041450
   28  C  4  Y    0.017561   0.000012   0.003224  -0.078323   0.004320
   29  C  4  Z    0.004240  -0.001109  -0.013495  -0.019013  -0.020552
   30  C  5  S   -0.118348   0.068292  -0.051068   0.089028   0.025127
   31  C  5  S    0.126654  -0.072433   0.052777  -0.091971  -0.024633
   32  C  5  X    0.053536   0.034908   0.052917   0.104495  -0.098580
   33  C  5  Y    0.008565   0.045550   0.025143   0.015788  -0.136666
   34  C  5  Z   -0.013350  -0.000681  -0.012498  -0.026752  -0.008023
   35  C  5  S    0.275682  -0.177200   0.144432  -0.280058  -0.091032
   36  C  5  X    0.009939  -0.012292   0.010373   0.030822  -0.031871
   37  C  5  Y   -0.004043   0.019369   0.002851   0.009997  -0.055515
   38  C  5  Z   -0.004008   0.005026  -0.007553  -0.006468  -0.007213
   39  C  6  S   -0.118218  -0.039547  -0.014645  -0.093901   0.058205
   40  C  6  S    0.126754   0.042081   0.014240   0.097125  -0.059358
   41  C  6  X   -0.054262   0.068303  -0.084591   0.090223   0.071635
   42  C  6  Y    0.001053  -0.038219   0.040772   0.002483  -0.106210
   43  C  6  Z    0.016135  -0.029389   0.033445  -0.025481  -0.047662
   44  C  6  S    0.279359   0.105885   0.056961   0.299659  -0.195295
   45  C  6  X   -0.009535   0.006712  -0.035311   0.026802   0.027881
   46  C  6  Y   -0.007526  -0.007058   0.004381  -0.006299  -0.046846
   47  C  6  Z    0.001105  -0.003017   0.012124  -0.009260  -0.019863
   48  C  7  S   -0.000355  -0.105692   0.075184   0.001291  -0.077033
   49  C  7  S    0.000377   0.112620  -0.077704  -0.001330   0.079723
   50  C  7  X    0.000021  -0.011308  -0.026351  -0.000438   0.028424
   51  C  7  Y    0.098518  -0.001249  -0.003409   0.172497   0.003510
   52  C  7  Z    0.023764   0.003063   0.006603   0.041726  -0.007636
   53  C  7  S    0.000849   0.259604  -0.228020  -0.004110   0.254549
   54  C  7  X   -0.000027  -0.005380   0.001921   0.000042   0.001087
   55  C  7  Y    0.009534  -0.000352   0.000001   0.061812   0.000820
   56  C  7  Z    0.002299   0.001050  -0.001356   0.014881  -0.000226
   57  C  8  S    0.117760  -0.040539  -0.017016   0.092621   0.059590
   58  C  8  S   -0.126267   0.043123   0.016758  -0.095836  -0.060741
   59  C  8  X    0.054566   0.068130  -0.083598  -0.093118   0.069689
   60  C  8  Y    0.008425   0.047272  -0.051333  -0.011760   0.115776
   61  C  8  Z   -0.013894  -0.008692   0.010929   0.024039   0.006520
   62  C  8  S   -0.278215   0.108416   0.063538  -0.295097  -0.200282
   63  C  8  X    0.009508   0.006560  -0.034464  -0.028157   0.027510
   64  C  8  Y   -0.006203   0.007750  -0.008787  -0.010562   0.050550
   65  C  8  Z   -0.004371   0.000647   0.008744   0.005609   0.003772
   66  C  9  S    0.118674   0.067811  -0.049742  -0.090345   0.023415
   67  C  9  S   -0.127012  -0.071880   0.051461   0.093316  -0.022883
   68  C  9  X   -0.053021   0.035672   0.055779  -0.101597  -0.099338
   69  C  9  Y    0.001384  -0.040383  -0.017021  -0.000058   0.125327
   70  C  9  Z    0.015558  -0.021574  -0.023345   0.029597   0.055522
   71  C  9  S   -0.276436  -0.176679   0.139722   0.283941  -0.085319
   72  C  9  X   -0.009988  -0.012067   0.012603  -0.030243  -0.031456
   73  C  9  Y   -0.005407  -0.019639   0.000078   0.005259   0.052632
   74  C  9  Z    0.001692  -0.004513  -0.008844   0.009844   0.018880
   75  H 10  S    0.004961   0.038757  -0.074262  -0.021086  -0.078557
   76  H 10  S    0.003676   0.002875  -0.022872  -0.012650  -0.036269
   77  H 11  S   -0.005449   0.038712  -0.074739   0.021639  -0.078304
   78  H 11  S   -0.003992   0.002514  -0.023174   0.013365  -0.035923
   79  H 12  S    0.062771  -0.034854   0.031080  -0.089086  -0.053614
   80  H 12  S    0.013258  -0.010773   0.011704  -0.044198  -0.031250
   81  H 13  S    0.062579   0.023629   0.009113   0.090887  -0.076787
   82  H 13  S    0.013296   0.005553   0.006421   0.044554  -0.039389
   83  H 14  S    0.000184   0.061234  -0.066148  -0.001269   0.075099
   84  H 14  S    0.000040   0.015248  -0.030747  -0.000649   0.039795
   85  H 15  S   -0.062325   0.024185   0.011097  -0.089631  -0.078340
   86  H 15  S   -0.013250   0.005732   0.007320  -0.043912  -0.040249
   87  H 16  S   -0.062974  -0.034714   0.029562   0.090323  -0.052034
   88  H 16  S   -0.013280  -0.010835   0.010408   0.044756  -0.030763
   89  H 17  S    0.000163   0.069955   0.093347   0.001455   0.030821
   90  H 17  S   -0.000034   0.012687   0.034101   0.000769   0.010000
   91  H 18  S    0.001617   0.065970   0.090249  -0.006386   0.046225
   92  H 18  S    0.000552   0.005044   0.027589  -0.004705   0.021601

                     16         17         18         19         20
                   -0.6952    -0.6420    -0.6307    -0.5921    -0.5875
                     A          A          A          A          A   
    1  C  1  S   -0.008313   0.000358  -0.001003   0.003196   0.000052
    2  C  1  S    0.007180  -0.000233   0.003242  -0.001571  -0.000015
    3  C  1  X    0.013237   0.003738   0.079463   0.198090   0.008692
    4  C  1  Y    0.014786   0.111274   0.011137   0.008109   0.131194
    5  C  1  Z   -0.051569   0.031500  -0.056124  -0.081871   0.030728
    6  C  1  S    0.039320  -0.001567   0.003142  -0.020999  -0.000505
    7  C  1  X    0.011114   0.002343   0.051851   0.153136   0.006868
    8  C  1  Y    0.008462   0.084142   0.009860   0.008356   0.102643
    9  C  1  Z   -0.029465   0.023745  -0.047257  -0.071457   0.023868
   10  H  2  S    0.025740  -0.061201   0.033491   0.062041  -0.071550
   11  H  2  S    0.018676  -0.044933   0.022367   0.051777  -0.063064
   12  C  3  S    0.033359  -0.000396   0.003278  -0.011007  -0.000233
   13  C  3  S   -0.026627   0.000327  -0.000944   0.010810   0.000315
   14  C  3  X    0.085549   0.002658   0.123234   0.111775   0.007806
   15  C  3  Y    0.013146   0.182657   0.019422   0.022139   0.100210
   16  C  3  Z   -0.051225   0.048174  -0.086550  -0.127698   0.024231
   17  C  3  S   -0.142035   0.001122  -0.050481   0.027209  -0.000218
   18  C  3  X    0.050916   0.001758   0.062288   0.078937   0.005461
   19  C  3  Y    0.009025   0.138235   0.013762   0.017861   0.099588
   20  C  3  Z   -0.034462   0.036628  -0.062615  -0.106623   0.024164
   21  C  4  S   -0.020182  -0.000515  -0.065576   0.027958   0.000679
   22  C  4  S    0.016176   0.000501   0.067746  -0.029849  -0.000786
   23  C  4  X   -0.085287  -0.000776  -0.071047  -0.187966  -0.008663
   24  C  4  Y   -0.003075   0.174033   0.000618   0.008945  -0.151845
   25  C  4  Z    0.013611   0.043438  -0.006370  -0.002812  -0.034489
   26  C  4  S    0.085512   0.001967   0.210832  -0.083622  -0.001462
   27  C  4  X   -0.057301  -0.001131  -0.104752  -0.132981  -0.006677
   28  C  4  Y   -0.001853   0.123576  -0.002061   0.006802  -0.112494
   29  C  4  Z    0.008294   0.030931   0.008426  -0.002974  -0.025454
   30  C  5  S   -0.020957   0.019202   0.053174  -0.000679   0.023422
   31  C  5  S    0.017281  -0.018530  -0.055751  -0.000819  -0.027576
   32  C  5  X   -0.112176  -0.158248   0.029483  -0.010005  -0.015168
   33  C  5  Y    0.106971  -0.094816  -0.094227   0.114945   0.176260
   34  C  5  Z    0.055027   0.022669  -0.044108  -0.000271   0.045968
   35  C  5  S    0.087501  -0.076410  -0.159700   0.019951  -0.045665
   36  C  5  X   -0.065700  -0.083372   0.059871  -0.016708  -0.029789
   37  C  5  Y    0.077805  -0.046884  -0.101849   0.089086   0.121028
   38  C  5  Z    0.034772   0.012367  -0.053104  -0.004183   0.036522
   39  C  6  S    0.010282  -0.007111  -0.052276  -0.000862   0.010844
   40  C  6  S   -0.015272   0.006675   0.055336   0.003384  -0.014116
   41  C  6  X    0.088497   0.182216   0.062039  -0.027368   0.024787
   42  C  6  Y    0.129561  -0.056388   0.118090  -0.117971   0.190223
   43  C  6  Z    0.004527  -0.066581   0.005313  -0.037608   0.038439
   44  C  6  S   -0.017536   0.030637   0.154484  -0.016667  -0.010791
   45  C  6  X    0.055966   0.106723   0.073648  -0.028470   0.026831
   46  C  6  Y    0.083439  -0.029318   0.126421  -0.092390   0.149932
   47  C  6  Z    0.003232  -0.038130   0.005155  -0.027643   0.028074
   48  C  7  S   -0.027362   0.000568   0.055780  -0.020525  -0.000646
   49  C  7  S    0.023101  -0.000595  -0.059679   0.024512   0.000817
   50  C  7  X    0.201041  -0.001102  -0.053953  -0.165456  -0.008700
   51  C  7  Y    0.013733   0.186387  -0.003640   0.000080  -0.161005
   52  C  7  Z   -0.055317   0.045363   0.011418   0.035752  -0.036458
   53  C  7  S    0.117521  -0.001868  -0.165458   0.042396   0.001029
   54  C  7  X    0.131411  -0.001357  -0.086802  -0.123079  -0.006997
   55  C  7  Y    0.008899   0.100508  -0.005614  -0.000955  -0.090793
   56  C  7  Z   -0.036191   0.024712   0.021184   0.024779  -0.019997
   57  C  8  S    0.010463   0.005951  -0.052329  -0.000830  -0.011565
   58  C  8  S   -0.015438  -0.005379   0.055389   0.003252   0.015124
   59  C  8  X    0.087119  -0.181577   0.063445  -0.035684  -0.024963
   60  C  8  Y   -0.117834  -0.081528  -0.106860   0.109636   0.196338
   61  C  8  Z   -0.054693   0.033413  -0.049243   0.019735   0.054486
   62  C  8  S   -0.018418  -0.027828   0.154792  -0.015646   0.010932
   63  C  8  X    0.055351  -0.105286   0.074253  -0.033243  -0.027178
   64  C  8  Y   -0.075988  -0.044833  -0.114789   0.085752   0.152953
   65  C  8  Z   -0.035013   0.020035  -0.053125   0.016752   0.044802
   66  C  9  S   -0.021368  -0.018051   0.053244   0.000801  -0.022615
   67  C  9  S    0.017702   0.017390  -0.055854  -0.002449   0.026602
   68  C  9  X   -0.111890   0.159433   0.028242  -0.000444   0.014801
   69  C  9  Y   -0.120216  -0.073018   0.104667  -0.111410   0.168623
   70  C  9  Z    0.000081  -0.062619   0.004450  -0.057682   0.036918
   71  C  9  S    0.088981   0.073199  -0.159588   0.016135   0.044937
   72  C  9  X   -0.065319   0.085696   0.058972  -0.012159   0.029594
   73  C  9  Y   -0.085010  -0.034664   0.115435  -0.082444   0.117724
   74  C  9  Z   -0.004584  -0.031870  -0.000171  -0.046887   0.020600
   75  H 10  S   -0.050274   0.098311  -0.054702  -0.060332   0.057660
   76  H 10  S   -0.027885   0.074271  -0.049569  -0.051185   0.047124
   77  H 11  S   -0.049664  -0.100198  -0.051337  -0.046744  -0.062119
   78  H 11  S   -0.027135  -0.076052  -0.047379  -0.040129  -0.050869
   79  H 12  S    0.108953  -0.010165  -0.119576   0.066448   0.091132
   80  H 12  S    0.069712  -0.002109  -0.069710   0.049827   0.080459
   81  H 13  S    0.079724   0.027487   0.136082  -0.079184   0.111687
   82  H 13  S    0.055632   0.019322   0.080917  -0.060861   0.087829
   83  H 14  S    0.143234  -0.001382  -0.089637  -0.091734  -0.005300
   84  H 14  S    0.092833  -0.000764  -0.045875  -0.075829  -0.004192
   85  H 15  S    0.079307  -0.025358   0.136235  -0.074963  -0.116752
   86  H 15  S    0.055342  -0.018200   0.080989  -0.057702  -0.092050
   87  H 16  S    0.109168   0.007904  -0.119677   0.067724  -0.086043
   88  H 16  S    0.069685   0.000835  -0.069664   0.051725  -0.076215
   89  H 17  S   -0.009632  -0.002104  -0.057355  -0.148273  -0.006379
   90  H 17  S   -0.009209  -0.001847  -0.050357  -0.129164  -0.005606
   91  H 18  S    0.026266   0.061459   0.028899   0.047560   0.078323
   92  H 18  S    0.019301   0.045290   0.018697   0.039887   0.069119

                     21         22         23         24         25
                   -0.5782    -0.5424    -0.5180    -0.4968    -0.4828
                     A          A          A          A          A   
    1  C  1  S   -0.000238  -0.000463  -0.001974   0.000621   0.015351
    2  C  1  S    0.000206   0.000771   0.002718  -0.000629  -0.013978
    3  C  1  X    0.006784   0.202613  -0.100471   0.000936  -0.075355
    4  C  1  Y    0.201643  -0.026904  -0.061372   0.197933   0.042923
    5  C  1  Z    0.049123   0.110707   0.247286   0.046800  -0.170831
    6  C  1  S    0.001168  -0.021008  -0.008316  -0.002066  -0.049843
    7  C  1  X    0.005412   0.168875  -0.095138   0.001870  -0.051420
    8  C  1  Y    0.164065  -0.017243  -0.050823   0.185584   0.034026
    9  C  1  Z    0.040208   0.074343   0.207863   0.044996  -0.139065
   10  H  2  S   -0.112022  -0.018842  -0.121078  -0.126246   0.055679
   11  H  2  S   -0.094387  -0.020419  -0.115535  -0.130598   0.072991
   12  C  3  S    0.000225  -0.025433   0.001747   0.000282   0.010025
   13  C  3  S   -0.000037   0.017474  -0.000253  -0.000292  -0.007809
   14  C  3  X    0.009208  -0.152733  -0.044340  -0.001317   0.039300
   15  C  3  Y    0.146055   0.042466   0.043531  -0.174690  -0.048356
   16  C  3  Z    0.038919  -0.139279  -0.167839  -0.039486   0.192165
   17  C  3  S   -0.002369   0.126320  -0.021947  -0.000125  -0.034362
   18  C  3  X    0.006661  -0.107232  -0.039673  -0.001140   0.028633
   19  C  3  Y    0.129430   0.035929   0.036886  -0.166288  -0.045628
   20  C  3  Z    0.034437  -0.117307  -0.143628  -0.038076   0.182146
   21  C  4  S    0.000159   0.021233  -0.015381   0.000273   0.001607
   22  C  4  S   -0.000261  -0.016909   0.012911  -0.000027  -0.002397
   23  C  4  X   -0.008003   0.077669  -0.048500   0.001771  -0.002015
   24  C  4  Y   -0.052489   0.030203   0.023626  -0.117958   0.027101
   25  C  4  Z   -0.009104  -0.132111  -0.094929  -0.032325  -0.086277
   26  C  4  S    0.000214  -0.096216   0.079570  -0.002957  -0.008988
   27  C  4  X   -0.006639   0.077802  -0.035826   0.001290  -0.017852
   28  C  4  Y   -0.044329   0.024711   0.022143  -0.086720   0.028821
   29  C  4  Z   -0.007829  -0.110959  -0.087125  -0.024562  -0.098269
   30  C  5  S    0.001023  -0.016570   0.006753  -0.005774   0.000277
   31  C  5  S    0.001386   0.019537  -0.007004   0.003566  -0.001078
   32  C  5  X    0.175990   0.069450  -0.107713  -0.031105  -0.047329
   33  C  5  Y   -0.048315  -0.031767   0.036889   0.117073   0.018447
   34  C  5  Z   -0.065079  -0.105162  -0.046631   0.028900  -0.126423
   35  C  5  S   -0.020314   0.036222  -0.017812   0.028301   0.000229
   36  C  5  X    0.115263   0.038410  -0.075905  -0.057297  -0.046795
   37  C  5  Y   -0.058472  -0.021140   0.046852   0.125841   0.014293
   38  C  5  Z   -0.050525  -0.092672  -0.047736   0.033562  -0.124194
   39  C  6  S   -0.016540   0.013128  -0.005005   0.001589   0.000109
   40  C  6  S    0.019387  -0.014512   0.005477  -0.001230  -0.000538
   41  C  6  X   -0.163626  -0.109212   0.066902   0.038345  -0.033175
   42  C  6  Y   -0.060171   0.055963  -0.000870  -0.136462   0.044635
   43  C  6  Z    0.031809  -0.009251  -0.092896  -0.051620  -0.156097
   44  C  6  S    0.040388  -0.025836   0.006139  -0.003148   0.001977
   45  C  6  X   -0.110064  -0.083687   0.049767  -0.003599  -0.036663
   46  C  6  Y   -0.054232   0.014854   0.022368  -0.140955   0.049139
   47  C  6  Z    0.017913  -0.020748  -0.079052  -0.038912  -0.155287
   48  C  7  S   -0.000447   0.005107  -0.004162   0.000249   0.000632
   49  C  7  S    0.000580  -0.006550   0.004998  -0.000273  -0.000752
   50  C  7  X   -0.008732   0.179807  -0.137376  -0.000008  -0.054149
   51  C  7  Y   -0.056665   0.018424   0.005576   0.172491   0.034225
   52  C  7  Z   -0.010930  -0.093761  -0.027835   0.037559  -0.164921
   53  C  7  S    0.000726  -0.013378   0.011693  -0.000508   0.000803
   54  C  7  X   -0.007633   0.184061  -0.147652  -0.000078  -0.056605
   55  C  7  Y   -0.037589   0.019307   0.004435   0.117175   0.035537
   56  C  7  Z   -0.006683  -0.091388  -0.021365   0.024310  -0.163174
   57  C  8  S    0.015386   0.013664  -0.005006  -0.001641  -0.000144
   58  C  8  S   -0.017936  -0.015079   0.005502   0.001160  -0.000247
   59  C  8  X    0.165205  -0.103524   0.067465  -0.040369  -0.032804
   60  C  8  Y   -0.031490  -0.040578   0.045034  -0.144532   0.040854
   61  C  8  Z   -0.053750  -0.034073  -0.082075  -0.023550  -0.157254
   62  C  8  S   -0.039100  -0.027821   0.006053   0.004986   0.003336
   63  C  8  X    0.111358  -0.080260   0.049751   0.000863  -0.038780
   64  C  8  Y   -0.035635   0.000402   0.017786  -0.143196   0.036963
   65  C  8  Z   -0.039437  -0.025082  -0.080298  -0.036603  -0.157647
   66  C  9  S    0.000325  -0.017615   0.006695   0.006027   0.000674
   67  C  9  S   -0.002919   0.020556  -0.007022  -0.003832  -0.001562
   68  C  9  X   -0.177631   0.062926  -0.108181   0.029946  -0.045793
   69  C  9  Y   -0.080566   0.074823  -0.012339   0.122132   0.031297
   70  C  9  Z    0.035346  -0.077128  -0.058742   0.021531  -0.123861
   71  C  9  S    0.018049   0.039475  -0.016815  -0.029843  -0.000796
   72  C  9  X   -0.115727   0.034233  -0.076826   0.054221  -0.048665
   73  C  9  Y   -0.080392   0.058341  -0.020583   0.132643   0.033642
   74  C  9  Z    0.017958  -0.071940  -0.064010   0.022015  -0.119324
   75  H 10  S    0.080763  -0.013684  -0.066959  -0.107473   0.074409
   76  H 10  S    0.063215  -0.021029  -0.067054  -0.103729   0.078667
   77  H 11  S   -0.084537  -0.016253  -0.062332   0.114451   0.067419
   78  H 11  S   -0.065994  -0.023167  -0.062196   0.110602   0.071947
   79  H 12  S   -0.097312  -0.050579   0.040845   0.099761  -0.003094
   80  H 12  S   -0.071482  -0.047454   0.033012   0.082952   0.001868
   81  H 13  S   -0.071240  -0.018012   0.024956  -0.086769   0.009075
   82  H 13  S   -0.060137  -0.007104   0.017318  -0.069380   0.007621
   83  H 14  S   -0.005761   0.140800  -0.091325   0.000386  -0.006528
   84  H 14  S   -0.004463   0.109782  -0.072971   0.000368  -0.005089
   85  H 15  S    0.068141  -0.019384   0.023755   0.087828   0.002578
   86  H 15  S    0.057135  -0.007955   0.016325   0.070276   0.002244
   87  H 16  S    0.101575  -0.046760   0.041835  -0.101734   0.003390
   88  H 16  S    0.075497  -0.044917   0.033971  -0.083277   0.007426
   89  H 17  S   -0.004879  -0.122482   0.126793  -0.002158   0.007635
   90  H 17  S   -0.004452  -0.114920   0.122576  -0.001783   0.016509
   91  H 18  S    0.119413  -0.012830  -0.111910   0.132836   0.048756
   92  H 18  S    0.100675  -0.015335  -0.107046   0.138830   0.065407

                     26         27         28         29         30
                   -0.4741    -0.4671    -0.3347    -0.3236     0.1486
                     A          A          A          A          A   
    1  C  1  S   -0.000160  -0.005420   0.000005   0.022083   0.010153
    2  C  1  S    0.000202   0.001936  -0.000177  -0.016437  -0.004536
    3  C  1  X   -0.003946   0.160355  -0.000327  -0.072291  -0.010493
    4  C  1  Y   -0.150116  -0.001246  -0.015616   0.016679   0.029318
    5  C  1  Z   -0.037444  -0.018955  -0.003384  -0.059219  -0.009892
    6  C  1  S    0.000139   0.020057   0.000700  -0.121004  -0.097624
    7  C  1  X   -0.004003   0.159426   0.000872  -0.055510  -0.012188
    8  C  1  Y   -0.149252  -0.001555  -0.022902   0.017979   0.096999
    9  C  1  Z   -0.037798  -0.018170  -0.005575  -0.063350  -0.022802
   10  H  2  S    0.100447   0.042923   0.009326   0.000915  -0.014902
   11  H  2  S    0.103391   0.047961  -0.003111   0.028802   0.071809
   12  C  3  S   -0.000372   0.012220  -0.000010   0.001257   0.000448
   13  C  3  S    0.000526  -0.018257   0.000116  -0.000687  -0.000105
   14  C  3  X    0.005890  -0.241230   0.000059   0.022990   0.002031
   15  C  3  Y    0.188903  -0.007042   0.007729  -0.016977  -0.014948
   16  C  3  Z    0.047830   0.052159   0.001774   0.070985  -0.008106
   17  C  3  S   -0.000523   0.025866  -0.000463  -0.006947  -0.011782
   18  C  3  X    0.004033  -0.159357  -0.000087  -0.001390  -0.019467
   19  C  3  Y    0.203091  -0.003881   0.023547  -0.017792  -0.118974
   20  C  3  Z    0.052062   0.041144   0.007549   0.074900  -0.073262
   21  C  4  S   -0.000471   0.017652  -0.000035   0.000084   0.000643
   22  C  4  S    0.000140  -0.012644  -0.000005  -0.001560  -0.000400
   23  C  4  X   -0.006197   0.241004   0.000123  -0.070343  -0.020669
   24  C  4  Y   -0.194609   0.010328  -0.001536   0.058780   0.017636
   25  C  4  Z   -0.046876  -0.060077   0.000859  -0.243307  -0.076139
   26  C  4  S    0.003932  -0.071836   0.000624   0.004845  -0.006672
   27  C  4  X   -0.007316   0.313206  -0.000238  -0.107702  -0.055282
   28  C  4  Y   -0.168875   0.012525  -0.012530   0.071951   0.093870
   29  C  4  Z   -0.040912  -0.074283  -0.001666  -0.296556  -0.137379
   30  C  5  S    0.012977  -0.003617   0.000296   0.000064  -0.000347
   31  C  5  S   -0.013566   0.003857  -0.000746  -0.000376   0.002218
   32  C  5  X    0.053511  -0.156746  -0.062748  -0.039482   0.068683
   33  C  5  Y    0.161190  -0.045897   0.054430   0.032175  -0.062616
   34  C  5  Z    0.026416   0.048591  -0.217221  -0.137392   0.239648
   35  C  5  S   -0.039300  -0.016836   0.004389   0.003970  -0.022728
   36  C  5  X   -0.003183  -0.161295  -0.080033  -0.044934   0.179351
   37  C  5  Y    0.152480   0.013863   0.062146   0.032475  -0.126348
   38  C  5  Z    0.046799   0.058955  -0.264511  -0.170602   0.532344
   39  C  6  S   -0.007154   0.006537  -0.000159  -0.000052   0.000498
   40  C  6  S    0.008075  -0.009240   0.000206   0.000058  -0.000356
   41  C  6  X   -0.018020   0.167660  -0.063172   0.032473  -0.049533
   42  C  6  Y   -0.131290   0.002564   0.052548  -0.027371   0.042387
   43  C  6  Z   -0.026735  -0.027297  -0.216757   0.113197  -0.172788
   44  C  6  S    0.032369   0.007260   0.000849  -0.003153  -0.011402
   45  C  6  X   -0.048915   0.121879  -0.077626   0.040377  -0.103248
   46  C  6  Y   -0.146168   0.025562   0.065417  -0.031892   0.087200
   47  C  6  Z   -0.023251  -0.006210  -0.261930   0.137871  -0.387838
   48  C  7  S   -0.000158  -0.001447  -0.000028   0.000227   0.000338
   49  C  7  S    0.000142   0.002742   0.000023  -0.000359  -0.000370
   50  C  7  X    0.000551  -0.106462  -0.000295   0.071065  -0.020419
   51  C  7  Y    0.138534  -0.010238   0.000379  -0.058867   0.016613
   52  C  7  Z    0.029297   0.052025  -0.000854   0.244233  -0.071689
   53  C  7  S    0.000406   0.001679   0.000172   0.000956  -0.000475
   54  C  7  X    0.000817  -0.130538  -0.000389   0.086404  -0.047722
   55  C  7  Y    0.096799  -0.012112   0.002087  -0.072954   0.031290
   56  C  7  Z    0.019153   0.058025  -0.000590   0.302420  -0.160727
   57  C  8  S    0.007023   0.006900   0.000153  -0.000072  -0.000445
   58  C  8  S   -0.007765  -0.009631  -0.000178   0.000074   0.000644
   59  C  8  X    0.010420   0.168949   0.062713   0.032961   0.068967
   60  C  8  Y   -0.127243   0.005626  -0.051722  -0.027738  -0.058014
   61  C  8  Z   -0.040562  -0.026787   0.215785   0.115299   0.244628
   62  C  8  S   -0.034281   0.005326  -0.001143  -0.002924   0.005135
   63  C  8  X    0.043491   0.124433   0.077167   0.040912   0.149873
   64  C  8  Y   -0.137537  -0.024400  -0.060793  -0.035219  -0.140505
   65  C  8  Z   -0.051029  -0.018765   0.261486   0.139972   0.543391
   66  C  9  S   -0.013110  -0.004339  -0.000318   0.000043   0.001284
   67  C  9  S    0.013684   0.004700   0.000735  -0.000365  -0.003008
   68  C  9  X   -0.049661  -0.159483   0.062848  -0.038897  -0.046439
   69  C  9  Y    0.153708   0.024449  -0.051153   0.033783   0.039194
   70  C  9  Z    0.043202   0.066396   0.218955  -0.135383  -0.169774
   71  C  9  S    0.041317  -0.015880  -0.003977   0.004235   0.020692
   72  C  9  X    0.008957  -0.160676   0.080481  -0.044675  -0.126229
   73  C  9  Y    0.156220  -0.034412  -0.065975   0.048829   0.113714
   74  C  9  Z    0.021284   0.046827   0.264818  -0.164952  -0.372035
   75  H 10  S    0.128863   0.056843   0.003787   0.038433   0.009631
   76  H 10  S    0.136660   0.071870  -0.007581   0.048468   0.149536
   77  H 11  S   -0.134200   0.050287  -0.004256   0.033205   0.008327
   78  H 11  S   -0.142970   0.065268   0.005860   0.041542  -0.057547
   79  H 12  S    0.085647   0.053979   0.000097  -0.000635   0.001229
   80  H 12  S    0.075772   0.041948   0.000846   0.004302   0.010604
   81  H 13  S   -0.096917   0.060330  -0.000444   0.000122   0.000989
   82  H 13  S   -0.082735   0.056581  -0.000854  -0.000016   0.006432
   83  H 14  S    0.001463  -0.098469   0.000004   0.000397   0.000419
   84  H 14  S    0.001250  -0.085176   0.000010   0.000966   0.002950
   85  H 15  S    0.094178   0.063673   0.000354   0.000120  -0.000386
   86  H 15  S    0.080263   0.059581   0.000739  -0.000037  -0.004219
   87  H 16  S   -0.085951   0.051524   0.000008  -0.000690  -0.001422
   88  H 16  S   -0.076993   0.039330  -0.000957   0.004311   0.009561
   89  H 17  S    0.003546  -0.128659   0.000421   0.032047   0.006321
   90  H 17  S    0.003653  -0.135166   0.001066   0.062011   0.049246
   91  H 18  S   -0.105210   0.035994  -0.010272   0.000038   0.010400
   92  H 18  S   -0.108367   0.040920   0.001962   0.026672  -0.061003

                     31         32         33         34         35
                    0.1494     0.2573     0.2859     0.3035     0.3277
                     A          A          A          A          A   
    1  C  1  S   -0.033824   0.035177  -0.089736  -0.004319  -0.108423
    2  C  1  S    0.017529  -0.007028   0.025577   0.000573   0.019306
    3  C  1  X    0.035310   0.018739  -0.063053   0.005179   0.040403
    4  C  1  Y   -0.008158  -0.009234   0.020141   0.104840   0.025760
    5  C  1  Z    0.053060   0.022106  -0.063457   0.022308  -0.129485
    6  C  1  S    0.316514  -0.496515   1.266656   0.062336   1.576827
    7  C  1  X    0.010567   0.020595  -0.252306   0.022381   0.227154
    8  C  1  Y   -0.021089  -0.065466   0.118277   0.342849   0.099707
    9  C  1  Z    0.152211   0.187065  -0.389814   0.067230  -0.486062
   10  H  2  S    0.006339  -0.005200  -0.003815   0.020320  -0.027165
   11  H  2  S    0.000515   0.247751  -0.635627   0.426743  -1.093572
   12  C  3  S   -0.001567   0.025972  -0.089713   0.004231   0.052437
   13  C  3  S   -0.001111  -0.000752   0.021615  -0.000588  -0.003992
   14  C  3  X   -0.007689   0.083099  -0.007992   0.004826   0.077034
   15  C  3  Y   -0.007406   0.021619  -0.021905   0.170033   0.006643
   16  C  3  Z    0.008705  -0.071071   0.085315   0.040971  -0.081589
   17  C  3  S    0.045891  -0.477149   1.300068  -0.060983  -0.777870
   18  C  3  X    0.066277   0.296997   0.024037   0.020837   0.393495
   19  C  3  Y   -0.061234   0.111931  -0.108518   0.701386  -0.003661
   20  C  3  Z    0.080088  -0.353148   0.405019   0.175256  -0.249848
   21  C  4  S   -0.001733   0.023369   0.008822   0.000864   0.010152
   22  C  4  S    0.001692  -0.006377  -0.008128   0.000331   0.006313
   23  C  4  X    0.068060   0.030224   0.008851   0.001475   0.040791
   24  C  4  Y   -0.060268  -0.002225   0.009112   0.039794   0.019486
   25  C  4  Z    0.248427   0.011412  -0.037622   0.006971  -0.097061
   26  C  4  S    0.010409  -0.404074   0.180858  -0.022248  -0.264014
   27  C  4  X    0.191637  -0.031692   0.347619  -0.007263   0.057752
   28  C  4  Y   -0.102929  -0.028121   0.053687   0.015204   0.043232
   29  C  4  Z    0.502848   0.093947  -0.207501  -0.002527  -0.180148
   30  C  5  S   -0.001685   0.049940  -0.004658  -0.017676   0.012041
   31  C  5  S    0.002287  -0.034116   0.019035   0.000069  -0.001028
   32  C  5  X   -0.018050   0.050087  -0.025229  -0.035028   0.035544
   33  C  5  Y    0.015894  -0.070970   0.008298   0.130444  -0.037337
   34  C  5  Z   -0.051497  -0.025270  -0.014120   0.055696   0.018207
   35  C  5  S   -0.006312  -0.484476  -0.077445   0.417263  -0.154612
   36  C  5  X   -0.041544   0.186785   0.038397  -0.196133   0.148949
   37  C  5  Y    0.063955  -0.392357   0.298356   0.445585  -0.228531
   38  C  5  Z   -0.102413  -0.156868   0.057524   0.195571   0.096846
   39  C  6  S    0.000068   0.033543   0.040866  -0.023500  -0.008617
   40  C  6  S   -0.000695  -0.008742  -0.024131   0.002863   0.005337
   41  C  6  X   -0.050487  -0.064361  -0.002828   0.031840  -0.000837
   42  C  6  Y    0.044412  -0.068454  -0.066623   0.095390   0.039016
   43  C  6  Z   -0.181446  -0.021485   0.023186   0.003667  -0.060804
   44  C  6  S    0.009580  -0.502603  -0.460219   0.424905   0.097286
   45  C  6  X   -0.117223  -0.159219  -0.061675   0.135322   0.000894
   46  C  6  Y    0.090470  -0.171975  -0.384047   0.287992   0.194358
   47  C  6  Z   -0.405931  -0.048708   0.010036   0.006783  -0.174162
   48  C  7  S   -0.000944   0.042653   0.019308  -0.000418  -0.012574
   49  C  7  S    0.001066  -0.024495   0.003802  -0.000354  -0.003885
   50  C  7  X    0.066856  -0.074309  -0.096681   0.004569   0.085389
   51  C  7  Y   -0.056578  -0.011202   0.004138   0.033292  -0.012264
   52  C  7  Z    0.233844   0.046931  -0.013750   0.009651   0.051451
   53  C  7  S    0.000805  -0.443309  -0.474175   0.014399   0.309649
   54  C  7  X    0.156675  -0.333856  -0.230740   0.011770   0.240462
   55  C  7  Y   -0.127554  -0.037400   0.010834   0.015642  -0.033620
   56  C  7  Z    0.519813   0.160785  -0.044205   0.008940   0.157746
   57  C  8  S   -0.000203   0.034135   0.040536   0.020423  -0.012944
   58  C  8  S   -0.000413  -0.009092  -0.023745  -0.001251   0.007196
   59  C  8  X   -0.014104  -0.063579  -0.004455  -0.031566  -0.001370
   60  C  8  Y    0.012803   0.071150   0.050770   0.083172  -0.013155
   61  C  8  Z   -0.053704   0.011889   0.052161   0.034581  -0.075618
   62  C  8  S    0.014623  -0.510335  -0.458332  -0.385978   0.159878
   63  C  8  X   -0.039398  -0.154880  -0.070009  -0.131895   0.003624
   64  C  8  Y    0.031124   0.179849   0.338184   0.238118  -0.123578
   65  C  8  Z   -0.118043   0.034917   0.186345   0.103308  -0.256771
   66  C  9  S   -0.001176   0.048975  -0.002529   0.018063   0.015415
   67  C  9  S    0.000656  -0.033063   0.017715  -0.000138  -0.002282
   68  C  9  X   -0.053475   0.049274  -0.022606   0.036982   0.036471
   69  C  9  Y    0.038081   0.075802   0.003364   0.143385   0.019545
   70  C  9  Z   -0.180239   0.010461  -0.016376   0.011722   0.036355
   71  C  9  S    0.006978  -0.480348  -0.104880  -0.415930  -0.183691
   72  C  9  X   -0.135346   0.192454   0.039757   0.196322   0.144033
   73  C  9  Y    0.065134   0.418246  -0.269448   0.508672   0.155784
   74  C  9  Z   -0.398273   0.036994  -0.079186   0.048785   0.198216
   75  H 10  S   -0.030724   0.000221   0.002087  -0.028629   0.032765
   76  H 10  S   -0.110633   0.421183  -0.721368  -0.748980   0.708576
   77  H 11  S   -0.027099   0.001536   0.001187   0.031838   0.023795
   78  H 11  S   -0.157179   0.445965  -0.709180   0.837574   0.556543
   79  H 12  S    0.000763   0.024019   0.044412  -0.005729   0.012063
   80  H 12  S   -0.031575   0.799466  -0.115848  -0.823951   0.304927
   81  H 13  S   -0.000667   0.033781   0.024129  -0.021480  -0.004189
   82  H 13  S   -0.001459   0.626202   0.635543  -0.633814  -0.225852
   83  H 14  S   -0.001184   0.044083   0.012031  -0.000265  -0.003344
   84  H 14  S   -0.008941   0.738836   0.507273  -0.019578  -0.384572
   85  H 15  S   -0.001066   0.034199   0.024459   0.020386  -0.005345
   86  H 15  S   -0.004648   0.631187   0.644762   0.586237  -0.289242
   87  H 16  S   -0.000103   0.024866   0.042994   0.005133   0.011227
   88  H 16  S   -0.031735   0.796637  -0.077521   0.836974   0.305324
   89  H 17  S   -0.024200   0.011873   0.002570   0.001973   0.038531
   90  H 17  S   -0.189442   0.226469  -0.664546   0.014404  -0.087073
   91  H 18  S    0.013917  -0.006377  -0.004148  -0.022789  -0.021637
   92  H 18  S   -0.032352   0.267598  -0.650063  -0.528421  -0.999645

                     36         37         38         39         40
                    0.3395     0.3429     0.3527     0.3624     0.3677
                     A          A          A          A          A   
    1  C  1  S    0.040902   0.004815   0.062983  -0.006303  -0.056492
    2  C  1  S   -0.014916  -0.001215  -0.009150   0.001264   0.009697
    3  C  1  X    0.156393   0.006722   0.105318   0.014655   0.180909
    4  C  1  Y    0.038378  -0.162376   0.008086  -0.138182  -0.009806
    5  C  1  Z   -0.078866  -0.047729  -0.053910  -0.048303   0.038895
    6  C  1  S   -0.543416  -0.068379  -0.882505   0.089029   0.739162
    7  C  1  X    0.790028   0.033466   0.470194   0.081491   1.004196
    8  C  1  Y    0.206713  -0.726997   0.066570  -0.896687  -0.074507
    9  C  1  Z   -0.435564  -0.224421  -0.407009  -0.287042   0.319250
   10  H  2  S   -0.010770  -0.045804  -0.015504  -0.013519   0.001603
   11  H  2  S   -0.202375  -0.835714  -0.047821  -0.871609  -0.314326
   12  C  3  S    0.009883  -0.000939  -0.091060   0.004856   0.069017
   13  C  3  S   -0.002971   0.000081   0.027824  -0.000957  -0.010484
   14  C  3  X   -0.034472  -0.004998   0.005024   0.003890   0.075215
   15  C  3  Y    0.001034  -0.108190   0.002840   0.181910  -0.028839
   16  C  3  Z   -0.021328  -0.029747   0.031876   0.053041   0.066090
   17  C  3  S   -0.093511   0.016364   1.248766  -0.073967  -0.973821
   18  C  3  X   -0.323219  -0.033896  -0.161831   0.015380   0.385377
   19  C  3  Y   -0.056899  -0.399946   0.013914   1.086231  -0.222163
   20  C  3  Z    0.066302  -0.104677   0.205332   0.332418   0.542245
   21  C  4  S    0.016691   0.000256  -0.012004   0.004119   0.003252
   22  C  4  S   -0.044307  -0.002342  -0.009964  -0.000674  -0.035120
   23  C  4  X   -0.055894  -0.003299   0.096113   0.001283   0.058334
   24  C  4  Y    0.000998   0.012169   0.007600   0.043402  -0.042226
   25  C  4  Z   -0.015194   0.005148  -0.020138   0.018139   0.144084
   26  C  4  S    0.203244   0.024304   0.467676  -0.076693   0.166326
   27  C  4  X   -0.082294  -0.003077   0.378914  -0.036017   0.164092
   28  C  4  Y    0.028675  -0.010728   0.041765   0.105394  -0.081112
   29  C  4  Z   -0.104589   0.004050  -0.146977   0.050871   0.294782
   30  C  5  S   -0.042537  -0.004013   0.027021   0.060674  -0.008931
   31  C  5  S    0.017893  -0.013418  -0.000308  -0.033748   0.000503
   32  C  5  X   -0.042911  -0.038745   0.081324   0.050149  -0.034064
   33  C  5  Y    0.041266   0.047978  -0.037681  -0.035851   0.055182
   34  C  5  Z    0.095676   0.031253   0.011150   0.022192  -0.138559
   35  C  5  S    0.513828   0.172578  -0.568587  -0.773301   0.058544
   36  C  5  X   -0.213125  -0.212150   0.352952   0.002470  -0.142647
   37  C  5  Y    0.362733   0.048177   0.043263  -0.249658   0.254967
   38  C  5  Z    0.350675   0.074191  -0.009661  -0.034634  -0.350788
   39  C  6  S    0.013738  -0.048922   0.035119  -0.033248   0.016985
   40  C  6  S   -0.010752   0.008420  -0.025201   0.021660  -0.011834
   41  C  6  X   -0.039848   0.051900   0.003053  -0.041510   0.036077
   42  C  6  Y   -0.024776   0.128221   0.016407  -0.024445  -0.045275
   43  C  6  Z   -0.085290   0.014106  -0.038989  -0.005555   0.146298
   44  C  6  S   -0.122889   0.863522  -0.362658   0.383134  -0.166168
   45  C  6  X   -0.112254   0.249763  -0.158658  -0.181038   0.043066
   46  C  6  Y   -0.277546   0.506892  -0.095530   0.034077  -0.242183
   47  C  6  Z   -0.290793   0.045881  -0.087295   0.047377   0.412630
   48  C  7  S    0.030722   0.001561  -0.071245   0.010391  -0.013962
   49  C  7  S    0.006617   0.000617   0.028599  -0.005145   0.011090
   50  C  7  X   -0.089262  -0.006696   0.136089  -0.014987  -0.036716
   51  C  7  Y   -0.026582  -0.012749  -0.001753  -0.016297   0.039071
   52  C  7  Z    0.113932   0.000531  -0.000089  -0.010231  -0.144077
   53  C  7  S   -0.727929  -0.041433   0.964755  -0.131766   0.112825
   54  C  7  X   -0.231860  -0.018103   0.699578  -0.098015  -0.000388
[...]
   13             0.000002   0.000827   0.000001   0.000146   0.000056
   14            -0.000003   0.000009   0.000068   0.001184  -0.000000
   15             0.000002   0.000306   0.000518   0.000147   0.000053
   16             0.000056  -0.000001   0.000038   0.000034   0.000688
   17            -0.000007  -0.000000  -0.000000  -0.000000  -0.000000
   18            -0.000001  -0.000000   0.000000   0.000000   0.000000

                      6          7          8          9         10

                  2.000000   2.000000   2.000000   2.000000   2.000000

    1             0.000079   0.004625   1.987131   0.012446   0.305657
    2            -0.000001   0.000008   0.002894   0.000547   0.014061
    3             0.030686   1.952160   0.003872   0.085627   0.676137
    4             0.017258   0.005809   0.000445   0.392139   0.245094
    5             0.919073   0.013880  -0.000008   0.339853   0.028657
    6             0.017220   0.001183  -0.000001   0.263788   0.153820
    7             0.048615   0.000767   0.000000   0.275033   0.287418
    8             0.017784   0.001182  -0.000000   0.263930   0.155075
    9             0.948300   0.014713  -0.000006   0.339314   0.028654
   10             0.000037   0.002788   0.000038   0.001544   0.025382
   11             0.000038   0.002797   0.000038   0.001694   0.025785
   12             0.000241   0.000029   0.000000   0.007096   0.001512
   13             0.000214   0.000013   0.000000   0.002856   0.007461
   14            -0.000020  -0.000001   0.000000   0.004051   0.013316
   15             0.000218   0.000013   0.000000   0.002862   0.007518
   16             0.000260   0.000027   0.000000   0.007104   0.001465
   17            -0.000002  -0.000001   0.002695  -0.000462   0.008840
   18            -0.000001   0.000008   0.002900   0.000579   0.014147

                     11         12         13         14         15

                  2.000000   2.000000   2.000000   2.000000   2.000000

    1             0.000145   0.543013   0.578300   0.002057   0.099223
    2             0.000016   0.032343   0.071988   0.000736   0.020091
    3             0.001849   0.206950   0.409524   0.026648   0.244099
    4             0.069177   0.238083   0.136820   0.248241   0.250464
    5             0.432879   0.156043   0.089394   0.298948   0.205285
    6             0.435516   0.088716   0.074791   0.306072   0.228499
    7             0.058037   0.329065   0.166407   0.206041   0.165665
    8             0.432420   0.090841   0.075093   0.303054   0.231167
    9             0.434896   0.154957   0.088359   0.301549   0.203282
   10             0.000416   0.011024   0.048124   0.004994   0.056238
   11             0.000500   0.010829   0.048842   0.005360   0.055684
   12             0.033663   0.010679   0.008394   0.072726   0.028054
   13             0.033427   0.004795   0.000907   0.075150   0.052692
   14             0.000000   0.032685   0.040906   0.000015   0.050262
   15             0.033161   0.005034   0.001307   0.073070   0.054876
   16             0.033864   0.010643   0.007367   0.074773   0.026712
   17             0.000000   0.042048   0.080885   0.000021   0.007884
   18             0.000033   0.032249   0.072591   0.000546   0.019822

                     16         17         18         19         20

                  2.000000   2.000000   2.000000   2.000000   2.000000

    1             0.028502   0.122446   0.082539   0.384566   0.151440
    2             0.006761   0.034456   0.009297   0.034579   0.047315
    3             0.112432   0.311923   0.165118   0.236524   0.102882
    4             0.073758   0.214205   0.141421   0.229864   0.115934
    5             0.231428   0.202127   0.179903   0.089955   0.218224
    6             0.188363   0.237971   0.228511   0.107553   0.257530
    7             0.377725   0.210997   0.105105   0.191033   0.130655
    8             0.187188   0.236448   0.229239   0.093092   0.282071
    9             0.231268   0.202779   0.180363   0.102854   0.196657
   10             0.021300   0.087665   0.031873   0.033863   0.030485
   11             0.020596   0.091335   0.028545   0.020534   0.035444
   12             0.104831   0.000555   0.113437   0.036794   0.078660
   13             0.059765   0.006434   0.145920   0.053394   0.107392
   14             0.183736   0.000015   0.059925   0.075454   0.000244
   15             0.059159   0.005531   0.146260   0.047880   0.117513
   16             0.105046   0.000318   0.113553   0.038766   0.070416
   17             0.001035   0.000044   0.032235   0.202916   0.000374
   18             0.007107   0.034750   0.006755   0.020378   0.056763

                     21         22         23         24         25

                  2.000000   2.000000   2.000000   2.000000   2.000000

    1             0.357414   0.397435   0.547623   0.305208   0.241250
    2             0.110587   0.003706   0.126841   0.140118   0.034037
    3             0.189894   0.320832   0.230563   0.220285   0.274647
    4             0.017394   0.217412   0.117298   0.075577   0.084708
    5             0.220591   0.128210   0.112936   0.106038   0.184792
    6             0.184240   0.086320   0.089991   0.132021   0.280661
    7             0.022897   0.294805   0.149210   0.147171   0.315634
    8             0.180557   0.078919   0.090854   0.133897   0.280532
    9             0.232863   0.120436   0.114318   0.110398   0.184564
   10             0.054519   0.002990   0.039786   0.093168   0.048994
   11             0.059592   0.003816   0.034320   0.105828   0.040704
   12             0.075117   0.022245   0.012587   0.077235   0.000043
   13             0.044936   0.002042   0.004574   0.057819   0.000648
   14             0.000282   0.160852   0.066490   0.000001   0.000311
   15             0.040974   0.002389   0.004128   0.059292   0.000055
   16             0.082417   0.019386   0.013276   0.079295   0.000251
   17             0.000219   0.136283   0.136785   0.000034   0.001308
   18             0.125508   0.001922   0.108420   0.156614   0.026860

                     26         27         28         29

                  2.000000   2.000000   2.000000   2.000000

    1             0.170383   0.188075   0.001505   0.051382
    2             0.085037   0.016303   0.000331   0.002091
    3             0.278282   0.334615   0.000876   0.022036
    4             0.177935   0.384175  -0.000002   0.603134
    5             0.162136   0.149656   0.500952   0.195539
    6             0.113988   0.141226   0.497896   0.133483
    7             0.090171   0.094928   0.000010   0.629925
    8             0.110996   0.144676   0.492611   0.138424
    9             0.155519   0.154146   0.505208   0.191514
   10             0.143123   0.033238   0.000105   0.011002
   11             0.155948   0.026814   0.000098   0.008229
   12             0.060276   0.023314   0.000001   0.000015
   13             0.072702   0.029220   0.000002   0.000000
   14             0.000016   0.074289  -0.000000   0.000002
   15             0.068586   0.032503   0.000001   0.000000
   16             0.061554   0.021040   0.000002   0.000014
   17             0.000103   0.140142   0.000002   0.011373
   18             0.093246   0.011641   0.000402   0.001835

               ----- POPULATIONS IN EACH AO -----
                             MULLIKEN      LOWDIN
              1  C  1  S      1.98826     1.97652
              2  C  1  S      0.35202     0.41599
              3  C  1  X      0.53362     0.50581
              4  C  1  Y      0.54339     0.51079
              5  C  1  Z      0.52602     0.49980
              6  C  1  S      1.11962     0.58547
              7  C  1  X      0.48832     0.57574
              8  C  1  Y      0.55655     0.60633
              9  C  1  Z      0.45510     0.57227
             10  H  2  S      0.46659     0.46907
             11  H  2  S      0.32755     0.44014
             12  C  3  S      1.98936     1.97612
             13  C  3  S      0.34336     0.40879
             14  C  3  X      0.52121     0.50751
             15  C  3  Y      0.54854     0.51924
             16  C  3  Z      0.53262     0.50775
             17  C  3  S      1.14914     0.55992
             18  C  3  X      0.31017     0.51335
             19  C  3  Y      0.57413     0.58756
             20  C  3  Z      0.47280     0.56708
             21  C  4  S      1.98868     1.97655
             22  C  4  S      0.39283     0.41344
             23  C  4  X      0.56745     0.55718
             24  C  4  Y      0.60346     0.58390
             25  C  4  Z      0.41765     0.40347
             26  C  4  S      0.84147     0.51689
             27  C  4  X      0.37109     0.50512
             28  C  4  Y      0.32230     0.50062
             29  C  4  Z      0.53637     0.56860
             30  C  5  S      1.98831     1.97677
             31  C  5  S      0.39505     0.41434
             32  C  5  X      0.59234     0.56921
             33  C  5  Y      0.57742     0.55214
             34  C  5  Z      0.43174     0.41897
             35  C  5  S      0.89307     0.53386
             36  C  5  X      0.32695     0.50425
             37  C  5  Y      0.42802     0.52661
             38  C  5  Z      0.59685     0.61255
             39  C  6  S      1.98822     1.97685
             40  C  6  S      0.39695     0.41422
             41  C  6  X      0.59322     0.56875
             42  C  6  Y      0.58060     0.55356
             43  C  6  Z      0.42508     0.41118
             44  C  6  S      0.88647     0.53621
             45  C  6  X      0.33936     0.50740
             46  C  6  Y      0.46615     0.53544
             47  C  6  Z      0.55418     0.59289
             48  C  7  S      1.98818     1.97680
             49  C  7  S      0.39531     0.41307
             50  C  7  X      0.56992     0.54249
             51  C  7  Y      0.60316     0.57967
             52  C  7  Z      0.42992     0.41654
             53  C  7  S      0.89071     0.53646
             54  C  7  X      0.51232     0.54826
             55  C  7  Y      0.27490     0.49136
             56  C  7  Z      0.58196     0.60670
             57  C  8  S      1.98822     1.97685
             58  C  8  S      0.39695     0.41423
             59  C  8  X      0.59333     0.56888
             60  C  8  Y      0.58443     0.55778
             61  C  8  Z      0.42125     0.40697
             62  C  8  S      0.88652     0.53621
             63  C  8  X      0.33896     0.50728
             64  C  8  Y      0.43980     0.52921
             65  C  8  Z      0.58091     0.59921
             66  C  9  S      1.98831     1.97677
             67  C  9  S      0.39512     0.41444
             68  C  9  X      0.59238     0.56927
             69  C  9  Y      0.57495     0.54912
             70  C  9  Z      0.43396     0.42171
             71  C  9  S      0.89269     0.53391
             72  C  9  X      0.32781     0.50431
             73  C  9  Y      0.46287     0.53430
             74  C  9  Z      0.56206     0.60516
             75  H 10  S      0.46653     0.47716
             76  H 10  S      0.31616     0.43290
             77  H 11  S      0.46695     0.47758
             78  H 11  S      0.31640     0.43305
             79  H 12  S      0.47185     0.47236
             80  H 12  S      0.29649     0.42982
             81  H 13  S      0.47272     0.47251
             82  H 13  S      0.29067     0.42642
             83  H 14  S      0.47229     0.47207
             84  H 14  S      0.29180     0.42719
             85  H 15  S      0.47267     0.47245
             86  H 15  S      0.29069     0.42644
             87  H 16  S      0.47191     0.47244
             88  H 16  S      0.29645     0.42975
             89  H 17  S      0.46805     0.47015
             90  H 17  S      0.33671     0.44475
             91  H 18  S      0.46668     0.46914
             92  H 18  S      0.32839     0.44062

          ----- MULLIKEN ATOMIC OVERLAP POPULATIONS -----
          (OFF-DIAGONAL ELEMENTS NEED TO BE MULTIPLIED BY 2)

             1           2           3           4           5

    1    5.3692227
    2    0.3756065   0.5097435
    3    0.2567951  -0.0437557   5.3870908
    4   -0.1024130  -0.0013553   0.2490172   5.3434007
    5   -0.0001621   0.0001855  -0.0573988   0.4621070   5.1688252
    6    0.0000397  -0.0000040   0.0016537  -0.1025430   0.4743221
    7   -0.0000014  -0.0000027   0.0001214  -0.0027055  -0.1051842
    8    0.0000185  -0.0000117   0.0017380  -0.1028496  -0.0035000
    9   -0.0001173   0.0018040  -0.0564499   0.4648381  -0.0843923
   10   -0.0420112   0.0028308   0.3940845  -0.0508288  -0.0008509
   11   -0.0416128  -0.0014583   0.3946033  -0.0513694   0.0023679
   12   -0.0000071  -0.0000011  -0.0014260  -0.0359026   0.3999329
   13    0.0000013   0.0000000  -0.0000417   0.0023709  -0.0327667
   14   -0.0000000  -0.0000000   0.0000011  -0.0001324   0.0022908
   15    0.0000012   0.0000004  -0.0000417   0.0023760  -0.0001076
   16   -0.0000136   0.0002259  -0.0013949  -0.0358102   0.0021219
   17    0.3719496  -0.0245587  -0.0395809   0.0046568  -0.0000213
   18    0.3756048  -0.0251069  -0.0436824  -0.0015409   0.0019784

             6           7           8           9          10

    6    5.1590426
    7    0.4723034   5.1766548
    8   -0.1085243   0.4726172   5.1599067
    9   -0.0035675  -0.1052726   0.4735538   5.1667803
   10    0.0001392   0.0000022  -0.0000583   0.0022257   0.5023905
   11   -0.0000578   0.0000014   0.0001566  -0.0007421  -0.0236770
   12   -0.0297144   0.0021517  -0.0000555   0.0021066   0.0010242
   13    0.3967232  -0.0318730   0.0022405  -0.0001064  -0.0000004
   14   -0.0317468   0.3972933  -0.0318016   0.0022939  -0.0000000
   15    0.0022383  -0.0318723   0.3966838  -0.0326942   0.0000005
   16   -0.0000561   0.0021541  -0.0297537   0.3997583   0.0000197
   17   -0.0000000  -0.0000000  -0.0000000  -0.0000216  -0.0011061
   18   -0.0000123  -0.0000023  -0.0000025   0.0001539  -0.0014898

            11          12          13          14          15

   11    0.5023551
   12    0.0000203   0.4311981
   13    0.0000005  -0.0012314   0.4293111
   14   -0.0000000  -0.0000335  -0.0012012   0.4283649
   15   -0.0000005   0.0000015  -0.0000334  -0.0012048   0.4292434
   16    0.0011695  -0.0000393   0.0000014  -0.0000335  -0.0012330
   17   -0.0012105   0.0000029  -0.0000000   0.0000000  -0.0000000
   18    0.0028130   0.0003071   0.0000005  -0.0000000   0.0000000

            16          17          18

   16    0.4312480
   17    0.0000026   0.5193874
   18   -0.0000010  -0.0247430   0.5107995

          TOTAL MULLIKEN AND LOWDIN ATOMIC POPULATIONS
       ATOM         MULL.POP.    CHARGE          LOW.POP.     CHARGE
    1 C             6.562901   -0.562901         6.248725   -0.248725
    2 H             0.794142    0.205858         0.909219    0.090781
    3 C             6.441333   -0.441333         6.147330   -0.147330
    4 C             6.041316   -0.041316         6.025767   -0.025767
    5 C             6.229748   -0.229748         6.108695   -0.108695
    6 C             6.230236   -0.230236         6.096516   -0.096516
    7 C             6.246385   -0.246385         6.111346   -0.111346
    8 C             6.230358   -0.230358         6.096617   -0.096617
    9 C             6.230151   -0.230151         6.108997   -0.108997
   10 H             0.782695    0.217305         0.910058    0.089942
   11 H             0.783359    0.216641         0.910627    0.089373
   12 H             0.768334    0.231666         0.902183    0.097817
   13 H             0.763395    0.236605         0.898926    0.101074
   14 H             0.764090    0.235910         0.899256    0.100744
   15 H             0.763358    0.236642         0.898890    0.101110
   16 H             0.768366    0.231634         0.902192    0.097808
   17 H             0.804757    0.195243         0.914897    0.085103
   18 H             0.795076    0.204924         0.909758    0.090242

          -------------------------------
          BOND ORDER AND VALENCE ANALYSIS     BOND ORDER THRESHOLD=0.050
          -------------------------------

                   BOND                       BOND                       BOND
  ATOM PAIR DIST  ORDER      ATOM PAIR DIST  ORDER      ATOM PAIR DIST  ORDER
    1   2  1.095  0.926        1   3  1.551  0.902        1  17  1.096  0.929
    1  18  1.095  0.926        3   4  1.521  0.931        3  10  1.097  0.924
    3  11  1.097  0.925        4   5  1.402  1.384        4   7  2.815  0.102
    4   9  1.402  1.388        5   6  1.397  1.410        5   8  2.788  0.104
    5  12  1.086  0.943        6   7  1.397  1.401        6   9  2.788  0.104
    6  13  1.084  0.939        7   8  1.397  1.402        7  14  1.084  0.940
    8   9  1.397  1.408        8  15  1.085  0.939        9  16  1.086  0.943

                       TOTAL       BONDED        FREE
      ATOM            VALENCE     VALENCE     VALENCE
    1 C                 3.655       3.655       0.000
    2 H                 0.916       0.916       0.000
    3 C                 3.611       3.611      -0.000
    4 C                 3.649       3.649      -0.000
    5 C                 3.743       3.743       0.000
    6 C                 3.752       3.752       0.000
    7 C                 3.749       3.749      -0.000
    8 C                 3.752       3.752       0.000
    9 C                 3.745       3.745       0.000
   10 H                 0.909       0.909      -0.000
   11 H                 0.910       0.910       0.000
   12 H                 0.923       0.923       0.000
   13 H                 0.919       0.919       0.000
   14 H                 0.920       0.920       0.000
   15 H                 0.919       0.919       0.000
   16 H                 0.923       0.923       0.000
   17 H                 0.920       0.920       0.000
   18 H                 0.916       0.916       0.000

          ---------------------
          ELECTROSTATIC MOMENTS
          ---------------------

 POINT   1           X           Y           Z (BOHR)    CHARGE
                 2.843825   -0.193009    0.185187        0.00 (A.U.)
         DX          DY          DZ         /D/  (DEBYE)
    -0.301841    0.003719   -0.002285    0.301872
 ...... END OF PROPERTY EVALUATION ......
 CPU     0: STEP CPU TIME=     0.03 TOTAL CPU TIME=          1.2 (      0.0 MIN)
 TOTAL WALL CLOCK TIME=          1.8 SECONDS, CPU UTILIZATION IS    71.43%
               580000  WORDS OF DYNAMIC MEMORY USED
 EXECUTION OF GAMESS TERMINATED NORMALLY Sun May 17 16:12:46 2020
 DDI: 263640 bytes (0.3 MB / 0 MWords) used by master data server.
Note: The following floating-point exceptions are signalling: IEEE_DENORMALNote: The following floating-point exceptions are signalling: IEEE_DENORMALNote: The following floating-point exceptions are signalling:
 ----------------------------------------
 CPU timing information for all processes
 ========================================
 0: 1.137 + 0.129 = 1.266
 1: 0.961 + 0.20 = 0.981
 2: 1.33 + 0.19 = 1.53
 3: 0.988 + 0.16 = 1.05
 4: 1.43 + 0.11 = 1.55
 5: 1.17 + 0.06 = 1.23
 ----------------------------------------


 IEEE_DENORMAL
Note: The following floating-point exceptions are signalling: IEEE_DENORMALNote: The following floating-point exceptions are signalling: IEEE_DENORMALNote: The following floating-point exceptions are signalling: IEEE_DENORMAL


 ddikick.x: exited gracefully.
unset echo
----- accounting info -----
Files used on the master node pietdev were:
-rwxr-xr-x 1 piet piet     1105 mei 17 16:12 /home/piet/scr/phenylalanine_fukui_neu.F05*
-rw-r--r-- 1 piet piet 49152000 mei 17 16:12 /home/piet/scr/phenylalanine_fukui_neu.F10
ls: No match.
ls: No match.
ls: No match.
zo 17 mei 2020 16:12:49 CEST
0.126u 0.014s 0:04.91 2.6%	0+0k 0+8io 0pf+0w
