----- GAMESS execution script 'rungms' -----
This job is running on host pietdev
under operating system Linux at zo 17 mei 2020 16:12:44 CEST
Available scratch disk space (Kbyte units) at beginning of the job is
Filesystem     1K-blocks     Used Available Use% Mounted on
/dev/sda2      244568380 30391780 201683544  14% /
GAMESS temporary binary files will be written to /home/piet/scr
GAMESS supplementary output files will be written to /home/piet/gamess/scr
Copying input file phenylalanine_fukui_acid.inp to your run's scratch directory...
cp phenylalanine_fukui_acid.inp /home/piet/scr/phenylalanine_fukui_acid.F05
unset echo
 
Assuming a single but multicore node.
 
/home/piet/gamess/ddikick.x /home/piet/gamess/gamess.03.x phenylalanine_fukui_acid -ddi 1 6 pietdev:cpus=6 -scr /home/piet/scr

 Distributed Data Interface kickoff program.
 Initiating 6 compute processes on 1 nodes to run the following command:
 /home/piet/gamess/gamess.03.x phenylalanine_fukui_acid 

          ******************************************************
          *         GAMESS VERSION = 30 SEP 2019 (R2)          *
          *             FROM IOWA STATE UNIVERSITY             *
          * M.W.SCHMIDT, K.K.BALDRIDGE, J.A.BOATZ, S.T.ELBERT, *
          *   M.S.GORDON, J.H.JENSEN, S.KOSEKI, N.MATSUNAGA,   *
          *          K.A.NGUYEN, S.J.SU, T.L.WINDUS,           *
          *       TOGETHER WITH M.DUPUIS, J.A.MONTGOMERY       *
          *         J.COMPUT.CHEM.  14, 1347-1363(1993)        *
          **************** 64 BIT LINUX VERSION ****************

  SINCE 1993, STUDENTS AND POSTDOCS WORKING AT IOWA STATE UNIVERSITY
  AND ALSO IN THEIR VARIOUS JOBS AFTER LEAVING ISU HAVE MADE IMPORTANT
  CONTRIBUTIONS TO THE CODE:
     IVANA ADAMOVIC, CHRISTINE AIKENS, YURI ALEXEEV, POOJA ARORA,
     ANDREY ASADCHEV, ROB BELL, PRADIPTA BANDYOPADHYAY, JONATHAN BENTZ,
     COLLEEN BERTONI, BRETT BODE, KURT BRORSEN, CALEB CARLIN, GALINA CHABAN,
     WEI CHEN, CHEOL HO CHOI, PAUL DAY, ALBERT DEFUSCO, NUWAN DESILVA,
     TIM DUDLEY, DMITRI FEDOROV, ALEX FINDLATER, GRAHAM FLETCHER, 
     MARK FREITAG, KURT GLAESEMANN, EMILIE B GUIDEZ, ANASTASIA GUNINA, 
     DAN KEMP, SAROM SOK LEANG, GRANT MERRILL,
     NORIYUKI MINEZAWA, JONATHAN MULLIN,
     TAKESHI NAGATA, SEAN NEDD, HEATHER NETZLOFF, BOSILJKA NJEGIC, RYAN OLSON,
     MIKE PAK, BUU PHAM, DAVID POOLE,
     SPENCER PRUITT, LUKE ROSKOP, TOSAPORN SATTASATHUCHANA,
     JIM SHOEMAKER, LYUDMILA SLIPCHENKO,
     TONY SMITH, JIE SONG, TETSUYA TAKETSUGU, SIMON WEBB,
     JORGE LUIS GALVEZ VALLEJO, PENG XU, SOOHAENG YOO,
     FEDERICO ZAHARIEV

  ADDITIONAL CODE HAS BEEN PROVIDED BY COLLABORATORS IN OTHER GROUPS:
     IOWA STATE UNIVERSITY:
          JOE IVANIC, AARON WEST, LAIMUTIS BYTAUTAS, KLAUS RUEDENBERG
     UNIVERSITY OF TOKYO: KIMIHIKO HIRAO, TAKAHITO NAKAJIMA,
          TAKAO TSUNEDA, MUNEAKI KAMIYA, SUSUMU YANAGISAWA,
          KIYOSHI YAGI, MAHITO CHIBA, SEIKEN TOKURA, NAOAKI KAWAKAMI
     UNIVERSITY OF AARHUS: FRANK JENSEN
     UNIVERSITY OF IOWA: VISVALDAS KAIRYS, HUI LI
     NATIONAL INST. OF STANDARDS AND TECHNOLOGY: WALT STEVENS, DAVID GARMER
     UNIVERSITY OF PISA: BENEDETTA MENNUCCI, JACOPO TOMASI
     UNIVERSITY OF MEMPHIS: HENRY KURTZ, PRAKASHAN KORAMBATH
     UNIVERSITY OF ALBERTA: TOBY ZENG, MARIUSZ KLOBUKOWSKI
     UNIVERSITY OF NEW ENGLAND: MARK SPACKMAN
     MIE UNIVERSITY: HIROAKI UMEDA
     NAT. INST. OF ADVANCED INDUSTRIAL SCIENCE AND TECHNOLOGY: KAZUO KITAURA
     MICHIGAN STATE UNIVERSITY:
          KAROL KOWALSKI, MARTA WLOCH, JEFFREY GOUR, JESSE LUTZ,
          WEI LI, JUN SHEN, J. EMILIANO DEUSTUA, PIOTR PIECUCH
     UNIVERSITY OF MINNESOTA:
          ANDREW SAND, PRACHI SHARMA, YINAN SHU
     UNIVERSITY OF SILESIA: MONIKA MUSIAL, STANISLAW KUCHARSKI
     FACULTES UNIVERSITAIRES NOTRE-DAME DE LA PAIX:
          OLIVIER QUINET, BENOIT CHAMPAGNE
     UNIVERSITY OF CALIFORNIA - SANTA BARBARA: BERNARD KIRTMAN
     INSTITUTE FOR MOLECULAR SCIENCE:
          KAZUYA ISHIMURA, MICHIO KATOUDA, AND SHIGERU NAGASE
     UNIVERSITY OF NOTRE DAME: ANNA POMOGAEVA, DAN CHIPMAN
     KYUSHU UNIVERSITY:
          HARUYUKI NAKANO,
          FENG LONG GU, JACEK KORCHOWIEC, MARCIN MAKOWSKI, AND YURIKO AOKI,
          HIROTOSHI MORI AND EISAKU MIYOSHI
     PENNSYLVANIA STATE UNIVERSITY:
          TZVETELIN IORDANOV, CHET SWALINA, JONATHAN SKONE,
          SHARON HAMMES-SCHIFFER
     WASEDA UNIVERSITY:
          MASATO KOBAYASHI, TOMOKO AKAMA, TSUGUKI TOUMA,
          TAKESHI YOSHIKAWA, YASUHIRO IKABATA, JUNJI SEINO,
          YUYA NAKAJIMA, HIROMI NAKAI
     NANJING UNIVERSITY: SHUHUA LI
     UNIVERSITY OF NEBRASKA:
          PEIFENG SU, DEJUN SI, NANDUN THELLAMUREGE, YALI WANG, HUI LI
     UNIVERSITY OF ZURICH: ROBERTO PEVERATI, KIM BALDRIDGE
     N. COPERNICUS UNIVERSITY AND JACKSON STATE UNIVERSITY:
          MARIA BARYSZ
     UNIVERSITY OF COPENHAGEN: Jimmy Kromann, CASPER STEINMANN
     TOKYO INSTITUTE OF TECHNOLOGY: HIROYA NAKATA
     NAGOYA UNIVERSITY: YOSHIO NISHIMOTO, STEPHAN IRLE
     MOSCOW STATE UNIVERSITY: VLADIMIR MIRONOV
     A.N.NESMEYANOV INSTITUTE OF ORGANOELEMENT COMPOUNDS OF RUSSIAN ACADEMY OF SCIENCES:
          IGOR S. GERASIMOV
     JOHANNES KEPLER UNIVERSITY LINZ:
          CHRISTIAN FRIEDL


 PARALLEL VERSION RUNNING ON        6 PROCESSORS IN        1 NODES.

 EXECUTION OF GAMESS BEGUN Sun May 17 16:12:44 2020

            ECHO OF THE FIRST FEW INPUT CARDS -
 INPUT CARD> $BASIS GBASIS=N21 NGAUSS=3 $END                                                
 INPUT CARD> $CONTRL SCFTYP=UHF MAXIT=60 MULT=2 ICHARG=-1 $END                              
 INPUT CARD> $SYSTEM MEMDDI=1000 MWORDS=30 $END                                             
 INPUT CARD> $SCF DIRSCF=.TRUE. $END                                                        
 INPUT CARD> $STATPT OPTTOL=0.0001 NSTEP=999 $END                                           
 INPUT CARD> $DATA                                                                          
 INPUT CARD>                                                                                
 INPUT CARD>C1                                                                              
 INPUT CARD>C 6.0000000 -1.3325916150 0.0708500242 -0.4137541981                            
 INPUT CARD>H 1.0000000 -1.1302963780 -0.6185936306 -1.2402663453                           
 INPUT CARD>C 6.0000000 -0.4388630896 -0.2782371527 0.8054787988                            
 INPUT CARD>C 6.0000000 1.0367623932 -0.1937984185 0.4483441907                             
 INPUT CARD>C 6.0000000 1.7259535085 1.0232957270 0.5407446877                              
 INPUT CARD>C 6.0000000 3.0700130883 1.1128043761 0.1715227951                              
 INPUT CARD>C 6.0000000 3.7452742024 -0.0170017362 -0.2973609268                            
 INPUT CARD>C 6.0000000 3.0679990408 -1.2349274667 -0.3942065418                            
 INPUT CARD>C 6.0000000 1.7235985824 -1.3203848433 -0.0247054454                            
 INPUT CARD>H 1.0000000 -0.6609770157 0.4117600005 1.6288775686                             
 INPUT CARD>H 1.0000000 -0.6752607880 -1.2916709946 1.1518925659                            
 INPUT CARD>H 1.0000000 1.2069026027 1.9027900501 0.9092872995                              
 INPUT CARD>H 1.0000000 3.5898386530 2.0610810663 0.2533011461                              
 INPUT CARD>H 1.0000000 4.7893825784 0.0503686603 -0.5816659420                             
 INPUT CARD>H 1.0000000 3.5860556132 -2.1175102670 -0.7533043217                            
 INPUT CARD>H 1.0000000 1.2024233478 -2.2699357363 -0.0980300720                            
 INPUT CARD>H 1.0000000 -2.3947755488 0.0037356837 -0.1510568460                            
 INPUT CARD>H 1.0000000 -1.1208691755 1.0884446579 -0.7593084133                            
 INPUT CARD> $END                                                                           
   30000000 WORDS OF MEMORY AVAILABLE

     BASIS OPTIONS
     -------------
     GBASIS=N21          IGAUSS=       3      POLAR=NONE    
     NDFUNC=       0     NFFUNC=       0     DIFFSP=       F
     NPFUNC=       0      DIFFS=       F     BASNAM=        


     RUN TITLE
     ---------
                                                                                 

 THE POINT GROUP OF THE MOLECULE IS C1      
 THE ORDER OF THE PRINCIPAL AXIS IS     0

 ATOM      ATOMIC                      COORDINATES (BOHR)
           CHARGE         X                   Y                   Z
 C           6.0    -2.5182330059        0.1338871320       -0.7818820607
 H           1.0    -2.1359504393       -1.1689724596       -2.3437635444
 C           6.0    -0.8293309855       -0.5257919782        1.5221342187
 C           6.0     1.9591968375       -0.3662259078        0.8472476686
 C           6.0     3.2615791986        1.9337485284        1.0218592891
 C           6.0     5.8014835156        2.1028953488        0.3241310834
 C           6.0     7.0775419914       -0.0321286227       -0.5619306711
 C           6.0     5.7976775177       -2.3336745268       -0.7449423466
 C           6.0     3.2571290336       -2.4951655522       -0.0466865222
 H           1.0    -1.2490654439        0.7781135736        3.0781322722
 H           1.0    -1.2760578596       -2.4409042461        2.1767613168
 H           1.0     2.2807152130        3.5957518069        1.7183038402
 H           1.0     6.7838113943        3.8948784538        0.4786697585
 H           1.0     9.0506207235        0.0951829663       -1.0991892468
 H           1.0     6.7766624857       -4.0015141808       -1.4235387534
 H           1.0     2.2722506486       -4.2895565513       -0.1852499746
 H           1.0    -4.5254695893        0.0070594186       -0.2854560475
 H           1.0    -2.1181356098        2.0568621562       -1.4348848413

          INTERNUCLEAR DISTANCES (ANGS.)
          ------------------------------

                1 C          2 H          3 C          4 C          5 C     

   1 C       0.0000000    1.0951613 *  1.5514966 *  2.5351708 *  3.3425917  
   2 H       1.0951613 *  0.0000000    2.1860914 *  2.7799281 *  3.7451254  
   3 C       1.5514966 *  2.1860914 *  0.0000000    1.5205741 *  2.5397840 *
   4 C       2.5351708 *  2.7799281 *  1.5205741 *  0.0000000    1.4017276 *
   5 C       3.3425917    3.7451254    2.5397840 *  1.4017276 *  0.0000000  
   6 C       4.5619235    4.7574665    3.8274154    2.4326836 *  1.3967221 *
   7 C       5.0799593    5.0022167    4.3349169    2.8148480 *  2.4212179 *
   8 C       4.5902761    4.3268197    3.8278693    2.4330565 *  2.7883314 *
   9 C       3.3804130    3.1803798    2.5399839 *  1.4016836 *  2.4109289 *
  10 H       2.1770692 *  3.0844572    1.0970033 *  2.1546877 *  2.6935936 *
  11 H       2.1771075 *  2.5263639 *  1.0967837 *  2.1520520 *  3.3909295  
  12 H       3.3993343    4.0546832    2.7342642 *  2.1533925 *  1.0857015 *
  13 H       5.3512898    5.6294827    4.6912416    3.4118502    2.1526008 *
  14 H       6.1243107    5.9936520    5.4191056    3.8990636    3.4045544  
  15 H       5.3941918    4.9727115    4.6917695    3.4122606    3.8728807  
  16 H       3.4648608    3.0778590    2.7344127 *  2.1532103 *  3.3952158  
  17 H       1.0962431 *  1.7811734 *  2.1954641 *  3.4890907    4.3009883  
  18 H       1.0953232 *  1.7735245 *  2.1866665 *  2.7853090 *  3.1303006  

                6 C          7 C          8 C          9 C         10 H     

   1 C       4.5619235    5.0799593    4.5902761    3.3804130    2.1770692 *
   2 H       4.7574665    5.0022167    4.3268197    3.1803798    3.0844572  
   3 C       3.8274154    4.3349169    3.8278693    2.5399839 *  1.0970033 *
   4 C       2.4326836 *  2.8148480 *  2.4330565 *  1.4016836 *  2.1546877 *
   5 C       1.3967221 *  2.4212179 *  2.7883314 *  2.4109289 *  2.6935936 *
   6 C       0.0000000    1.3972442 *  2.4149324 *  2.7877854 *  4.0664030  
   7 C       1.3972442 *  0.0000000    1.3969337 *  2.4208100 *  4.8279686  
   8 C       2.4149324 *  1.3969337 *  0.0000000    1.3968703 *  4.5507924  
   9 C       2.7877854 *  2.4208100 *  1.3968703 *  0.0000000    3.3794768  
  10 H       4.0664030    4.8279686    4.5507924    3.3794768    0.0000000  
  11 H       4.5573790    4.8235098    4.0503872    2.6720280 *  1.7690099 *
  12 H       2.1539625 *  3.4036643    3.8740221    3.3953164    2.4959878 *
  13 H       1.0844976 *  2.1554158 *  3.3993021    3.8722670    4.7625523  
  14 H       2.1569178 *  1.0842188 *  2.1564527 *  3.4041448    5.8926671  
  15 H       3.3994908    2.1553123 *  1.0845673 *  2.1529077 *  5.4871928  
  16 H       3.8734327    3.4031654    2.1539116 *  1.0856551 *  3.6940443  
  17 H       5.5855175    6.1418276    5.6067205    4.3278477    2.5180762 *
  18 H       4.2930798    5.0114627    4.8039540    3.7990917    2.5244475 *

               11 H         12 H         13 H         14 H         15 H     

   1 C       2.1771075 *  3.3993343    5.3512898    6.1243107    5.3941918  
   2 H       2.5263639 *  4.0546832    5.6294827    5.9936520    4.9727115  
   3 C       1.0967837 *  2.7342642 *  4.6912416    5.4191056    4.6917695  
   4 C       2.1520520 *  2.1533925 *  3.4118502    3.8990636    3.4122606  
   5 C       3.3909295    1.0857015 *  2.1526008 *  3.4045544    3.8728807  
   6 C       4.5573790    2.1539625 *  1.0844976 *  2.1569178 *  3.3994908  
   7 C       4.8235098    3.4036643    2.1554158 *  1.0842188 *  2.1553123 *
   8 C       4.0503872    3.8740221    3.3993021    2.1564527 *  1.0845673 *
   9 C       2.6720280 *  3.3953164    3.8722670    3.4041448    2.1529077 *
  10 H       1.7690099 *  2.4959878 *  4.7625523    5.8926671    5.4871928  
  11 H       0.0000000    3.7156396    5.4990441    5.8880067    4.7403168  
  12 H       3.7156396    0.0000000    2.4766425 *  4.2998336    4.9585678  
  13 H       5.4990441    2.4766425 *  0.0000000    2.4857675 *  4.2981268  
  14 H       5.8880067    4.2998336    2.4857675 *  0.0000000    2.4853882 *
  15 H       4.7403168    4.9585678    4.2981268    2.4853882 *  0.0000000  
  16 H       2.4586594 *  4.2925923    4.9579121    4.2993014    2.4767561 *
  17 H       2.5164433 *  4.2074722    6.3412761    7.1972027    6.3743806  
  18 H       3.0848349    2.9775647 *  4.9155028    6.0033519    5.6950263  

               16 H         17 H         18 H     

   1 C       3.4648608    1.0962431 *  1.0953232 *
   2 H       3.0778590    1.7811734 *  1.7735245 *
   3 C       2.7344127 *  2.1954641 *  2.1866665 *
   4 C       2.1532103 *  3.4890907    2.7853090 *
   5 C       3.3952158    4.3009883    3.1303006  
   6 C       3.8734327    5.5855175    4.2930798  
   7 C       3.4031654    6.1418276    5.0114627  
   8 C       2.1539116 *  5.6067205    4.8039540  
   9 C       1.0856551 *  4.3278477    3.7990917  
  10 H       3.6940443    2.5180762 *  2.5244475 *
  11 H       2.4586594 *  2.5164433 *  3.0848349  
  12 H       4.2925923    4.2074722    2.9775647 *
  13 H       4.9579121    6.3412761    4.9155028  
  14 H       4.2993014    7.1972027    6.0033519  
  15 H       2.4767561 *  6.3743806    5.6950263  
  16 H       0.0000000    4.2558470    4.1368703  
  17 H       4.2558470    0.0000000    1.7802812 *
  18 H       4.1368703    1.7802812 *  0.0000000  

  * ... LESS THAN  3.000


     ATOMIC BASIS SET
     ----------------
 THE CONTRACTED PRIMITIVE FUNCTIONS HAVE BEEN UNNORMALIZED
 THE CONTRACTED BASIS FUNCTIONS ARE NOW NORMALIZED TO UNITY

  SHELL TYPE  PRIMITIVE        EXPONENT          CONTRACTION COEFFICIENT(S)

 C         

      1   S       1           172.2560000    0.061766907377
      1   S       2            25.9109000    0.358794042852
      1   S       3             5.5333500    0.700713083689

      2   L       4             3.6649800   -0.395895162119    0.236459946619
      2   L       5             0.7705450    1.215834355681    0.860618805716

      3   L       6             0.1958570    1.000000000000    1.000000000000

 H         

      4   S       7             5.4471780    0.156284978695
      4   S       8             0.8245472    0.904690876670

      5   S       9             0.1831916    1.000000000000

 C         

      6   S      10           172.2560000    0.061766907377
      6   S      11            25.9109000    0.358794042852
      6   S      12             5.5333500    0.700713083689

      7   L      13             3.6649800   -0.395895162119    0.236459946619
      7   L      14             0.7705450    1.215834355681    0.860618805716

      8   L      15             0.1958570    1.000000000000    1.000000000000

 C         

      9   S      16           172.2560000    0.061766907377
      9   S      17            25.9109000    0.358794042852
      9   S      18             5.5333500    0.700713083689

     10   L      19             3.6649800   -0.395895162119    0.236459946619
     10   L      20             0.7705450    1.215834355681    0.860618805716

     11   L      21             0.1958570    1.000000000000    1.000000000000

 C         

     12   S      22           172.2560000    0.061766907377
     12   S      23            25.9109000    0.358794042852
     12   S      24             5.5333500    0.700713083689

     13   L      25             3.6649800   -0.395895162119    0.236459946619
     13   L      26             0.7705450    1.215834355681    0.860618805716

     14   L      27             0.1958570    1.000000000000    1.000000000000

 C         

     15   S      28           172.2560000    0.061766907377
     15   S      29            25.9109000    0.358794042852
     15   S      30             5.5333500    0.700713083689

     16   L      31             3.6649800   -0.395895162119    0.236459946619
     16   L      32             0.7705450    1.215834355681    0.860618805716

     17   L      33             0.1958570    1.000000000000    1.000000000000

 C         

     18   S      34           172.2560000    0.061766907377
     18   S      35            25.9109000    0.358794042852
     18   S      36             5.5333500    0.700713083689

     19   L      37             3.6649800   -0.395895162119    0.236459946619
     19   L      38             0.7705450    1.215834355681    0.860618805716

     20   L      39             0.1958570    1.000000000000    1.000000000000

 C         

     21   S      40           172.2560000    0.061766907377
     21   S      41            25.9109000    0.358794042852
     21   S      42             5.5333500    0.700713083689

     22   L      43             3.6649800   -0.395895162119    0.236459946619
     22   L      44             0.7705450    1.215834355681    0.860618805716

     23   L      45             0.1958570    1.000000000000    1.000000000000

 C         

     24   S      46           172.2560000    0.061766907377
     24   S      47            25.9109000    0.358794042852
     24   S      48             5.5333500    0.700713083689

     25   L      49             3.6649800   -0.395895162119    0.236459946619
     25   L      50             0.7705450    1.215834355681    0.860618805716

     26   L      51             0.1958570    1.000000000000    1.000000000000

 H         

     27   S      52             5.4471780    0.156284978695
     27   S      53             0.8245472    0.904690876670

     28   S      54             0.1831916    1.000000000000

 H         

     29   S      55             5.4471780    0.156284978695
     29   S      56             0.8245472    0.904690876670

     30   S      57             0.1831916    1.000000000000

 H         

     31   S      58             5.4471780    0.156284978695
     31   S      59             0.8245472    0.904690876670

     32   S      60             0.1831916    1.000000000000

 H         

     33   S      61             5.4471780    0.156284978695
     33   S      62             0.8245472    0.904690876670

     34   S      63             0.1831916    1.000000000000

 H         

     35   S      64             5.4471780    0.156284978695
     35   S      65             0.8245472    0.904690876670

     36   S      66             0.1831916    1.000000000000

 H         

     37   S      67             5.4471780    0.156284978695
     37   S      68             0.8245472    0.904690876670

     38   S      69             0.1831916    1.000000000000

 H         

     39   S      70             5.4471780    0.156284978695
     39   S      71             0.8245472    0.904690876670

     40   S      72             0.1831916    1.000000000000

 H         

     41   S      73             5.4471780    0.156284978695
     41   S      74             0.8245472    0.904690876670

     42   S      75             0.1831916    1.000000000000

 H         

     43   S      76             5.4471780    0.156284978695
     43   S      77             0.8245472    0.904690876670

     44   S      78             0.1831916    1.000000000000

 TOTAL NUMBER OF BASIS SET SHELLS             =   44
 NUMBER OF CARTESIAN GAUSSIAN BASIS FUNCTIONS =   92
 NUMBER OF ELECTRONS                          =   59
 CHARGE OF MOLECULE                           =   -1
 SPIN MULTIPLICITY                            =    2
 NUMBER OF OCCUPIED ORBITALS (ALPHA)          =   30
 NUMBER OF OCCUPIED ORBITALS (BETA )          =   29
 TOTAL NUMBER OF ATOMS                        =   18
 THE NUCLEAR REPULSION ENERGY IS      339.2580440202

     $CONTRL OPTIONS
     ---------------
 SCFTYP=UHF          RUNTYP=ENERGY       EXETYP=RUN     
 MPLEVL=       0     CITYP =NONE         CCTYP =NONE         VBTYP =NONE    
 DFTTYP=NONE         TDDFT =NONE    
 MULT  =       2     ICHARG=      -1     NZVAR =       0     COORD =UNIQUE  
 PP    =NONE         RELWFN=NONE         LOCAL =NONE         NUMGRD=       F
 ISPHER=      -1     NOSYM =       0     MAXIT =      60     UNITS =ANGS    
 PLTORB=       F     MOLPLT=       F     AIMPAC=       F     FRIEND=        
 NPRINT=       7     IREST =       0     GEOM  =INPUT   
 NORMF =       0     NORMP =       0     ITOL  =      20     ICUT  =       9
 INTTYP=BEST         GRDTYP=BEST         QMTTOL= 1.0E-06

     $SYSTEM OPTIONS
     ---------------
  REPLICATED MEMORY=    30000000 WORDS (ON EVERY NODE).
 DISTRIBUTED MEMDDI=        1000 MILLION WORDS IN AGGREGATE,
 MEMDDI DISTRIBUTED OVER   6 PROCESSORS IS   166666666 WORDS/PROCESSOR.
 TOTAL MEMORY REQUESTED ON EACH PROCESSOR=   196666666 WORDS.
 TIMLIM=      525600.00 MINUTES, OR     365.0 DAYS.
 PARALL= T  BALTYP=  DLB     KDIAG=    0  COREFL= F
 MXSEQ2=     300 MXSEQ3=     150  mem10=         0

          ----------------
          PROPERTIES INPUT
          ----------------

     MOMENTS            FIELD           POTENTIAL          DENSITY
 IEMOM =       1   IEFLD =       0   IEPOT =       0   IEDEN =       0
 WHERE =COMASS     WHERE =NUCLEI     WHERE =NUCLEI     WHERE =NUCLEI  
 OUTPUT=BOTH       OUTPUT=BOTH       OUTPUT=BOTH       OUTPUT=BOTH    
 IEMINT=       0   IEFINT=       0                     IEDINT=       0
                                                       MORB  =       0
          EXTRAPOLATION IN EFFECT
          SOSCF IN EFFECT
          DIIS or SOSCF will be reset if energy rises
 ORBITAL PRINTING OPTION: NPREO=     1    92     2     1

     -------------------------------
     INTEGRAL TRANSFORMATION OPTIONS
     -------------------------------
     NWORD  =            0
     CUTOFF = 1.0E-09     MPTRAN =       0
     DIRTRF =       T     AOINTS =DUP     

          ----------------------
          INTEGRAL INPUT OPTIONS
          ----------------------
 NOPK  =       1 NORDER=       0 SCHWRZ=       T

     ------------------------------------------
     THE POINT GROUP IS C1 , NAXIS= 0, ORDER= 1
     ------------------------------------------

     DIMENSIONS OF THE SYMMETRY SUBSPACES ARE
 A   =   92

 ..... DONE SETTING UP THE RUN .....
 CPU     0: STEP CPU TIME=     0.02 TOTAL CPU TIME=          0.0 (      0.0 MIN)
 TOTAL WALL CLOCK TIME=          0.0 SECONDS, CPU UTILIZATION IS    66.67%

          ********************
          1 ELECTRON INTEGRALS
          ********************
 ...... END OF ONE-ELECTRON INTEGRALS ......
 CPU     0: STEP CPU TIME=     0.02 TOTAL CPU TIME=          0.0 (      0.0 MIN)
 TOTAL WALL CLOCK TIME=          0.0 SECONDS, CPU UTILIZATION IS   100.00%

          -------------
          GUESS OPTIONS
          -------------
          GUESS =HUCKEL            NORB  =       0          NORDER=       0
          MIX   =       F          PRTMO =       F          PUNMO =       F
          TOLZ  = 1.0E-08          TOLE  = 1.0E-05
          SYMDEN=       F          PURIFY=       F

 INITIAL GUESS ORBITALS GENERATED BY HUCKEL   ROUTINE.
 HUCKEL GUESS REQUIRES     84630 WORDS.

 SYMMETRIES FOR INITIAL GUESS ORBITALS FOLLOW.  ALPHA SET(S).
    30 ORBITALS ARE OCCUPIED (    8 CORE ORBITALS).
     9=A       10=A       11=A       12=A       13=A       14=A       15=A   
    16=A       17=A       18=A       19=A       20=A       21=A       22=A   
    23=A       24=A       25=A       26=A       27=A       28=A       29=A   
    30=A       31=A       32=A       33=A       34=A       35=A       36=A   
    37=A       38=A       39=A       40=A   

 SYMMETRIES FOR INITIAL GUESS ORBITALS FOLLOW.   BETA SET(S).
    29 ORBITALS ARE OCCUPIED (    8 CORE ORBITALS).
     9=A       10=A       11=A       12=A       13=A       14=A       15=A   
    16=A       17=A       18=A       19=A       20=A       21=A       22=A   
    23=A       24=A       25=A       26=A       27=A       28=A       29=A   
    30=A       31=A       32=A       33=A       34=A       35=A       36=A   
    37=A       38=A       39=A   
 ...... END OF INITIAL ORBITAL SELECTION ......
 CPU     0: STEP CPU TIME=     0.02 TOTAL CPU TIME=          0.1 (      0.0 MIN)
 TOTAL WALL CLOCK TIME=          0.1 SECONDS, CPU UTILIZATION IS    75.00%

                    ----------------------
                    AO INTEGRAL TECHNOLOGY
                    ----------------------
     S,P,L SHELL ROTATED AXIS INTEGRALS, REPROGRAMMED BY
        KAZUYA ISHIMURA (IMS) AND JOSE SIERRA (SYNSTAR).
     S,P,D,L SHELL ROTATED AXIS INTEGRALS PROGRAMMED BY
        KAZUYA ISHIMURA (INSTITUTE FOR MOLECULAR SCIENCE).
     S,P,D,F,G SHELL TO TOTAL QUARTET ANGULAR MOMENTUM SUM 5,
        ERIC PROGRAM BY GRAHAM FLETCHER (ELORET AND NASA ADVANCED
        SUPERCOMPUTING DIVISION, AMES RESEARCH CENTER).
     S,P,D,F,G,L SHELL GENERAL RYS QUADRATURE PROGRAMMED BY
        MICHEL DUPUIS (PACIFIC NORTHWEST NATIONAL LABORATORY).

          --------------------
          2 ELECTRON INTEGRALS
          --------------------

 DIRECT SCF METHOD SKIPS INTEGRAL STORAGE ON DISK.
 DIRECT TRANSFORMATION SKIPS AO INTEGRAL STORAGE ON DISK.
  ...... END OF TWO-ELECTRON INTEGRALS .....
 CPU     0: STEP CPU TIME=     0.02 TOTAL CPU TIME=          0.1 (      0.0 MIN)
 TOTAL WALL CLOCK TIME=          0.1 SECONDS, CPU UTILIZATION IS    80.00%

          ---------------------------
                  UHF SCF CALCULATION
          ---------------------------

     NUCLEAR ENERGY =       339.2580440202
     MAXIT = 60     NPUNCH=  2     MULT=  2
     EXTRAP=T  DAMP=F  SHIFT=F  RSTRCT=F  DIIS=F  SOSCF=T
     DENSITY MATRIX CONV=  2.00E-05
     SOSCF WILL OPTIMIZE    1860 ALPHA AND    1827 BETA ROTATION ANGLES.
     SOGTOL= 2.500E-01
     MEMORY REQUIRED FOR UHF/ROHF ITERS=    158257 WORDS.

 DIRECT SCF CALCULATION, SCHWRZ=T   FDIFF=T
 SCHWARZ INEQUALITY OVERHEAD:      4159 INTEGRALS, T=        0.00

                                                                                NONZERO     BLOCKS
 ITER EX      TOTAL ENERGY        E CHANGE  DENSITY CHANGE    ORB. GRAD       INTEGRALS    SKIPPED
   1  0     -306.3566982990  -306.3566982990   0.498995050   0.000000000        6992711     192025
          ---------------START SECOND ORDER SCF---------------
   2  1     -306.9149266064    -0.5582283074   0.110026636   0.031706069        6969244     198069
   3  2     -306.9406497822    -0.0257231758   0.072796633   0.016249454        6862173     214001
   4  3     -306.9453950684    -0.0047452862   0.013247968   0.005319830        6791306     222323
   5  4     -306.9459429375    -0.0005478690   0.021277041   0.003296704        6574028     240602
   6  5     -306.9463339801    -0.0003910426   0.004188531   0.001267806        6622735     237578
   7  6     -306.9463675486    -0.0000335685   0.001276859   0.000468391        6425938     249993
   8  7     -306.9463732249    -0.0000056763   0.000483965   0.000192316        6266639     259567
   9  8     -306.9463741183    -0.0000008933   0.000624850   0.000117424        5986336     278300
  10  9     -306.9463747937    -0.0000006754   0.000689086   0.000096965        5989241     279960
  11 10     -306.9463753486    -0.0000005549   0.000742544   0.000080114        6041583     278406
  12 11     -306.9463757588    -0.0000004102   0.000639956   0.000060432        6042648     279718
  13 12     -306.9463760222    -0.0000002634   0.000333014   0.000030886        5999114     282900
  14 13     -306.9463761353    -0.0000001130   0.000184554   0.000031075        5854340     288645
  15 14     -306.9463761674    -0.0000000321   0.000080074   0.000013066        5619351     298220
  16 15     -306.9463761745    -0.0000000071   0.000040375   0.000006353        5377472     311095
  17 16     -306.9463761768    -0.0000000023   0.000034482   0.000005504        5280899     318192
  18 17     -306.9463761781    -0.0000000013   0.000038583   0.000004506        5301611     319264
  19 18     -306.9463761790    -0.0000000008   0.000041851   0.000003352        5315453     320657
  20 19     -306.9463761798    -0.0000000009   0.000039571   0.000002077        5330724     321331
  21 20     -306.9463761805    -0.0000000007   0.000024998   0.000002571        5324573     321859

          ----------------
          ENERGY CONVERGED
          ----------------
     TIME TO FORM FOCK OPERATORS=       1.9 SECONDS (       0.1 SEC/ITER)
     FOCK TIME ON FIRST ITERATION=       0.1, LAST ITERATION=       0.1
     TIME TO SOLVE SCF EQUATIONS=       0.1 SECONDS (       0.0 SEC/ITER)

 FINAL UHF ENERGY IS     -306.9463761805 AFTER  21 ITERATIONS

          --------------------
          SPIN SZ   =    0.500
          S-SQUARED =    0.844
          --------------------

  ----- ALPHA SET ----- 

          ------------
          EIGENVECTORS
          ------------

                      1          2          3          4          5
                  -11.0211   -11.0145   -10.9758   -10.9636   -10.9283
                     A          A          A          A          A   
    1  C  1  S    0.987418   0.013284   0.005925   0.000105   0.000040
    2  C  1  S    0.101627  -0.001016  -0.002006  -0.000026   0.000065
    3  C  1  X    0.000041   0.000548  -0.001693  -0.000038  -0.000053
    4  C  1  Y    0.000013  -0.000127   0.000023   0.000012   0.000073
    5  C  1  Z   -0.000055   0.000455  -0.000004  -0.000045  -0.000000
    6  C  1  S   -0.080202   0.020778   0.006280  -0.000109  -0.000500
    7  C  1  X   -0.003300   0.007648   0.007515  -0.000019  -0.000254
    8  C  1  Y    0.000888  -0.002668  -0.000260  -0.000005  -0.000782
    9  C  1  Z   -0.003069   0.009197   0.000912   0.000044  -0.000309
   10  H  2  S    0.000251  -0.001384  -0.001092   0.000013  -0.000044
   11  H  2  S    0.014532   0.000601  -0.000691   0.000013  -0.000282
   12  C  3  S   -0.013979   0.987955   0.000331   0.000372   0.000507
   13  C  3  S   -0.002973   0.104980  -0.000332  -0.000309  -0.000478
   14  C  3  X   -0.000637  -0.000164   0.000059   0.000146  -0.000246
   15  C  3  Y   -0.000005   0.000093   0.000108   0.000013  -0.000278
   16  C  3  Z    0.000028  -0.000307  -0.000290  -0.000046   0.000061
   17  C  3  S    0.013709  -0.095977   0.007354   0.004455  -0.001157
   18  C  3  X   -0.008747  -0.005465   0.008358   0.002006  -0.000103
   19  C  3  Y    0.002550  -0.001806  -0.001037   0.000051   0.002295
   20  C  3  Z   -0.008933   0.006868   0.002675  -0.000313   0.000026
   21  C  4  S   -0.006489  -0.000667   0.987597   0.005641   0.000580
   22  C  4  S   -0.002975  -0.001218   0.100664  -0.000392   0.000969
   23  C  4  X    0.001462   0.000489  -0.000529  -0.000555  -0.000288
   24  C  4  Y   -0.000112   0.000100   0.000092  -0.000038  -0.000425
   25  C  4  Z    0.000264  -0.000307  -0.000359   0.000156  -0.000008
   26  C  4  S    0.007581   0.015870  -0.095193   0.012396  -0.017774
   27  C  4  X   -0.005564  -0.021051  -0.011318   0.010815  -0.010200
   28  C  4  Y    0.000181  -0.001361  -0.000889   0.000731  -0.003843
   29  C  4  Z    0.000446   0.004761   0.004185  -0.002959   0.002107
   30  C  5  S    0.000138  -0.001298  -0.004649  -0.001246  -0.124529
   31  C  5  S    0.000197  -0.000898  -0.004394   0.000228  -0.016854
   32  C  5  X   -0.000297   0.000823   0.000549  -0.000901  -0.001570
   33  C  5  Y    0.000004   0.000279   0.001361   0.000081   0.000451
   34  C  5  Z   -0.000044  -0.000069   0.000170   0.000278   0.000560
   35  C  5  S    0.000797   0.001775   0.031552  -0.015103   0.048292
   36  C  5  X    0.004047  -0.001870  -0.004306  -0.004344   0.018457
   37  C  5  Y    0.000104  -0.004231  -0.018702   0.008854  -0.013599
   38  C  5  Z   -0.000258  -0.000662  -0.003609   0.003413  -0.008642
   39  C  6  S    0.000028  -0.000971  -0.000993  -0.006892   0.973553
   40  C  6  S    0.000096  -0.000900   0.000038  -0.005060   0.099234
   41  C  6  X    0.000094   0.000399   0.000714  -0.000224  -0.000649
   42  C  6  Y    0.000067   0.000177   0.000090   0.001433  -0.001196
   43  C  6  Z    0.000030  -0.000131  -0.000188   0.000416  -0.000096
   44  C  6  S   -0.002846   0.002954  -0.008344   0.038545  -0.093694
   45  C  6  X    0.001345  -0.002709   0.001238  -0.001768   0.013400
   46  C  6  Y   -0.000157  -0.001138   0.007344  -0.023364   0.022379
   47  C  6  Z   -0.000833   0.000746   0.001527  -0.005148   0.001492
   48  C  7  S   -0.000067  -0.000452  -0.005990   0.987406   0.005082
   49  C  7  S   -0.000036  -0.000187  -0.001471   0.099248  -0.003334
   50  C  7  X    0.000066   0.000144   0.000256  -0.000913   0.000956
   51  C  7  Y    0.000011   0.000005   0.000011  -0.000063  -0.000898
   52  C  7  Z   -0.000047  -0.000040  -0.000056   0.000257  -0.000492
   53  C  7  S   -0.000262  -0.000411   0.011583  -0.093988   0.033591
   54  C  7  X   -0.000581   0.001176  -0.006293   0.024450  -0.018747
   55  C  7  Y   -0.000119   0.000191  -0.000404   0.001601   0.009576
   56  C  7  Z    0.000416  -0.000419   0.001634  -0.006720   0.007743
   57  C  8  S    0.000031  -0.000946  -0.000978  -0.006839  -0.103634
   58  C  8  S    0.000095  -0.000876   0.000046  -0.005057  -0.010092
   59  C  8  X    0.000093   0.000399   0.000715  -0.000228  -0.000358
   60  C  8  Y   -0.000076  -0.000098   0.000009  -0.001467  -0.001000
   61  C  8  Z    0.000006  -0.000202  -0.000211  -0.000283  -0.000142
   62  C  8  S   -0.002774   0.002734  -0.008375   0.038554  -0.006162
   63  C  8  X    0.001279  -0.002450   0.001230  -0.001723   0.004758
   64  C  8  Y    0.000478   0.000792  -0.007301   0.023145  -0.005167
   65  C  8  Z   -0.000711   0.001164  -0.001984   0.006054  -0.002595
   66  C  9  S    0.000169  -0.001357  -0.004731  -0.001285  -0.021989
   67  C  9  S    0.000202  -0.000930  -0.004417   0.000220  -0.002722
   68  C  9  X   -0.000320   0.000808   0.000552  -0.000902  -0.000077
   69  C  9  Y    0.000033  -0.000215  -0.001297  -0.000197  -0.000226
   70  C  9  Z   -0.000072  -0.000161  -0.000457   0.000211  -0.000019
   71  C  9  S    0.001022   0.001844   0.031691  -0.015066   0.010298
   72  C  9  X    0.003874  -0.001491  -0.004314  -0.004372   0.003712
   73  C  9  Y    0.000133   0.003895   0.018402  -0.009397   0.006260
   74  C  9  Z   -0.000087   0.001125   0.005314  -0.000988   0.000382
   75  H 10  S   -0.001021   0.001158  -0.000704  -0.000130  -0.000398
   76  H 10  S    0.001320   0.014061  -0.000105  -0.000117  -0.000120
   77  H 11  S   -0.001034   0.001162  -0.000680  -0.000130   0.000224
   78  H 11  S    0.001338   0.014102  -0.000444  -0.000138   0.000808
   79  H 12  S    0.000507   0.000022  -0.000484  -0.000575   0.000311
   80  H 12  S    0.000139   0.001091   0.002765  -0.001658   0.003675
   81  H 13  S    0.000104  -0.000009  -0.000535   0.000065  -0.002425
   82  H 13  S    0.000092   0.001022  -0.001078   0.005174   0.005251
   83  H 14  S    0.000103  -0.000211   0.000114  -0.002357   0.000097
   84  H 14  S    0.000234  -0.000180   0.001603   0.005815   0.004690
   85  H 15  S    0.000100  -0.000001  -0.000540   0.000064  -0.000200
   86  H 15  S    0.000082   0.001027  -0.001099   0.005172  -0.002048
   87  H 16  S    0.000469   0.000061  -0.000489  -0.000575   0.000401
   88  H 16  S    0.000234   0.000937   0.002793  -0.001649   0.001692
   89  H 17  S    0.000162  -0.001073  -0.000015  -0.000020  -0.000003
   90  H 17  S    0.013579   0.000134   0.003819   0.000136  -0.000013
   91  H 18  S    0.000232  -0.001370  -0.001015   0.000014   0.000114
   92  H 18  S    0.014573   0.000602  -0.000927   0.000001   0.000382

                      6          7          8          9         10
                  -10.9279   -10.9268   -10.9258    -0.9343    -0.8805
                     A          A          A          A          A   
    1  C  1  S    0.000056  -0.000041  -0.000028  -0.055282  -0.124832
    2  C  1  S    0.000040   0.000179   0.000189   0.057598   0.123251
    3  C  1  X   -0.000023  -0.000161  -0.000216   0.019587   0.021021
    4  C  1  Y   -0.000064   0.000046   0.000017  -0.005342  -0.008431
    5  C  1  Z   -0.000009  -0.000126  -0.000148   0.018587   0.029471
    6  C  1  S   -0.000244  -0.001365  -0.001477   0.124247   0.318105
    7  C  1  X   -0.000284  -0.000175  -0.000055  -0.010368  -0.009514
    8  C  1  Y    0.000745  -0.000265   0.000226   0.000880  -0.000134
    9  C  1  Z    0.000088   0.000162   0.000401  -0.002963   0.001135
   10  H  2  S    0.000142  -0.000166   0.000133   0.027894   0.063889
   11  H  2  S    0.000195   0.000645   0.000425   0.000515   0.003660
   12  C  3  S    0.000359   0.001226   0.001345  -0.087202  -0.126983
   13  C  3  S   -0.000364  -0.001072  -0.001181   0.083755   0.116770
   14  C  3  X   -0.000278  -0.000165  -0.000141   0.022957  -0.018607
   15  C  3  Y    0.000125   0.000169  -0.000144   0.004778   0.008626
   16  C  3  Z    0.000177   0.000140   0.000055  -0.018343  -0.030438
   17  C  3  S   -0.003081   0.007723   0.009865   0.220030   0.362281
   18  C  3  X   -0.000902   0.003939   0.004981  -0.001338   0.009922
   19  C  3  Y   -0.001938   0.002095  -0.001499   0.002695   0.003939
   20  C  3  Z   -0.000915  -0.000753  -0.001773  -0.009068  -0.014408
   21  C  4  S   -0.000063   0.003768   0.004480  -0.114426  -0.020949
   22  C  4  S    0.001788  -0.002808  -0.003785   0.126270   0.025456
   23  C  4  X   -0.000059  -0.001480  -0.001783   0.018626  -0.074905
   24  C  4  Y    0.000048   0.001440  -0.001340   0.002077  -0.002921
   25  C  4  Z    0.000041   0.000779   0.000190  -0.008446   0.014056
   26  C  4  S   -0.027126   0.023774   0.034705   0.196526   0.020890
   27  C  4  X   -0.016420   0.017970   0.025368  -0.002601   0.016599
   28  C  4  Y    0.004099  -0.013196   0.013967  -0.000088   0.000409
   29  C  4  Z    0.005829  -0.008253  -0.003816   0.000030  -0.002136
   30  C  5  S   -0.036515  -0.112918   0.972064  -0.090712   0.032019
   31  C  5  S   -0.005016  -0.011874   0.098133   0.098534  -0.035480
   32  C  5  X   -0.000434   0.000114   0.000375   0.007179  -0.044256
   33  C  5  Y    0.000116   0.001064  -0.000743  -0.045642   0.002785
   34  C  5  Z    0.000168   0.000218  -0.000306  -0.013699   0.012031
   35  C  5  S    0.020969   0.003871  -0.089649   0.185694  -0.059719
   36  C  5  X    0.008448  -0.003516  -0.009296   0.007871  -0.003579
   37  C  5  Y   -0.009362   0.001552   0.020681  -0.010708   0.006764
   38  C  5  Z   -0.004774   0.001388   0.007652  -0.005239   0.000199
   39  C  6  S    0.087834   0.038896   0.131675  -0.075432   0.073176
   40  C  6  S    0.009577   0.003492   0.008945   0.084234  -0.076715
   41  C  6  X   -0.000490  -0.000144   0.001268  -0.024646   0.001447
   42  C  6  Y    0.000649   0.000451   0.000617  -0.036825   0.035935
   43  C  6  Z    0.000293   0.000156  -0.000210  -0.001673   0.008023
   44  C  6  S   -0.026482   0.001012   0.025291   0.132881  -0.164547
   45  C  6  X    0.007969  -0.000295  -0.016743   0.007324   0.007267
   46  C  6  Y    0.011250  -0.002240  -0.012057  -0.000993   0.013865
   47  C  6  Z    0.000436  -0.000470   0.001932  -0.002372   0.001692
   48  C  7  S    0.005611   0.003397   0.002821  -0.069971   0.081978
   49  C  7  S   -0.003994  -0.000926  -0.000233   0.077926  -0.090080
   50  C  7  X    0.001015   0.000907   0.000866  -0.041277   0.036717
   51  C  7  Y    0.000667   0.001130  -0.000701  -0.002744   0.002522
   52  C  7  Z   -0.000132   0.000012  -0.000419   0.011389  -0.010083
   53  C  7  S    0.042013   0.000334  -0.008912   0.126764  -0.148713
   54  C  7  X   -0.023634   0.000726   0.006132  -0.011158  -0.000090
   55  C  7  Y   -0.009896  -0.003138   0.001574  -0.000803  -0.000066
   56  C  7  Z    0.004459  -0.000966  -0.001392   0.003126  -0.000352
   57  C  8  S    0.931537   0.304378   0.056706  -0.075511   0.073446
   58  C  8  S    0.095878   0.026858   0.004306   0.084285  -0.077030
   59  C  8  X   -0.000960   0.001090   0.000202  -0.024582   0.001518
   60  C  8  Y    0.000987  -0.000190  -0.000403   0.033631  -0.035678
   61  C  8  Z    0.000518  -0.000354  -0.000148   0.015288  -0.009255
   62  C  8  S   -0.099761   0.005115   0.010128   0.133438  -0.165002
   63  C  8  X    0.017426  -0.013044  -0.005019   0.006985   0.006949
   64  C  8  Y   -0.023478   0.004602   0.005805   0.001843  -0.013186
   65  C  8  Z   -0.010715   0.004877   0.002827  -0.001611  -0.004714
   66  C  9  S   -0.313312   0.931164   0.093796  -0.090691   0.032393
   67  C  9  S   -0.036022   0.093195   0.009213   0.098546  -0.035867
   68  C  9  X   -0.001654   0.000024   0.000249   0.007364  -0.044172
   69  C  9  Y   -0.000878   0.000834  -0.000818   0.046836  -0.007924
   70  C  9  Z    0.000268   0.000179  -0.000283   0.008619   0.009486
   71  C  9  S    0.067174  -0.076668  -0.017802   0.185153  -0.061001
   72  C  9  X    0.020901  -0.004360  -0.006699   0.007564  -0.003871
   73  C  9  Y    0.021262  -0.016992  -0.008107   0.011976  -0.006172
   74  C  9  Z   -0.000924  -0.002887  -0.000020   0.000393  -0.002825
   75  H 10  S    0.000237  -0.000464  -0.000237   0.039487   0.061442
   76  H 10  S    0.000767  -0.000008   0.000426  -0.002565   0.002370
   77  H 11  S   -0.000329  -0.000199  -0.000548   0.039606   0.061472
   78  H 11  S    0.000020   0.000412  -0.000070  -0.002232   0.002453
   79  H 12  S    0.000543  -0.000214  -0.002487   0.033214  -0.008072
   80  H 12  S    0.002809  -0.001661   0.005930   0.000872   0.002936
   81  H 13  S   -0.000709  -0.000036  -0.000224   0.025439  -0.028421
   82  H 13  S   -0.001362   0.001431   0.006166  -0.006447  -0.004471
   83  H 14  S    0.000203  -0.000414  -0.000546   0.025859  -0.034568
   84  H 14  S    0.005728   0.000682  -0.000453  -0.000300  -0.002160
   85  H 15  S   -0.002431  -0.000703   0.000028   0.025433  -0.028506
   86  H 15  S    0.003745   0.006531   0.002918  -0.006451  -0.004430
   87  H 16  S    0.000847  -0.002259  -0.000809   0.033218  -0.008348
   88  H 16  S    0.002862   0.006896  -0.000870   0.001003   0.002903
   89  H 17  S   -0.000013   0.000001  -0.000003   0.024817   0.063954
   90  H 17  S   -0.000112   0.000371   0.000513  -0.005789   0.004241
   91  H 18  S   -0.000053   0.000161  -0.000184   0.027888   0.063840
   92  H 18  S   -0.000277   0.000263   0.000663   0.000692   0.003625

                     11         12         13         14         15
                   -0.7905    -0.7860    -0.6934    -0.6188    -0.5759
                     A          A          A          A          A   
    1  C  1  S   -0.002968  -0.113470   0.106807  -0.000981  -0.015599
    2  C  1  S    0.002699   0.103801  -0.094344   0.000824   0.015399
    3  C  1  X   -0.000335  -0.020121   0.055074  -0.001782   0.006119
    4  C  1  Y    0.003508   0.002298  -0.023461  -0.020434   0.017213
    5  C  1  Z    0.000590  -0.007915   0.081421  -0.006490  -0.062887
    6  C  1  S    0.009391   0.352396  -0.387533   0.003791   0.066092
    7  C  1  X    0.000137  -0.001451   0.016077  -0.001018  -0.003325
    8  C  1  Y    0.002547  -0.000298  -0.007583  -0.010762   0.010283
    9  C  1  Z    0.000729   0.001141   0.026477  -0.003280  -0.037384
   10  H  2  S   -0.000004   0.065713  -0.085366   0.011619   0.033830
   11  H  2  S   -0.001339   0.011574  -0.034038   0.010565   0.021643
   12  C  3  S    0.000641   0.005196  -0.131787   0.000740   0.046821
   13  C  3  S   -0.000564  -0.004246   0.116095  -0.000619  -0.041896
   14  C  3  X   -0.002040  -0.083068   0.028894  -0.001068   0.098836
   15  C  3  Y    0.016931   0.008560  -0.021025  -0.057819   0.016148
   16  C  3  Z    0.003260  -0.028736   0.073132  -0.014988  -0.062459
   17  C  3  S   -0.002065  -0.013809   0.470984  -0.002779  -0.177407
   18  C  3  X   -0.000361  -0.013286   0.005224  -0.000404   0.061472
   19  C  3  Y    0.005839  -0.000112  -0.005890  -0.041569   0.010912
   20  C  3  Z    0.001448   0.000045   0.019208  -0.010597  -0.041724
   21  C  4  S    0.002897   0.113617   0.005915   0.000371  -0.102468
   22  C  4  S   -0.002966  -0.118445  -0.007646  -0.000423   0.105324
   23  C  4  X   -0.000272  -0.028532  -0.112432   0.000662   0.018320
   24  C  4  Y    0.101771  -0.002558  -0.010699  -0.175939   0.002906
   25  C  4  Z    0.024495   0.001627   0.040192  -0.042841  -0.013773
   26  C  4  S   -0.006698  -0.246038  -0.009778  -0.000829   0.316341
   27  C  4  X    0.000537   0.033039  -0.012403   0.000480   0.004150
   28  C  4  Y    0.016344   0.000856  -0.001157  -0.070342   0.001918
   29  C  4  Z    0.003845  -0.006725   0.007398  -0.017145  -0.007905
   30  C  5  S   -0.116968   0.063956   0.059072   0.089011   0.033821
   31  C  5  S    0.121613  -0.063725  -0.058742  -0.085269  -0.034005
   32  C  5  X    0.047522   0.055062  -0.011600   0.098566  -0.108107
   33  C  5  Y    0.009371   0.047103   0.010509   0.013395  -0.120027
   34  C  5  Z   -0.011339  -0.006306   0.008811  -0.025898  -0.001171
   35  C  5  S    0.276848  -0.189747  -0.171220  -0.296897  -0.100862
   36  C  5  X    0.001942  -0.015260  -0.003525   0.027091  -0.032825
   37  C  5  Y   -0.003206   0.026731   0.014531   0.016068  -0.050140
   38  C  5  Z   -0.001562   0.007153   0.009265  -0.004037  -0.005340
   39  C  6  S   -0.119308  -0.055783  -0.007600  -0.094527   0.058702
   40  C  6  S    0.124056   0.054739   0.007088   0.091131  -0.058154
   41  C  6  X   -0.045987   0.057954   0.069432   0.084953   0.087899
   42  C  6  Y    0.001098  -0.038968  -0.027215   0.002931  -0.095462
   43  C  6  Z    0.013805  -0.026425  -0.026103  -0.023771  -0.049620
   44  C  6  S    0.288805   0.173323   0.026546   0.314357  -0.196122
   45  C  6  X   -0.002536  -0.006169   0.021087   0.022126   0.039302
   46  C  6  Y   -0.006738  -0.022735  -0.008168  -0.012484  -0.037790
   47  C  6  Z   -0.000701  -0.002641  -0.009148  -0.009333  -0.020947
   48  C  7  S   -0.002881  -0.112055  -0.073487   0.000414  -0.092732
   49  C  7  S    0.003053   0.121023   0.077429  -0.000491   0.095853
   50  C  7  X   -0.000411  -0.018275   0.014915  -0.000061   0.054935
   51  C  7  Y    0.098361  -0.003969   0.001968   0.163339   0.004030
   52  C  7  Z    0.023857   0.004501  -0.003750   0.039416  -0.015076
   53  C  7  S    0.006354   0.230032   0.184582  -0.000916   0.291253
   54  C  7  X    0.000055   0.013621   0.007235  -0.000059   0.014739
   55  C  7  Y    0.007546   0.000904   0.000346   0.058057   0.001106
   56  C  7  Z    0.001782  -0.004311  -0.001300   0.014011  -0.004021
   57  C  8  S    0.116187  -0.062191  -0.005889   0.094317   0.059051
   58  C  8  S   -0.120868   0.061405   0.005385  -0.090892  -0.058354
   59  C  8  X    0.048671   0.055621   0.069211  -0.085944   0.087365
   60  C  8  Y    0.009510   0.046217   0.036045  -0.008699   0.107285
   61  C  8  Z   -0.011987  -0.005192  -0.010779   0.022633  -0.000490
   62  C  8  S   -0.280462   0.188874   0.021845  -0.313654  -0.198076
   63  C  8  X    0.002503  -0.006133   0.020527  -0.022726   0.039297
   64  C  8  Y   -0.005621   0.021940   0.010778  -0.015561   0.042820
   65  C  8  Z   -0.002172   0.008168  -0.004453   0.002768  -0.001482
   66  C  9  S    0.119668   0.058108   0.058783  -0.089688   0.033077
   67  C  9  S   -0.124412  -0.057610  -0.058626   0.086040  -0.033397
   68  C  9  X   -0.044510   0.057974  -0.013339  -0.097965  -0.108059
   69  C  9  Y    0.001469  -0.039386  -0.013182  -0.000067   0.107707
   70  C  9  Z    0.012949  -0.027917   0.003421   0.028830   0.053850
   71  C  9  S   -0.284070  -0.176381  -0.169085   0.298330  -0.097757
   72  C  9  X   -0.002394  -0.014552  -0.005255  -0.027310  -0.032589
   73  C  9  Y   -0.004325  -0.027171  -0.016237   0.012221   0.047477
   74  C  9  Z   -0.000359  -0.006158   0.002289   0.010796   0.018276
   75  H 10  S    0.006227  -0.002828   0.098964  -0.027643  -0.066382
   76  H 10  S    0.005095  -0.002290   0.035823  -0.019353  -0.041245
   77  H 11  S   -0.007309  -0.002657   0.099166   0.027643  -0.066133
   78  H 11  S   -0.005632  -0.002526   0.035765   0.019821  -0.040779
   79  H 12  S    0.061707  -0.034515  -0.030274  -0.085169  -0.049860
   80  H 12  S    0.017325  -0.016805  -0.013401  -0.052815  -0.033790
   81  H 13  S    0.062676   0.029664   0.008267   0.086715  -0.067753
   82  H 13  S    0.018022   0.013134   0.003724   0.053572  -0.043790
   83  H 14  S    0.001626   0.064397   0.060136  -0.000469   0.108842
   84  H 14  S    0.000476   0.016499   0.029491  -0.000282   0.074490
   85  H 15  S   -0.060998   0.033041   0.007040  -0.086469  -0.068093
   86  H 15  S   -0.017429   0.014154   0.003065  -0.053388  -0.044089
   87  H 16  S   -0.063346  -0.031567  -0.029839   0.085824  -0.049497
   88  H 16  S   -0.018046  -0.016228  -0.012565   0.053139  -0.033710
   89  H 17  S    0.001853   0.074603  -0.085148   0.001470  -0.001161
   90  H 17  S    0.000577   0.025228  -0.037126   0.000932  -0.008466
   91  H 18  S    0.003605   0.065642  -0.085590  -0.010405   0.033278
   92  H 18  S    0.002093   0.011217  -0.034179  -0.010290   0.021289

                     16         17         18         19         20
                   -0.4839    -0.4626    -0.4465    -0.4019    -0.3904
                     A          A          A          A          A   
    1  C  1  S   -0.001941   0.000023  -0.002123   0.003425   0.000109
    2  C  1  S    0.002389  -0.000044   0.004471  -0.002456  -0.000145
    3  C  1  X    0.072386   0.000128   0.217131  -0.194390   0.004194
    4  C  1  Y    0.019833   0.233194   0.022970  -0.002003   0.202122
    5  C  1  Z   -0.071326   0.066242  -0.087326   0.021584   0.043565
    6  C  1  S    0.010691   0.000084   0.006198  -0.008524   0.000143
    7  C  1  X    0.049013   0.000058   0.154242  -0.161808   0.003405
    8  C  1  Y    0.014264   0.190791   0.020881  -0.001838   0.179916
    9  C  1  Z   -0.051259   0.054382  -0.077890   0.019382   0.039491
   10  H  2  S    0.038284  -0.133991   0.065860  -0.041859  -0.118591
   11  H  2  S    0.033260  -0.109288   0.051675  -0.041238  -0.114045
   12  C  3  S    0.011645   0.000130  -0.018646   0.013736   0.000154
   13  C  3  S   -0.008074  -0.000098   0.015681  -0.009612  -0.000101
   14  C  3  X    0.112345   0.000959   0.109854   0.084533   0.004938
   15  C  3  Y    0.016565   0.235651   0.034687  -0.012928  -0.038847
   16  C  3  Z   -0.065697   0.067051  -0.119067   0.049294  -0.002868
   17  C  3  S   -0.052065  -0.000715   0.071651  -0.075401   0.000111
   18  C  3  X    0.082665   0.000881   0.078598   0.047423   0.003840
   19  C  3  Y    0.013798   0.179354   0.027549  -0.011604  -0.034168
   20  C  3  Z   -0.053762   0.051053  -0.095207   0.044116  -0.003578
   21  C  4  S   -0.005368   0.000127  -0.020729  -0.074777   0.001239
   22  C  4  S    0.002444  -0.000223   0.024269   0.073965  -0.001216
   23  C  4  X   -0.128071   0.001704  -0.102949   0.014378  -0.003346
   24  C  4  Y   -0.004576   0.058135   0.004832  -0.010699  -0.201440
   25  C  4  Z    0.020788   0.016055  -0.008869   0.026399  -0.046193
   26  C  4  S    0.012916   0.000304   0.055553   0.252035  -0.004672
   27  C  4  X   -0.080919   0.000955  -0.072087  -0.036210  -0.002016
   28  C  4  Y   -0.003530   0.032700   0.001763  -0.007759  -0.146652
   29  C  4  Z    0.015326   0.008874   0.000403   0.023643  -0.033776
   30  C  5  S   -0.013361   0.027388   0.043059   0.036768  -0.002206
   31  C  5  S    0.008223  -0.026411  -0.041348  -0.035538   0.001439
   32  C  5  X   -0.078518  -0.056934   0.052886  -0.002369   0.159074
   33  C  5  Y    0.121766  -0.038467  -0.037663  -0.107704   0.116872
   34  C  5  Z    0.044772   0.005420  -0.047718  -0.003270  -0.021848
   35  C  5  S    0.066719  -0.091587  -0.141622  -0.121341   0.017379
   36  C  5  X   -0.045751  -0.032621   0.045742   0.033036   0.087037
   37  C  5  Y    0.073658  -0.021852  -0.038634  -0.095424   0.063902
   38  C  5  Z    0.023145   0.001877  -0.046684  -0.007221  -0.015470
   39  C  6  S   -0.000513  -0.009724  -0.044273  -0.032763  -0.000254
   40  C  6  S   -0.003783   0.008400   0.045670   0.030259   0.000778
   41  C  6  X    0.067387   0.089457   0.004663   0.077255  -0.161843
   42  C  6  Y    0.135865  -0.016211   0.012468   0.136084   0.084837
   43  C  6  Z    0.011116  -0.030013  -0.006671   0.021256   0.066750
   44  C  6  S    0.011645   0.041494   0.137632   0.108971   0.000639
   45  C  6  X    0.046246   0.049943   0.016526   0.073712  -0.101395
   46  C  6  Y    0.082927  -0.007330   0.025638   0.120725   0.053567
   47  C  6  Z    0.005941  -0.016076  -0.002587   0.013968   0.042583
   48  C  7  S   -0.007962  -0.000521   0.039776   0.046050  -0.000726
   49  C  7  S    0.003994   0.000515  -0.040043  -0.050425   0.000868
   50  C  7  X    0.173181   0.001361  -0.140949   0.034982  -0.005476
   51  C  7  Y    0.011920   0.088788  -0.004829  -0.003021  -0.194455
   52  C  7  Z   -0.048076   0.021190   0.035586  -0.005024  -0.045111
   53  C  7  S    0.037557   0.001720  -0.132984  -0.133690   0.001957
   54  C  7  X    0.106638   0.000931  -0.110308  -0.006008  -0.003739
   55  C  7  Y    0.007359   0.047567  -0.004377  -0.004206  -0.117946
   56  C  7  Z   -0.030069   0.011410   0.026702   0.006885  -0.027170
   57  C  8  S   -0.000377   0.010800  -0.043727  -0.032897   0.000054
   58  C  8  S   -0.003916  -0.009444   0.045169   0.030337  -0.000386
   59  C  8  X    0.066172  -0.089190  -0.002488   0.083647   0.161006
   60  C  8  Y   -0.126424  -0.027314  -0.010219  -0.126645   0.112819
   61  C  8  Z   -0.051770   0.020189  -0.009948  -0.043943  -0.018061
   62  C  8  S    0.011143  -0.045545   0.135540   0.109665  -0.000548
   63  C  8  X    0.045511  -0.049685   0.012174   0.077564   0.100175
   64  C  8  Y   -0.076835  -0.012943  -0.022913  -0.111639   0.071705
   65  C  8  Z   -0.032386   0.011353  -0.012924  -0.043231  -0.011470
   66  C  9  S   -0.013748  -0.028208   0.041299   0.037143   0.002554
   67  C  9  S    0.008624   0.027346  -0.039706  -0.036021  -0.001869
   68  C  9  X   -0.078303   0.055739   0.058293  -0.008487  -0.158119
   69  C  9  Y   -0.129259  -0.033284   0.052987   0.101582   0.089141
   70  C  9  Z   -0.015680  -0.020058  -0.026868   0.048763   0.072608
   71  C  9  S    0.067753   0.094238  -0.135644  -0.121661  -0.017919
   72  C  9  X   -0.045633   0.032826   0.048471   0.029268  -0.087371
   73  C  9  Y   -0.076426  -0.020360   0.054595   0.091009   0.046602
   74  C  9  Z   -0.012876  -0.009597  -0.024534   0.038769   0.043456
   75  H 10  S   -0.046429   0.133886  -0.047667  -0.005136  -0.020772
   76  H 10  S   -0.034160   0.115694  -0.053530  -0.008441  -0.019906
   77  H 11  S   -0.045353  -0.133051  -0.050535  -0.007324   0.025266
   78  H 11  S   -0.032952  -0.114523  -0.056377  -0.010882   0.024955
   79  H 12  S    0.098851  -0.020407  -0.083529  -0.094582   0.010422
   80  H 12  S    0.083203  -0.008911  -0.062374  -0.076062   0.015181
   81  H 13  S    0.088196   0.024140   0.048633   0.136259   0.001809
   82  H 13  S    0.075941   0.019452   0.029009   0.116171   0.001910
   83  H 14  S    0.119749   0.001343  -0.136996  -0.026253  -0.003223
   84  H 14  S    0.103720   0.001110  -0.114189  -0.007673  -0.003416
   85  H 15  S    0.087831  -0.025434   0.046738   0.136192  -0.006506
   86  H 15  S    0.075636  -0.020319   0.027385   0.115961  -0.006584
   87  H 16  S    0.099402   0.022327  -0.082796  -0.095631  -0.007426
   88  H 16  S    0.083567   0.010497  -0.062092  -0.077050  -0.011656
   89  H 17  S   -0.058821   0.000967  -0.164799   0.146833  -0.004992
   90  H 17  S   -0.057739   0.000800  -0.169548   0.157066  -0.005416
   91  H 18  S    0.038640   0.133223   0.065206  -0.038778   0.129729
   92  H 18  S    0.033916   0.108735   0.050713  -0.038755   0.125255

                     21         22         23         24         25
                   -0.3695    -0.3574    -0.3451    -0.3317    -0.3011
                     A          A          A          A          A   
    1  C  1  S   -0.013803   0.000094  -0.002366  -0.000802  -0.016225
    2  C  1  S    0.012167  -0.000079   0.000915   0.000702   0.012918
    3  C  1  X    0.087164   0.000719   0.133425  -0.000765   0.070118
    4  C  1  Y   -0.070704  -0.058804   0.021549  -0.176298  -0.020999
    5  C  1  Z    0.290367  -0.017581  -0.097573  -0.040229   0.083111
    6  C  1  S    0.039805  -0.000609   0.016763   0.003113   0.078676
    7  C  1  X    0.077714   0.000746   0.121829  -0.001193   0.053161
    8  C  1  Y   -0.059274  -0.057454   0.020000  -0.168119  -0.019043
    9  C  1  Z    0.246844  -0.016999  -0.090828  -0.038818   0.076249
   10  H  2  S   -0.106540   0.039124   0.069718   0.119075  -0.016699
   11  H  2  S   -0.114163   0.035898   0.072043   0.134885  -0.037766
   12  C  3  S   -0.011453  -0.000052   0.001452  -0.000361  -0.004103
   13  C  3  S    0.008426   0.000006  -0.005704   0.000470   0.003435
   14  C  3  X   -0.147020  -0.001530  -0.161515   0.004791  -0.026939
   15  C  3  Y    0.066572   0.033009  -0.021857   0.257214   0.023931
   16  C  3  Z   -0.254517   0.011145   0.111152   0.060973  -0.103671
   17  C  3  S    0.032102   0.000499   0.018123   0.000132   0.012652
   18  C  3  X   -0.110020  -0.001340  -0.136048   0.004965  -0.008460
   19  C  3  Y    0.053446   0.042129  -0.020364   0.250956   0.021605
   20  C  3  Z   -0.207773   0.013165   0.103580   0.060305  -0.095077
   21  C  4  S   -0.006960   0.000279   0.005865   0.000106   0.001042
   22  C  4  S    0.008614  -0.000273  -0.000844  -0.000371   0.000366
   23  C  4  X    0.043951   0.002224   0.205669  -0.005818   0.027250
   24  C  4  Y    0.019557  -0.084760   0.007651  -0.061347  -0.027352
   25  C  4  Z   -0.105566  -0.020062  -0.039927  -0.011975   0.112410
   26  C  4  S    0.027076  -0.000741  -0.029216   0.001125  -0.008010
   27  C  4  X    0.040204   0.001775   0.162899  -0.003957   0.043045
   28  C  4  Y    0.013078  -0.064883   0.004399  -0.075334  -0.028633
   29  C  4  Z   -0.073226  -0.015425  -0.031036  -0.016173   0.117314
   30  C  5  S   -0.005212   0.023397  -0.014821   0.008947  -0.000743
   31  C  5  S    0.006814  -0.027663   0.017130  -0.006711   0.001306
   32  C  5  X   -0.005935  -0.113197   0.069099   0.124838   0.052886
   33  C  5  Y   -0.020050   0.153341  -0.107923   0.003397  -0.037864
   34  C  5  Z   -0.071167   0.072866  -0.034599  -0.028423   0.168214
   35  C  5  S    0.008616  -0.052657   0.028768  -0.025321  -0.000090
   36  C  5  X   -0.006101  -0.085492   0.039078   0.084918   0.047387
   37  C  5  Y   -0.004282   0.111644  -0.078487  -0.020061  -0.031466
   38  C  5  Z   -0.066278   0.055584  -0.022394  -0.017423   0.157832
   39  C  6  S    0.003878   0.021314   0.010226  -0.010470   0.000372
   40  C  6  S   -0.004690  -0.025370  -0.011974   0.011283  -0.000154
   41  C  6  X   -0.019689   0.116415  -0.057684  -0.111069   0.049248
   42  C  6  Y    0.054040   0.182014   0.086026   0.035385  -0.047119
   43  C  6  Z   -0.020024   0.011748   0.045667   0.044775   0.188592
   44  C  6  S   -0.007462  -0.053140  -0.013500   0.035010  -0.000396
   45  C  6  X   -0.011193   0.081996  -0.041466  -0.071286   0.048792
   46  C  6  Y    0.034002   0.142609   0.047448   0.028785  -0.047625
   47  C  6  Z   -0.018169   0.011532   0.031295   0.029398   0.183324
   48  C  7  S    0.008763   0.000093   0.023617  -0.000833  -0.000246
   49  C  7  S   -0.009838  -0.000094  -0.025869   0.000912   0.000369
   50  C  7  X    0.072403   0.002678   0.209350  -0.004186   0.045511
   51  C  7  Y    0.004150  -0.094887   0.010526  -0.110977  -0.034362
   52  C  7  Z   -0.043992  -0.023338  -0.052213  -0.024737   0.145014
   53  C  7  S   -0.027525  -0.000448  -0.074772   0.002398  -0.000745
   54  C  7  X    0.054856   0.002462   0.175868  -0.003364   0.045096
   55  C  7  Y    0.005018  -0.049567   0.009008  -0.075863  -0.033011
   56  C  7  Z   -0.037485  -0.012359  -0.043750  -0.016543   0.138897
   57  C  8  S    0.003877  -0.020717   0.011300   0.010345   0.000320
   58  C  8  S   -0.004642   0.024758  -0.013209  -0.010959  -0.000094
   59  C  8  X   -0.012560  -0.117645  -0.048538   0.112703   0.048852
   60  C  8  Y   -0.030341   0.165706  -0.098727   0.056415  -0.045060
   61  C  8  Z   -0.042466   0.073457  -0.001439  -0.020760   0.190189
   62  C  8  S   -0.007959   0.051636  -0.016789  -0.036488  -0.000324
   63  C  8  X   -0.006720  -0.083041  -0.035150   0.072933   0.048824
   64  C  8  Y   -0.016008   0.131775  -0.057654   0.042555  -0.041996
   65  C  8  Z   -0.031506   0.055758   0.004276  -0.010657   0.185550
   66  C  9  S   -0.005961  -0.024206  -0.014809  -0.009029  -0.000671
   67  C  9  S    0.007594   0.028471   0.016999   0.006680   0.001261
   68  C  9  X   -0.013479   0.115331   0.059338  -0.126484   0.053119
   69  C  9  Y    0.056448   0.170416   0.108057  -0.018290  -0.042361
   70  C  9  Z   -0.050142   0.006463   0.020740   0.028275   0.166193
   71  C  9  S    0.010438   0.055021   0.028089   0.026682  -0.000405
   72  C  9  X   -0.010119   0.086711   0.033180  -0.084626   0.047919
   73  C  9  Y    0.037507   0.124724   0.075742  -0.033466  -0.043465
   74  C  9  Z   -0.054786   0.002776   0.016678   0.007509   0.154240
   75  H 10  S   -0.080287   0.027304   0.075121   0.166897  -0.043976
   76  H 10  S   -0.091216   0.032451   0.079204   0.177708  -0.049442
   77  H 11  S   -0.073363  -0.025500   0.065448  -0.176099  -0.036910
   78  H 11  S   -0.084221  -0.030722   0.068821  -0.187499  -0.041454
   79  H 12  S   -0.022459   0.121224  -0.078974  -0.053476   0.000866
   80  H 12  S   -0.026625   0.129893  -0.083920  -0.051499  -0.002257
   81  H 13  S    0.021515   0.131562   0.026204  -0.002186  -0.003019
   82  H 13  S    0.023659   0.138579   0.033638  -0.006856  -0.003014
   83  H 14  S    0.051897   0.002072   0.143739  -0.002590   0.003590
   84  H 14  S    0.054340   0.002067   0.153212  -0.002945   0.003407
   85  H 15  S    0.018990  -0.131738   0.029834  -0.000711  -0.002617
   86  H 15  S    0.021132  -0.138395   0.037743   0.003759  -0.002615
   87  H 16  S   -0.023231  -0.121954  -0.073695   0.058921   0.000203
   88  H 16  S   -0.027825  -0.131110  -0.078876   0.055918  -0.003051
   89  H 17  S    0.007524  -0.001187  -0.128757   0.002562  -0.024968
   90  H 17  S    0.004007  -0.001283  -0.149757   0.002633  -0.042763
   91  H 18  S   -0.092638  -0.037844   0.062866  -0.125885  -0.012901
   92  H 18  S   -0.100440  -0.034009   0.063926  -0.143504  -0.033089

                     26         27         28         29         30
                   -0.2652    -0.2615    -0.1787    -0.1411     0.0724
                     A          A          A          A          A   
    1  C  1  S   -0.006276   0.000360   0.000200  -0.021798   0.000197
    2  C  1  S    0.003376  -0.000249  -0.000387   0.014910   0.000482
    3  C  1  X    0.078088  -0.002190  -0.000955   0.059022   0.000034
    4  C  1  Y   -0.004617   0.020874  -0.014821  -0.013214   0.021603
    5  C  1  Z    0.010427   0.003410  -0.003705   0.046305   0.004464
    6  C  1  S    0.029013  -0.001207  -0.000313   0.145416  -0.003941
    7  C  1  X    0.085436  -0.002454   0.001230   0.038034  -0.005939
    8  C  1  Y   -0.007021   0.022973  -0.025891  -0.017968   0.060041
    9  C  1  Z    0.018187   0.003605  -0.006842   0.061300   0.014217
   10  H  2  S    0.017906  -0.016243   0.008968   0.002822  -0.011677
   11  H  2  S    0.028689  -0.015889  -0.008226  -0.030494   0.043370
   12  C  3  S    0.026876  -0.000353   0.000008  -0.000148  -0.000047
   13  C  3  S   -0.027180   0.000350   0.000148   0.001051  -0.000327
   14  C  3  X   -0.210273   0.003561   0.000284  -0.015004  -0.000127
   15  C  3  Y   -0.010467  -0.047976   0.006952   0.012671  -0.011272
   16  C  3  Z    0.044990  -0.012306   0.002322  -0.053577  -0.003447
   17  C  3  S   -0.093357   0.001345  -0.000752  -0.004530   0.001790
   18  C  3  X   -0.172684   0.002838  -0.000141   0.018692  -0.000024
   19  C  3  Y   -0.009511  -0.060530   0.031875   0.009629  -0.089495
   20  C  3  Z    0.042068  -0.015546   0.011269  -0.038765  -0.032353
   21  C  4  S   -0.003361  -0.000010  -0.000030  -0.000197   0.000114
   22  C  4  S    0.005460   0.000024  -0.000037   0.001704   0.000037
   23  C  4  X    0.194968  -0.002656  -0.000450   0.058126  -0.000646
   24  C  4  Y    0.016555   0.229224  -0.000578  -0.050500   0.000032
   25  C  4  Z   -0.051634   0.056316  -0.000979   0.209125  -0.002983
   26  C  4  S    0.029991  -0.000740   0.000880  -0.008483  -0.002550
   27  C  4  X    0.219857  -0.003393  -0.001138   0.083467   0.000334
   28  C  4  Y    0.015512   0.203244  -0.017155  -0.056776   0.045562
   29  C  4  Z   -0.055668   0.050186  -0.004771   0.232544   0.006064
   30  C  5  S    0.004062  -0.008624   0.000209  -0.000076  -0.000482
   31  C  5  S   -0.005847   0.010633  -0.000978   0.000470   0.002068
   32  C  5  X   -0.196374  -0.024976  -0.064612   0.047944   0.067495
   33  C  5  Y   -0.042273  -0.189753   0.056158  -0.038680  -0.059637
   34  C  5  Z    0.049203  -0.040105  -0.224351   0.164092   0.236341
   35  C  5  S   -0.029036   0.020929   0.007726  -0.002094  -0.018120
   36  C  5  X   -0.179130   0.029712  -0.079561   0.062391   0.149263
   37  C  5  Y    0.004164  -0.175937   0.058633  -0.048127  -0.100824
   38  C  5  Z    0.051463  -0.054152  -0.257414   0.224858   0.461774
   39  C  6  S    0.006049   0.006904  -0.000148  -0.000080   0.000247
   40  C  6  S   -0.009454  -0.008014   0.000157   0.000098  -0.000356
   41  C  6  X    0.199863  -0.014181  -0.065482  -0.045650  -0.067267
   42  C  6  Y    0.004658   0.180424   0.054363   0.037603   0.057612
   43  C  6  Z   -0.053765   0.047202  -0.224846  -0.155689  -0.234731
   44  C  6  S    0.002613  -0.034815   0.001096   0.002429  -0.004969
   45  C  6  X    0.149497   0.027929  -0.076179  -0.062577  -0.126990
   46  C  6  Y    0.029987   0.181224   0.064571   0.050878   0.105498
   47  C  6  Z   -0.031617   0.035602  -0.256225  -0.212711  -0.460295
   48  C  7  S   -0.009707   0.000251  -0.000030  -0.000194   0.000050
   49  C  7  S    0.010641  -0.000238   0.000021   0.000220  -0.000051
   50  C  7  X   -0.147943   0.002639   0.000269  -0.058738  -0.000607
   51  C  7  Y   -0.014180  -0.210139  -0.000107   0.048866   0.000024
   52  C  7  Z    0.042180  -0.051235   0.001122  -0.202798  -0.002428
   53  C  7  S    0.036753  -0.001058   0.000117   0.000040  -0.000200
   54  C  7  X   -0.156985   0.002884   0.000085  -0.066336  -0.001284
   55  C  7  Y   -0.013284  -0.153291   0.001988   0.056085  -0.004316
   56  C  7  Z    0.044298  -0.037584   0.001301  -0.232267  -0.006089
   57  C  8  S    0.005775  -0.007139   0.000141  -0.000063  -0.000237
   58  C  8  S   -0.009117   0.008389  -0.000129   0.000091   0.000321
   59  C  8  X    0.200491   0.007655   0.066232  -0.044666   0.067553
   60  C  8  Y    0.026586   0.180896  -0.054775   0.036769  -0.056105
   61  C  8  Z   -0.048413   0.042337   0.228037  -0.152668   0.236779
   62  C  8  S    0.003573   0.034853  -0.001515   0.002192   0.005528
   63  C  8  X    0.149050  -0.032742   0.077485  -0.061129   0.127227
   64  C  8  Y   -0.005714   0.177604  -0.060268   0.050976  -0.116779
   65  C  8  Z   -0.039864   0.052833   0.261884  -0.208788   0.460892
   66  C  9  S    0.004274   0.008638  -0.000230  -0.000038   0.000554
   67  C  9  S   -0.006041  -0.010544   0.000934   0.000445  -0.002020
   68  C  9  X   -0.195631   0.031843   0.063416   0.048658  -0.066478
   69  C  9  Y    0.009057  -0.186789  -0.051808  -0.041275   0.054384
   70  C  9  Z    0.061512  -0.052509   0.221585   0.166447  -0.234664
   71  C  9  S   -0.030645  -0.020594  -0.007096  -0.002565   0.016811
   72  C  9  X   -0.179184  -0.023529   0.078401   0.063891  -0.148320
   73  C  9  Y   -0.033934  -0.178973  -0.064343  -0.061250   0.120684
   74  C  9  Z    0.042387  -0.032948   0.250944   0.225631  -0.452129
   75  H 10  S    0.036018  -0.042073   0.003310  -0.032300  -0.000206
   76  H 10  S    0.062613  -0.061041  -0.016448  -0.044985   0.071654
   77  H 11  S    0.036457   0.042729  -0.003135  -0.027777   0.001015
   78  H 11  S    0.064191   0.061690   0.014785  -0.037375  -0.063237
   79  H 12  S    0.061322  -0.126473  -0.000120   0.000519   0.001100
   80  H 12  S    0.065456  -0.142683   0.000748  -0.003354   0.000050
   81  H 13  S    0.073738   0.125530  -0.000561  -0.000491   0.000500
   82  H 13  S    0.082832   0.138140  -0.001139  -0.000606   0.003281
   83  H 14  S   -0.133141   0.002432   0.000007  -0.000020   0.000062
   84  H 14  S   -0.151992   0.002809   0.000049  -0.000392   0.000221
   85  H 15  S    0.069161  -0.127716   0.000474  -0.000506  -0.000414
   86  H 15  S    0.077881  -0.140584   0.001055  -0.000648  -0.002972
   87  H 16  S    0.065994   0.123641   0.000196   0.000529  -0.001054
   88  H 16  S    0.070374   0.140014  -0.000888  -0.003607   0.001192
   89  H 17  S   -0.064861   0.001266   0.000722  -0.026670  -0.000581
   90  H 17  S   -0.086096   0.001771   0.002176  -0.069885  -0.003802
   91  H 18  S    0.016591   0.016651  -0.009981   0.003319   0.012940
   92  H 18  S    0.027357   0.015446   0.007817  -0.028233  -0.041820

                     31         32         33         34         35
                    0.3667     0.4217     0.4502     0.4613     0.4702
                     A          A          A          A          A   
    1  C  1  S   -0.064571  -0.093043  -0.069964  -0.003005  -0.078200
    2  C  1  S    0.023824   0.017446   0.015509   0.000363   0.012079
    3  C  1  X    0.000388  -0.092240  -0.056838   0.013718   0.140696
    4  C  1  Y   -0.016451   0.026859   0.012206   0.184436   0.023246
    5  C  1  Z    0.054631  -0.083389  -0.043826   0.042180  -0.139766
    6  C  1  S    0.756519   1.357520   1.004445   0.043418   1.131906
    7  C  1  X   -0.115229  -0.286025  -0.259546   0.066430   0.738810
    8  C  1  Y   -0.058700   0.153366   0.037986   0.719266   0.087592
    9  C  1  Z    0.183531  -0.488619  -0.154410   0.161153  -0.543193
   10  H  2  S    0.015310  -0.007059  -0.010649   0.041008  -0.023857
   11  H  2  S   -0.119415  -0.709956  -0.454879   0.831081  -1.099001
   12  C  3  S   -0.013830  -0.072390  -0.012885   0.004923   0.073528
   13  C  3  S   -0.000535   0.008863   0.011950  -0.000548  -0.005675
   14  C  3  X   -0.011694  -0.061697   0.065765   0.004049   0.057020
   15  C  3  Y   -0.013281  -0.025810   0.010855   0.193111   0.004360
   16  C  3  Z    0.052096   0.089336  -0.016102   0.048478  -0.076501
   17  C  3  S    0.244087   1.119358   0.104001  -0.069557  -1.059598
   18  C  3  X    0.115004  -0.182342   0.332724   0.010878   0.211997
   19  C  3  Y   -0.066970  -0.122909   0.059484   0.810116  -0.035165
   20  C  3  Z    0.265067   0.403164  -0.100293   0.219032  -0.138975
   21  C  4  S   -0.003679  -0.008882   0.021958   0.000580   0.008854
   22  C  4  S    0.003511   0.002312  -0.000427  -0.000865  -0.010658
   23  C  4  X    0.063190  -0.026338   0.032981   0.001089   0.022136
   24  C  4  Y   -0.056902   0.021619   0.011407   0.023865   0.007494
   25  C  4  Z    0.235655  -0.090668  -0.044727   0.005125  -0.042626
   26  C  4  S    0.036544   0.278829  -0.270136  -0.004492  -0.073772
   27  C  4  X    0.244352   0.171858   0.131419  -0.007006  -0.012243
   28  C  4  Y   -0.109664   0.081207   0.018034  -0.057061   0.021344
   29  C  4  Z    0.460540  -0.308557  -0.094768  -0.019703  -0.070028
   30  C  5  S   -0.005599  -0.030575   0.035859  -0.009252  -0.005570
   31  C  5  S    0.006289   0.028876  -0.009876   0.000862   0.001963
   32  C  5  X   -0.042674  -0.036514   0.022831  -0.016841   0.006997
   33  C  5  Y    0.037444   0.034907  -0.051046   0.078845  -0.001254
   34  C  5  Z   -0.114704   0.024938  -0.027078   0.030736   0.020782
   35  C  5  S    0.016669   0.204764  -0.397620   0.256034   0.064566
   36  C  5  X   -0.107247  -0.090396   0.175333  -0.107795   0.008489
   37  C  5  Y    0.148490   0.335203  -0.173450   0.279697  -0.047305
   38  C  5  Z   -0.217439   0.175843  -0.074443   0.122026   0.108974
   39  C  6  S    0.000453  -0.002261   0.042120  -0.008521  -0.011817
   40  C  6  S   -0.002431  -0.008277  -0.009070  -0.000310   0.003032
   41  C  6  X   -0.021911   0.049734  -0.043137   0.011027  -0.004139
   42  C  6  Y    0.025049   0.005401  -0.084191   0.036274   0.040775
   43  C  6  Z   -0.098072   0.055651   0.003767  -0.003238  -0.062547
   44  C  6  S    0.027236   0.131892  -0.596244   0.159682   0.166293
   45  C  6  X   -0.066304   0.077386  -0.118752   0.041682  -0.007689
   46  C  6  Y    0.032149  -0.089423  -0.275059   0.090181   0.142819
   47  C  6  Z   -0.225004   0.108228  -0.013695  -0.011132  -0.175265
   48  C  7  S   -0.002985  -0.018183   0.044781  -0.001313  -0.011126
   49  C  7  S    0.003267   0.014826  -0.013831   0.000156   0.000647
   50  C  7  X    0.062200  -0.006721  -0.119040   0.006600   0.068327
   51  C  7  Y   -0.051953   0.024586  -0.003270   0.019060  -0.018862
   52  C  7  Z    0.215611  -0.100719   0.018209   0.009459   0.077879
   53  C  7  S   -0.000430   0.074368  -0.587541   0.020605   0.187249
   54  C  7  X    0.171339   0.094952  -0.440701   0.021494   0.212763
   55  C  7  Y   -0.120986   0.068310  -0.018479   0.017835  -0.051495
   56  C  7  Z    0.500894  -0.286963   0.084781   0.016969   0.216302
   57  C  8  S    0.000367  -0.002964   0.042482   0.004882  -0.013036
   58  C  8  S   -0.002386  -0.007813  -0.008878   0.001223   0.003893
   59  C  8  X   -0.020866   0.048074  -0.044218  -0.010430  -0.005360
   60  C  8  Y    0.021433  -0.029673   0.075592   0.026512  -0.008800
   61  C  8  Z   -0.094550   0.046381   0.042378   0.009132  -0.074382
   62  C  8  S    0.028523   0.139833  -0.605744  -0.108078   0.178439
   63  C  8  X   -0.064544   0.070803  -0.121178  -0.039807  -0.007400
   64  C  8  Y    0.071064   0.026287   0.256432   0.058249  -0.054274
   65  C  8  Z   -0.206022   0.134553   0.114244   0.019512  -0.223277
   66  C  9  S   -0.005363  -0.028919   0.036927   0.007175  -0.003884
   67  C  9  S    0.005944   0.027541  -0.009617  -0.000110   0.002561
   68  C  9  X   -0.043705  -0.034128   0.024735   0.016533   0.007208
   69  C  9  Y    0.020276  -0.042002   0.065092   0.081137  -0.010522
   70  C  9  Z   -0.124565   0.007531   0.000778   0.010336   0.019419
   71  C  9  S    0.015927   0.191874  -0.424262  -0.230372   0.053729
   72  C  9  X   -0.111348  -0.092912   0.188191   0.097600   0.012976
   73  C  9  Y   -0.028644  -0.366930   0.214318   0.299745  -0.008030
   74  C  9  Z   -0.270578   0.011307   0.016598   0.035849   0.119781
   75  H 10  S   -0.031778   0.014109   0.012036  -0.040569   0.023309
   76  H 10  S   -0.320354  -0.650819   0.074276  -0.914014   0.733914
   77  H 11  S   -0.028143   0.011864   0.012873   0.042874   0.015672
   78  H 11  S   -0.297712  -0.670060   0.136012   0.995414   0.575373
   79  H 12  S    0.004425   0.017486   0.035562   0.014547  -0.002531
   80  H 12  S   -0.095237  -0.476724   0.563444  -0.473540  -0.061404
   81  H 13  S   -0.001080  -0.005505   0.025208  -0.010634  -0.004578
   82  H 13  S   -0.003435  -0.099491   0.723663  -0.236016  -0.220229
   83  H 14  S   -0.003461  -0.017086   0.024469  -0.000595  -0.004089
   84  H 14  S   -0.034342  -0.272289   0.878932  -0.032300  -0.278711
   85  H 15  S   -0.001116  -0.005727   0.026097   0.009196  -0.005186
   86  H 15  S   -0.003868  -0.102140   0.738848   0.177746  -0.233973
   87  H 16  S    0.004068   0.015685   0.034358  -0.015727  -0.001219
   88  H 16  S   -0.093366  -0.459083   0.606064   0.440204  -0.058557
   89  H 17  S   -0.024642   0.005877   0.017203   0.002914   0.044224
   90  H 17  S   -0.523345  -0.743775  -0.580618   0.072590   0.665839
   91  H 18  S    0.015444  -0.006825  -0.012222  -0.043602  -0.016066
   92  H 18  S   -0.108662  -0.732847  -0.450589  -0.953236  -0.955778

                     36         37         38         39         40
                    0.4805     0.5019     0.5200     0.5245     0.5274
                     A          A          A          A          A   
    1  C  1  S    0.067075  -0.000824   0.059782  -0.003324  -0.008494
    2  C  1  S   -0.005627  -0.000513  -0.014836  -0.000756  -0.005922
    3  C  1  X    0.181143  -0.005468  -0.142643   0.003125  -0.027922
    4  C  1  Y    0.019600   0.195090   0.015673   0.014999  -0.015451
    5  C  1  Z   -0.073130   0.056034  -0.073391   0.017940   0.008935
    6  C  1  S   -0.962885   0.016035  -0.775992   0.043322   0.138555
    7  C  1  X    0.840304  -0.022519  -0.844801   0.036008  -0.066886
    8  C  1  Y    0.150822   1.192892   0.131859   0.207217  -0.133026
    9  C  1  Z   -0.551798   0.347884  -0.552568   0.143678   0.083716
   10  H  2  S   -0.009597   0.038369  -0.022820  -0.008802   0.009742
   11  H  2  S   -0.156537   1.128100   0.112711   0.162961  -0.040245
   12  C  3  S   -0.087517   0.003135  -0.068306   0.015970   0.059117
   13  C  3  S    0.016603  -0.001004   0.009355  -0.004864  -0.020805
   14  C  3  X   -0.051120  -0.001767  -0.074847  -0.004475  -0.036313
   15  C  3  Y   -0.017266  -0.155954   0.026045  -0.136871   0.040326
   16  C  3  Z    0.057833  -0.047570  -0.101295  -0.034073  -0.010132
   17  C  3  S    1.266585  -0.039061   0.966461  -0.209226  -0.777061
   18  C  3  X   -0.410421  -0.003151  -0.431674  -0.012860  -0.168856
   19  C  3  Y   -0.115228  -0.932734   0.181164  -0.741361   0.206624
   20  C  3  Z    0.402351  -0.279624  -0.664884  -0.168347  -0.004798
   21  C  4  S    0.011515  -0.000062  -0.003259   0.000812   0.007192
   22  C  4  S   -0.034679  -0.001687   0.023918  -0.006158  -0.015604
   23  C  4  X    0.029460  -0.007488  -0.045497  -0.022823  -0.122565
   24  C  4  Y   -0.006506  -0.019859   0.038678  -0.003645   0.000057
   25  C  4  Z    0.024016  -0.011039  -0.149531   0.014161   0.006620
   26  C  4  S    0.323471   0.014407  -0.056141   0.026820  -0.033603
   27  C  4  X    0.196548  -0.000971  -0.103291  -0.044151  -0.328092
   28  C  4  Y    0.014096   0.081080   0.070775  -0.046248   0.004120
   29  C  4  Z   -0.048217   0.001051  -0.314366   0.021322   0.025036
   30  C  5  S   -0.011363  -0.019042   0.000529  -0.045973  -0.034733
[...]
    9             0.053193   0.203612   0.049647   0.125355   0.102189
   10             0.000094   0.000473   0.045310   0.006458   0.024812
   11             0.000122   0.000567   0.045247   0.008439   0.022754
   12             0.004151   0.024889   0.004227   0.040478   0.015434
   13             0.003763   0.023297   0.000050   0.046879   0.021362
   14             0.021824   0.000002   0.020779   0.000053   0.054021
   15             0.003516   0.023512   0.000029   0.042902   0.025515
   16             0.004631   0.024544   0.004089   0.043740   0.012353
   17             0.028922   0.000004   0.031781   0.000012   0.000070
   18             0.018928   0.000037   0.032538   0.001585   0.005653

                     16         17         18         19         20

                  1.000000   1.000000   1.000000   1.000000   1.000000

    1             0.049859   0.264103   0.253595   0.110233   0.169469
    2             0.007591   0.083598   0.018892   0.004897   0.063035
    3             0.071409   0.243246   0.100990   0.035765   0.010834
    4             0.070512   0.007642   0.042236   0.052989   0.133323
    5             0.088892   0.022564   0.044685   0.065669   0.102370
    6             0.089222   0.031423   0.016177   0.118130   0.103267
    7             0.129734   0.033644   0.118997   0.017741   0.122166
    8             0.088781   0.031505   0.015292   0.117858   0.106427
    9             0.089738   0.022881   0.044435   0.068133   0.100369
   10             0.009303   0.081941   0.011431   0.000484   0.003569
   11             0.008756   0.080167   0.013169   0.000770   0.005355
   12             0.055004   0.002743   0.029096   0.056005   0.001313
   13             0.048702   0.004166   0.004224   0.104887   0.000014
   14             0.060290   0.000016   0.078450   0.004896   0.000066
   15             0.048422   0.004571   0.003602   0.104493   0.000219
   16             0.055345   0.003299   0.028001   0.056980   0.000761
   17             0.020674   0.000014   0.157767   0.075665   0.000086
   18             0.007768   0.082478   0.018961   0.004405   0.077357

                     21         22         23         24         25

                  1.000000   1.000000   1.000000   1.000000   1.000000

    1             0.357709   0.019889   0.101309   0.096660   0.012551
    2             0.055437   0.010216   0.020455   0.055388   0.001723
    3             0.323680   0.014531   0.129281   0.230466   0.118263
    4             0.065953   0.019900   0.150185   0.015870   0.112848
    5             0.013235   0.121198   0.056941   0.058427   0.121993
    6             0.008686   0.149933   0.024364   0.048621   0.115223
    7             0.027130   0.024665   0.154694   0.038342   0.081457
    8             0.006083   0.145383   0.028294   0.049470   0.113353
    9             0.014431   0.135109   0.039438   0.060932   0.118402
   10             0.033485   0.009791   0.024826   0.114645   0.008498
   11             0.027534   0.007209   0.022131   0.126056   0.011663
   12             0.003699   0.070652   0.035479   0.019806   0.014829
   13             0.003146   0.093717   0.002827   0.000762   0.036183
   14             0.012714   0.000239   0.084090   0.000015   0.069492
   15             0.002577   0.091424   0.007339   0.000470   0.018576
   16             0.003980   0.078253   0.024566   0.022319   0.030691
   17             0.000048   0.000176   0.074459   0.000012   0.012367
   18             0.040473   0.007716   0.019321   0.061739   0.001888

                     26         27         28         29

                  1.000000   1.000000   1.000000   1.000000

    1             0.001445   0.032099   0.021541   0.000378
    2             0.001093   0.000823   0.001018   0.000176
    3             0.010426   0.019475   0.004752   0.000416
    4             0.142000   0.151605   0.360557   0.000017
    5             0.103210   0.119742   0.068752   0.258340
    6             0.096091   0.143121   0.049096   0.242080
    7             0.116162   0.251107   0.358743   0.000018
    8             0.097603   0.142929   0.046631   0.242847
    9             0.105594   0.121559   0.073038   0.255222
   10             0.010817   0.003793   0.005205   0.000152
   11             0.008202   0.002478   0.003892   0.000135
   12             0.084548   0.000427   0.000008   0.000001
   13             0.068078   0.000654   0.000001   0.000001
   14             0.000679   0.001573   0.000001  -0.000000
   15             0.085715   0.000421   0.000000   0.000000
   16             0.067457   0.000657   0.000008   0.000001
   17             0.000143   0.006887   0.005861   0.000004
   18             0.000739   0.000649   0.000897   0.000212

     ATOMIC SPIN POPULATION (ALPHA MINUS BETA)
       ATOM         MULL.POP.                    LOW.POP.
    1 C            -0.009807                    -0.008841
    2 H             0.001338                     0.001017
    3 C             0.043369                     0.022074
    4 C            -0.388984                    -0.221414
    5 C             0.474740                     0.381206
    6 C             0.507733                     0.402747
    7 C            -0.435277                    -0.263427
    8 C             0.519183                     0.410671
    9 C             0.458997                     0.369510
   10 H            -0.004726                    -0.003689
   11 H            -0.004573                    -0.003493
   12 H            -0.045690                    -0.024359
   13 H            -0.048098                    -0.025808
   14 H             0.025525                     0.013755
   15 H            -0.049038                    -0.026312
   16 H            -0.044269                    -0.023610
   17 H            -0.001778                    -0.001079
   18 H             0.001352                     0.001052


          ********* ALL ELECTRONS ********

               ----- POPULATIONS IN EACH AO -----
                             MULLIKEN      LOWDIN
              1  C  1  S      1.98830     1.97658
              2  C  1  S      0.35315     0.41777
              3  C  1  X      0.52531     0.49461
              4  C  1  Y      0.54122     0.50931
              5  C  1  Z      0.53204     0.50681
              6  C  1  S      1.11040     0.58554
              7  C  1  X      0.46108     0.56723
              8  C  1  Y      0.56254     0.60806
              9  C  1  Z      0.47980     0.58442
             10  H  2  S      0.46747     0.47051
             11  H  2  S      0.33794     0.44526
             12  C  3  S      1.98940     1.97617
             13  C  3  S      0.34555     0.41025
             14  C  3  X      0.54260     0.52966
             15  C  3  Y      0.53606     0.50443
             16  C  3  Z      0.51751     0.49154
             17  C  3  S      1.13554     0.55893
             18  C  3  X      0.37066     0.53404
             19  C  3  Y      0.53961     0.57630
             20  C  3  Z      0.45200     0.55854
             21  C  4  S      1.98866     1.97655
             22  C  4  S      0.39140     0.41086
             23  C  4  X      0.54256     0.52847
             24  C  4  Y      0.61638     0.59730
             25  C  4  Z      0.41356     0.39934
             26  C  4  S      0.83676     0.51602
             27  C  4  X      0.32808     0.49455
             28  C  4  Y      0.35706     0.51285
             29  C  4  Z      0.52751     0.56935
             30  C  5  S      1.98785     1.97609
             31  C  5  S      0.37869     0.39954
             32  C  5  X      0.57702     0.55651
             33  C  5  Y      0.54399     0.51883
             34  C  5  Z      0.51301     0.51671
             35  C  5  S      0.86349     0.52846
             36  C  5  X      0.33778     0.52173
             37  C  5  Y      0.39029     0.52944
             38  C  5  Z      0.72524     0.72875
             39  C  6  S      1.98775     1.97617
             40  C  6  S      0.38016     0.39924
             41  C  6  X      0.57728     0.55552
             42  C  6  Y      0.54541     0.51781
             43  C  6  Z      0.51037     0.51360
             44  C  6  S      0.85661     0.53080
             45  C  6  X      0.34528     0.52375
             46  C  6  Y      0.42223     0.53781
             47  C  6  Z      0.68922     0.71004
             48  C  7  S      1.98824     1.97692
             49  C  7  S      0.39506     0.41273
             50  C  7  X      0.54872     0.51670
             51  C  7  Y      0.61425     0.59110
             52  C  7  Z      0.41650     0.40342
             53  C  7  S      0.88413     0.53587
             54  C  7  X      0.47398     0.54070
             55  C  7  Y      0.31787     0.50613
             56  C  7  Z      0.57126     0.59928
             57  C  8  S      1.98774     1.97616
             58  C  8  S      0.37996     0.39909
             59  C  8  X      0.57705     0.55538
             60  C  8  Y      0.55040     0.52389
             61  C  8  Z      0.50674     0.50915
             62  C  8  S      0.85636     0.53073
             63  C  8  X      0.34456     0.52362
             64  C  8  Y      0.40222     0.53254
             65  C  8  Z      0.71068     0.71680
             66  C  9  S      1.98786     1.97611
             67  C  9  S      0.37911     0.39995
             68  C  9  X      0.57746     0.55688
             69  C  9  Y      0.53911     0.51246
             70  C  9  Z      0.51576     0.52053
             71  C  9  S      0.86361     0.52862
             72  C  9  X      0.33881     0.52161
             73  C  9  Y      0.42048     0.53585
             74  C  9  Z      0.69384     0.72058
             75  H 10  S      0.47096     0.48326
             76  H 10  S      0.35385     0.45099
             77  H 11  S      0.47120     0.48355
             78  H 11  S      0.35322     0.45060
             79  H 12  S      0.47645     0.48092
             80  H 12  S      0.41320     0.48018
             81  H 13  S      0.47784     0.48174
             82  H 13  S      0.40980     0.47785
             83  H 14  S      0.48387     0.48574
             84  H 14  S      0.38025     0.46509
             85  H 15  S      0.47770     0.48163
             86  H 15  S      0.41019     0.47804
             87  H 16  S      0.47664     0.48108
             88  H 16  S      0.41233     0.47973
             89  H 17  S      0.47464     0.47938
             90  H 17  S      0.38888     0.46948
             91  H 18  S      0.46745     0.47046
             92  H 18  S      0.33797     0.44536

          ----- MULLIKEN ATOMIC OVERLAP POPULATIONS -----
          (OFF-DIAGONAL ELEMENTS NEED TO BE MULTIPLIED BY 2)

             1           2           3           4           5

    1    5.3921787
    2    0.3730383   0.5230703
    3    0.2554306  -0.0407583   5.3669974
    4   -0.0991588  -0.0006037   0.2831883   5.2353635
    5   -0.0012005  -0.0001349  -0.0632395   0.4783745   5.4005089
    6    0.0000709   0.0000073   0.0018728  -0.0922019   0.3194538
    7   -0.0000052  -0.0000019   0.0001512  -0.0090825  -0.0953578
    8    0.0000668  -0.0000786   0.0018914  -0.0931620   0.0053788
    9   -0.0016910   0.0035102  -0.0607812   0.4838014  -0.1050233
   10   -0.0471887   0.0032502   0.3858326  -0.0487529   0.0009743
   11   -0.0463032  -0.0017797   0.3869851  -0.0490967   0.0021530
   12   -0.0000852   0.0000000  -0.0026895  -0.0487743   0.4072190
   13    0.0000014   0.0000000  -0.0000643   0.0032299  -0.0410626
   14   -0.0000000  -0.0000000   0.0000020  -0.0001309   0.0029355
   15    0.0000013   0.0000007  -0.0000643   0.0032349  -0.0000656
   16   -0.0000567   0.0003464  -0.0027474  -0.0485080   0.0026935
   17    0.3553197  -0.0288213  -0.0421673   0.0050311  -0.0000097
   18    0.3734186  -0.0256416  -0.0409051  -0.0007822   0.0037553

             6           7           8           9          10

    6    5.3921738
    7    0.4864495   5.1232675
    8   -0.1274770   0.4828042   5.3977662
    9    0.0050631  -0.0948064   0.3196459   5.3921986
   10    0.0000619   0.0000042  -0.0000512   0.0019499   0.5599278
   11   -0.0000546   0.0000038   0.0000813   0.0008491  -0.0302598
   12   -0.0375863   0.0030425  -0.0000265   0.0026831   0.0017786
   13    0.4033121  -0.0429825   0.0029406  -0.0000641  -0.0000013
   14   -0.0396601   0.3964628  -0.0397763   0.0029422  -0.0000001
   15    0.0029404  -0.0429848   0.4033438  -0.0410161   0.0000007
   16   -0.0000277   0.0030394  -0.0376382   0.4068982   0.0000282
   17   -0.0000002  -0.0000000  -0.0000001  -0.0000229  -0.0009137
   18   -0.0000835  -0.0000015   0.0000062  -0.0001079  -0.0018342

            11          12          13          14          15

   11    0.5576313
   12    0.0000257   0.5660107
   13    0.0000007  -0.0022885   0.5666843
   14   -0.0000001  -0.0000567  -0.0019996   0.5454609
   15   -0.0000016   0.0000022  -0.0000603  -0.0020068   0.5668499
   16    0.0019868  -0.0000677   0.0000022  -0.0000567  -0.0022850
   17   -0.0009961   0.0000038  -0.0000000   0.0000000  -0.0000000
   18    0.0031976   0.0004633   0.0000007  -0.0000000   0.0000000

            16          17          18

   16    0.5653643
   17    0.0000032   0.6049936
   18   -0.0000015  -0.0289012   0.5228293

          TOTAL MULLIKEN AND LOWDIN ATOMIC POPULATIONS
       ATOM         MULL.POP.    CHARGE          LOW.POP.     CHARGE
    1 C             6.553837   -0.553837         6.250327   -0.250327
    2 H             0.805403    0.194597         0.915771    0.084229
    3 C             6.428934   -0.428934         6.139887   -0.139887
    4 C             6.001970   -0.001970         6.005298   -0.005298
    5 C             6.317353   -0.317353         6.276069   -0.276069
    6 C             6.314314   -0.314314         6.264746   -0.264746
    7 C             6.210003   -0.210003         6.082850   -0.082850
    8 C             6.315715   -0.315715         6.267359   -0.267359
    9 C             6.316029   -0.316029         6.272591   -0.272591
   10 H             0.824807    0.175193         0.934253    0.065747
   11 H             0.824423    0.175577         0.934147    0.065853
   12 H             0.889654    0.110346         0.961102    0.038898
   13 H             0.887649    0.112351         0.959596    0.040404
   14 H             0.864116    0.135884         0.950834    0.049166
   15 H             0.887889    0.112111         0.959679    0.040321
   16 H             0.888973    0.111027         0.960812    0.039188
   17 H             0.863519    0.136481         0.948859    0.051141
   18 H             0.805413    0.194587         0.915822    0.084178

          -------------------------------
          BOND ORDER AND VALENCE ANALYSIS     BOND ORDER THRESHOLD=0.050
          -------------------------------

                   BOND                       BOND                       BOND
  ATOM PAIR DIST  ORDER      ATOM PAIR DIST  ORDER      ATOM PAIR DIST  ORDER
    1   2  1.095  0.930        1   3  1.551  0.905        1  17  1.096  0.938
    1  18  1.095  0.930        3   4  1.521  0.939        3  10  1.097  0.934
    3  11  1.097  0.935        4   5  1.402  1.371        4   7  2.815  0.069
    4   9  1.402  1.383        5   6  1.397  1.154        5   8  2.788  0.063
    5  12  1.086  0.972        6   7  1.397  1.390        6   9  2.788  0.062
    6  13  1.084  0.970        7   8  1.397  1.382        7  14  1.084  0.967
    8   9  1.397  1.153        8  15  1.085  0.970        9  16  1.086  0.972

                       TOTAL       BONDED        FREE
      ATOM            VALENCE     VALENCE     VALENCE
    1 C                 3.674       3.674       0.000
    2 H                 0.922       0.922       0.000
    3 C                 3.644       3.643       0.001
    4 C                 3.673       3.618       0.055
    5 C                 3.683       3.542       0.141
    6 C                 3.704       3.548       0.157
    7 C                 3.797       3.725       0.072
    8 C                 3.702       3.539       0.163
    9 C                 3.688       3.555       0.133
   10 H                 0.923       0.923       0.000
   11 H                 0.923       0.923       0.000
   12 H                 0.956       0.954       0.002
   13 H                 0.954       0.952       0.002
   14 H                 0.947       0.946       0.001
   15 H                 0.954       0.952       0.002
   16 H                 0.956       0.954       0.002
   17 H                 0.931       0.931       0.000
   18 H                 0.923       0.923       0.000

          -----------------------------------------
          ATOMIC SPIN DENSITY AT THE NUCLEUS (A.U.)
          -----------------------------------------
                            SPIN DENS    ALPHA DENS     BETA DENS
    1  C            6.0    -0.0114135      46.99136      47.00277
    2  H            1.0     0.0003381       0.18342       0.18308
    3  C            6.0     0.0124987      47.03923      47.02673
    4  C            6.0    -0.0784659      46.98298      47.06144
    5  C            6.0     0.0799458      47.00381      46.92387
    6  C            6.0     0.0856444      47.00312      46.91747
    7  C            6.0    -0.0852596      46.96077      47.04603
    8  C            6.0     0.0879063      47.00371      46.91580
    9  C            6.0     0.0769181      47.00342      46.92650
   10  H            1.0    -0.0019202       0.18452       0.18644
   11  H            1.0    -0.0017356       0.18473       0.18646
   12  H            1.0    -0.0108462       0.18158       0.19243
   13  H            1.0    -0.0113789       0.18181       0.19319
   14  H            1.0     0.0060395       0.19257       0.18653
   15  H            1.0    -0.0115899       0.18165       0.19324
   16  H            1.0    -0.0105345       0.18181       0.19234
   17  H            1.0    -0.0002241       0.18615       0.18637
   18  H            1.0     0.0003552       0.18342       0.18306

          ---------------------
          ELECTROSTATIC MOMENTS
          ---------------------

 POINT   1           X           Y           Z (BOHR)    CHARGE
                 2.843825   -0.193009    0.185187       -1.00 (A.U.)
         DX          DY          DZ         /D/  (DEBYE)
    -3.412930    0.006573    0.082345    3.413930
 ...... END OF PROPERTY EVALUATION ......
 CPU     0: STEP CPU TIME=     0.03 TOTAL CPU TIME=          2.1 (      0.0 MIN)
 TOTAL WALL CLOCK TIME=          2.8 SECONDS, CPU UTILIZATION IS    77.34%
               580000  WORDS OF DYNAMIC MEMORY USED
 EXECUTION OF GAMESS TERMINATED NORMALLY Sun May 17 16:12:47 2020
 DDI: 263640 bytes (0.3 MB / 0 MWords) used by master data server.
Note: The following floating-point exceptions are signalling:Note: The following floating-point exceptions are signalling: IEEE_DENORMAL IEEE_DENORMAL
Note: The following floating-point exceptions are signalling:Note: The following floating-point exceptions are signalling:
 ----------------------------------------
 CPU timing information for all processes
 ========================================
 0: 2.35 + 0.129 = 2.164
 1: 2.101 + 0.19 = 2.121
 2: 2.19 + 0.19 = 2.39
 3: 1.979 + 0.36 = 2.15
 4: 2.11 + 0.15 = 2.27
 5: 1.984 + 0.20 = 2.05
 ----------------------------------------

 IEEE_DENORMAL IEEE_DENORMAL
Note: The following floating-point exceptions are signalling: IEEE_DENORMALNote: The following floating-point exceptions are signalling: IEEE_DENORMAL


 ddikick.x: exited gracefully.
unset echo
----- accounting info -----
Files used on the master node pietdev were:
-rwxr-xr-x 1 piet piet     1144 mei 17 16:12 /home/piet/scr/phenylalanine_fukui_acid.F05*
-rw-r--r-- 1 piet piet 68812800 mei 17 16:12 /home/piet/scr/phenylalanine_fukui_acid.F10
ls: No match.
ls: No match.
ls: No match.
zo 17 mei 2020 16:12:50 CEST
0.122u 0.030s 0:05.95 2.5%	0+0k 0+8io 0pf+0w
