----- GAMESS execution script 'rungms' -----
This job is running on host pietdev
under operating system Linux at vr 22 mei 2020 16:52:01 CEST
Available scratch disk space (Kbyte units) at beginning of the job is
Filesystem     1K-blocks     Used Available Use% Mounted on
/dev/sda2      244568380 31372960 200702364  14% /
GAMESS temporary binary files will be written to /home/piet/scr
GAMESS supplementary output files will be written to /home/piet/gamess/scr
Copying input file GAP_geoopt.inp to your run's scratch directory...
cp GAP_geoopt.inp /home/piet/scr/GAP_geoopt.F05
unset echo
 
Assuming a single but multicore node.
 
/home/piet/gamess/ddikick.x /home/piet/gamess/gamess.03.x GAP_geoopt -ddi 1 8 pietdev:cpus=8 -scr /home/piet/scr

 Distributed Data Interface kickoff program.
 Initiating 8 compute processes on 1 nodes to run the following command:
 /home/piet/gamess/gamess.03.x GAP_geoopt 

          ******************************************************
          *         GAMESS VERSION = 30 SEP 2019 (R2)          *
          *             FROM IOWA STATE UNIVERSITY             *
          * M.W.SCHMIDT, K.K.BALDRIDGE, J.A.BOATZ, S.T.ELBERT, *
          *   M.S.GORDON, J.H.JENSEN, S.KOSEKI, N.MATSUNAGA,   *
          *          K.A.NGUYEN, S.J.SU, T.L.WINDUS,           *
          *       TOGETHER WITH M.DUPUIS, J.A.MONTGOMERY       *
          *         J.COMPUT.CHEM.  14, 1347-1363(1993)        *
          **************** 64 BIT LINUX VERSION ****************

  SINCE 1993, STUDENTS AND POSTDOCS WORKING AT IOWA STATE UNIVERSITY
  AND ALSO IN THEIR VARIOUS JOBS AFTER LEAVING ISU HAVE MADE IMPORTANT
  CONTRIBUTIONS TO THE CODE:
     IVANA ADAMOVIC, CHRISTINE AIKENS, YURI ALEXEEV, POOJA ARORA,
     ANDREY ASADCHEV, ROB BELL, PRADIPTA BANDYOPADHYAY, JONATHAN BENTZ,
     COLLEEN BERTONI, BRETT BODE, KURT BRORSEN, CALEB CARLIN, GALINA CHABAN,
     WEI CHEN, CHEOL HO CHOI, PAUL DAY, ALBERT DEFUSCO, NUWAN DESILVA,
     TIM DUDLEY, DMITRI FEDOROV, ALEX FINDLATER, GRAHAM FLETCHER, 
     MARK FREITAG, KURT GLAESEMANN, EMILIE B GUIDEZ, ANASTASIA GUNINA, 
     DAN KEMP, SAROM SOK LEANG, GRANT MERRILL,
     NORIYUKI MINEZAWA, JONATHAN MULLIN,
     TAKESHI NAGATA, SEAN NEDD, HEATHER NETZLOFF, BOSILJKA NJEGIC, RYAN OLSON,
     MIKE PAK, BUU PHAM, DAVID POOLE,
     SPENCER PRUITT, LUKE ROSKOP, TOSAPORN SATTASATHUCHANA,
     JIM SHOEMAKER, LYUDMILA SLIPCHENKO,
     TONY SMITH, JIE SONG, TETSUYA TAKETSUGU, SIMON WEBB,
     JORGE LUIS GALVEZ VALLEJO, PENG XU, SOOHAENG YOO,
     FEDERICO ZAHARIEV

  ADDITIONAL CODE HAS BEEN PROVIDED BY COLLABORATORS IN OTHER GROUPS:
     IOWA STATE UNIVERSITY:
          JOE IVANIC, AARON WEST, LAIMUTIS BYTAUTAS, KLAUS RUEDENBERG
     UNIVERSITY OF TOKYO: KIMIHIKO HIRAO, TAKAHITO NAKAJIMA,
          TAKAO TSUNEDA, MUNEAKI KAMIYA, SUSUMU YANAGISAWA,
          KIYOSHI YAGI, MAHITO CHIBA, SEIKEN TOKURA, NAOAKI KAWAKAMI
     UNIVERSITY OF AARHUS: FRANK JENSEN
     UNIVERSITY OF IOWA: VISVALDAS KAIRYS, HUI LI
     NATIONAL INST. OF STANDARDS AND TECHNOLOGY: WALT STEVENS, DAVID GARMER
     UNIVERSITY OF PISA: BENEDETTA MENNUCCI, JACOPO TOMASI
     UNIVERSITY OF MEMPHIS: HENRY KURTZ, PRAKASHAN KORAMBATH
     UNIVERSITY OF ALBERTA: TOBY ZENG, MARIUSZ KLOBUKOWSKI
     UNIVERSITY OF NEW ENGLAND: MARK SPACKMAN
     MIE UNIVERSITY: HIROAKI UMEDA
     NAT. INST. OF ADVANCED INDUSTRIAL SCIENCE AND TECHNOLOGY: KAZUO KITAURA
     MICHIGAN STATE UNIVERSITY:
          KAROL KOWALSKI, MARTA WLOCH, JEFFREY GOUR, JESSE LUTZ,
          WEI LI, JUN SHEN, J. EMILIANO DEUSTUA, PIOTR PIECUCH
     UNIVERSITY OF MINNESOTA:
          ANDREW SAND, PRACHI SHARMA, YINAN SHU
     UNIVERSITY OF SILESIA: MONIKA MUSIAL, STANISLAW KUCHARSKI
     FACULTES UNIVERSITAIRES NOTRE-DAME DE LA PAIX:
          OLIVIER QUINET, BENOIT CHAMPAGNE
     UNIVERSITY OF CALIFORNIA - SANTA BARBARA: BERNARD KIRTMAN
     INSTITUTE FOR MOLECULAR SCIENCE:
          KAZUYA ISHIMURA, MICHIO KATOUDA, AND SHIGERU NAGASE
     UNIVERSITY OF NOTRE DAME: ANNA POMOGAEVA, DAN CHIPMAN
     KYUSHU UNIVERSITY:
          HARUYUKI NAKANO,
          FENG LONG GU, JACEK KORCHOWIEC, MARCIN MAKOWSKI, AND YURIKO AOKI,
          HIROTOSHI MORI AND EISAKU MIYOSHI
     PENNSYLVANIA STATE UNIVERSITY:
          TZVETELIN IORDANOV, CHET SWALINA, JONATHAN SKONE,
          SHARON HAMMES-SCHIFFER
     WASEDA UNIVERSITY:
          MASATO KOBAYASHI, TOMOKO AKAMA, TSUGUKI TOUMA,
          TAKESHI YOSHIKAWA, YASUHIRO IKABATA, JUNJI SEINO,
          YUYA NAKAJIMA, HIROMI NAKAI
     NANJING UNIVERSITY: SHUHUA LI
     UNIVERSITY OF NEBRASKA:
          PEIFENG SU, DEJUN SI, NANDUN THELLAMUREGE, YALI WANG, HUI LI
     UNIVERSITY OF ZURICH: ROBERTO PEVERATI, KIM BALDRIDGE
     N. COPERNICUS UNIVERSITY AND JACKSON STATE UNIVERSITY:
          MARIA BARYSZ
     UNIVERSITY OF COPENHAGEN: Jimmy Kromann, CASPER STEINMANN
     TOKYO INSTITUTE OF TECHNOLOGY: HIROYA NAKATA
     NAGOYA UNIVERSITY: YOSHIO NISHIMOTO, STEPHAN IRLE
     MOSCOW STATE UNIVERSITY: VLADIMIR MIRONOV
     A.N.NESMEYANOV INSTITUTE OF ORGANOELEMENT COMPOUNDS OF RUSSIAN ACADEMY OF SCIENCES:
          IGOR S. GERASIMOV
     JOHANNES KEPLER UNIVERSITY LINZ:
          CHRISTIAN FRIEDL


 PARALLEL VERSION RUNNING ON        8 PROCESSORS IN        1 NODES.

 EXECUTION OF GAMESS BEGUN Fri May 22 16:52:01 2020

            ECHO OF THE FIRST FEW INPUT CARDS -
 INPUT CARD> $BASIS GBASIS=N21 NGAUSS=3 $END                                                
 INPUT CARD> $CONTRL SCFTYP=RHF RUNTYP=OPTIMIZE DFTTYP=B3LYP MAXIT=60 MULT=1 ICHARG=0 $END  
 INPUT CARD> $SYSTEM MEMDDI=1000 MWORDS=30 $END                                             
 INPUT CARD> $STATPT NSTEP=999 $END                                                         
 INPUT CARD> $SCF DIRSCF=.TRUE. $END                                                        
 INPUT CARD> $DATA                                                                          
 INPUT CARD>                                                                                
 INPUT CARD>C1                                                                              
 INPUT CARD>C 6.0000000 0.60990980 -0.90281210 -0.34573740                                  
 INPUT CARD>H 1.0000000 2.17536760 1.28422660 1.16599910                                    
 INPUT CARD>O 8.0000000 -2.50893400 -1.27219270 0.76020130                                  
 INPUT CARD>O 8.0000000 3.75048570 -0.01369140 0.87229520                                   
 INPUT CARD>O 8.0000000 -2.76758890 0.89896910 -0.65984380                                  
 INPUT CARD>O 8.0000000 -1.23116430 0.90391740 1.37577330                                   
 INPUT CARD>O 8.0000000 1.41531100 1.20339530 0.55900160                                    
 INPUT CARD>O 8.0000000 -0.60559030 -0.29110280 -0.79103030                                 
 INPUT CARD>H 1.0000000 -3.61868580 0.47039270 -0.83299150                                  
 INPUT CARD>H 1.0000000 -0.33644310 1.24821760 1.16115870                                   
 INPUT CARD>C 6.0000000 1.71467310 0.16283450 -0.35592760                                   
 INPUT CARD>C 6.0000000 3.07427470 -0.43455860 -0.04470720                                  
 INPUT CARD>P 15.0000000 -1.83925290 -0.05530000 0.24950050                                 
 INPUT CARD>H 1.0000000 0.49996590 -1.33693210 0.65488910                                   
 INPUT CARD>H 1.0000000 0.84951240 -1.70510960 -1.05146590                                  
 INPUT CARD>H 1.0000000 1.76136650 0.58095160 -1.37538170                                   
 INPUT CARD>H 1.0000000 3.42469260 -1.25960550 -0.69333360                                  
 INPUT CARD> $END                                                                           
   30000000 WORDS OF MEMORY AVAILABLE

     BASIS OPTIONS
     -------------
     GBASIS=N21          IGAUSS=       3      POLAR=NONE    
     NDFUNC=       0     NFFUNC=       0     DIFFSP=       F
     NPFUNC=       0      DIFFS=       F     BASNAM=        


     RUN TITLE
     ---------
                                                                                 

 THE POINT GROUP OF THE MOLECULE IS C1      
 THE ORDER OF THE PRINCIPAL AXIS IS     0

 ATOM      ATOMIC                      COORDINATES (BOHR)
           CHARGE         X                   Y                   Z
 C           6.0     1.1525623992       -1.7060674874       -0.6533489497
 H           1.0     4.1108486866        2.4268363801        2.2034188009
 O           8.0    -4.7411977813       -2.4040956066        1.4365721525
 O           8.0     7.0873902939       -0.0258729944        1.6483989084
 O           8.0    -5.2299846677        1.6988052704       -1.2469239767
 O           8.0    -2.3265631729        1.7081562015        2.5998345582
 O           8.0     2.6745499774        2.2740873719        1.0563598507
 O           8.0    -1.1443997278       -0.5501045263       -1.4948305150
 H           1.0    -6.8383245977        0.8889133096       -1.5741256851
 H           1.0    -0.6357852695        2.3587892371        2.1942717713
 C           6.0     3.2402623175        0.3077125863       -0.6726056355
 C           6.0     5.8095367940       -0.8211966796       -0.0844843577
 P          15.0    -3.4756840031       -0.1045018471        0.4714875788
 H           1.0     0.9447985542       -2.5264353332        1.2375609513
 H           1.0     1.6053456592       -3.2221899230       -1.9869824364
 H           1.0     3.3285000490        1.0978393361       -2.5990945415
 H           1.0     6.4717306062       -2.3803092476       -1.3102105221

          INTERNUCLEAR DISTANCES (ANGS.)
          ------------------------------

                1 C          2 H          3 O          4 O          5 O     

   1 C       0.0000000    3.0853109    3.3296740    3.4838708    3.8409082  
   2 H       3.0853109    0.0000000    5.3518813    2.0620015 *  5.2834595  
   3 O       3.3296740    5.3518813    0.0000000    6.3856656    2.6071774 *
   4 O       3.4838708    2.0620015 *  6.3856656    0.0000000    6.7576398  
   5 O       3.8409082    5.2834595    2.6071774 *  6.7576398    0.0000000  
   6 O       3.1011973    3.4341083    2.5975141 *  5.0904158    2.5503651 *
   7 O       2.4296776 *  0.9760460 *  4.6442132    2.6518850 *  4.3674834  
   8 O       1.4317523 *  3.7477131    2.6441585 *  4.6710820    2.4713800 *
   9 H       4.4725975    6.1829883    2.6089109 *  7.5793818    0.9685163 *
  10 H       2.7916390 *  2.5120735 *  3.3515596    4.2870553    3.0575308  
  11 C       1.5349946 *  1.9457699 *  4.5982501    2.3841614 *  4.5524644  
  12 C       2.5264550 *  2.2864965 *  5.7027825    1.2146127 *  6.0236251  
  13 P       2.6591320 *  4.3302978    1.4799040 *  5.6244806    1.6122482 *
  14 H       1.0962670 *  3.1525668    3.0114383    3.5162637    4.1718930  
  15 H       1.0950541 *  3.9510978    3.8404059    3.8700644    4.4741497  
  16 H       2.1418624 *  2.6691963 *  5.1215549    3.0597789    4.5961469  
  17 H       2.8585183 *  3.3895446    6.1090790    2.0272239 *  6.5578134  

                6 O          7 O          8 O          9 H         10 H     

   1 C       3.1011973    2.4296776 *  1.4317523 *  4.4725975    2.7916390 *
   2 H       3.4341083    0.9760460 *  3.7477131    6.1829883    2.5120735 *
   3 O       2.5975141 *  4.6442132    2.6441585 *  2.6089109 *  3.3515596  
   4 O       5.0904158    2.6518850 *  4.6710820    7.5793818    4.2870553  
   5 O       2.5503651 *  4.3674834    2.4713800 *  0.9685163 *  3.0575308  
   6 O       0.0000000    2.7857915 *  2.5523428 *  3.2812870    0.9824093 *
   7 O       2.7857915 *  0.0000000    2.8530953 *  5.2740934    1.8529017 *
   8 O       2.5523428 *  2.8530953 *  0.0000000    3.1081153    2.5005978 *
   9 H       3.2812870    5.2740934    3.1081153    0.0000000    3.9185155  
  10 H       0.9824093 *  1.8529017 *  2.5005978 *  3.9185155    0.0000000  
  11 C       3.4965626    1.4175612 *  2.4039542 *  5.3634783    2.7724871 *
  12 C       4.7271649    2.4082188 *  3.7575237    6.7997095    3.9898426  
  13 P       1.5994875 *  3.5031830    1.6310214 *  2.1481441 *  2.1883135 *
  14 H       2.9219672 *  2.7019094 *  2.0992133 *  4.7374575    2.7638538 *
  15 H       4.1264667    3.3724078    2.0456211 *  4.9744685    3.8761243  
  16 H       4.0777937    2.0613174 *  2.5892914 *  5.4084539    3.3585840  
  17 H       5.5352541    3.4164793    4.1461696    7.2540732    4.8861498  

               11 C         12 C         13 P         14 H         15 H     

   1 C       1.5349946 *  2.5264550 *  2.6591320 *  1.0962670 *  1.0950541 *
   2 H       1.9457699 *  2.2864965 *  4.3302978    3.1525668    3.9510978  
   3 O       4.5982501    5.7027825    1.4799040 *  3.0114383    3.8404059  
   4 O       2.3841614 *  1.2146127 *  5.6244806    3.5162637    3.8700644  
   5 O       4.5524644    6.0236251    1.6122482 *  4.1718930    4.4741497  
   6 O       3.4965626    4.7271649    1.5994875 *  2.9219672 *  4.1264667  
   7 O       1.4175612 *  2.4082188 *  3.5031830    2.7019094 *  3.3724078  
   8 O       2.4039542 *  3.7575237    1.6310214 *  2.0992133 *  2.0456211 *
   9 H       5.3634783    6.7997095    2.1481441 *  4.7374575    4.9744685  
  10 H       2.7724871 *  3.9898426    2.1883135 *  2.7638538 *  3.8761243  
  11 C       0.0000000    1.5173178 *  3.6117192    2.1786610 *  2.1728994 *
  12 C       1.5173178 *  0.0000000    4.9369169    2.8161638 *  2.7527132 *
  13 P       3.6117192    4.9369169    0.0000000    2.6979372 *  3.4123077  
  14 H       2.1786610 *  2.8161638 *  2.6979372 *  0.0000000    1.7802766 *
  15 H       2.1728994 *  2.7527132 *  3.4123077    1.7802766 *  0.0000000  
  16 H       1.1028549 *  2.1273654 *  4.0011896    3.0645406    2.4824333 *
  17 H       2.2497433 *  1.1064408 *  5.4816430    3.2214453    2.6378563 *

               16 H         17 H     

   1 C       2.1418624 *  2.8585183 *
   2 H       2.6691963 *  3.3895446  
   3 O       5.1215549    6.1090790  
   4 O       3.0597789    2.0272239 *
   5 O       4.5961469    6.5578134  
   6 O       4.0777937    5.5352541  
   7 O       2.0613174 *  3.4164793  
   8 O       2.5892914 *  4.1461696  
   9 H       5.4084539    7.2540732  
  10 H       3.3585840    4.8861498  
  11 C       1.1028549 *  2.2497433 *
  12 C       2.1273654 *  1.1064408 *
  13 P       4.0011896    5.4816430  
  14 H       3.0645406    3.2214453  
  15 H       2.4824333 *  2.6378563 *
  16 H       0.0000000    2.5728377 *
  17 H       2.5728377 *  0.0000000  

  * ... LESS THAN  3.000


     ATOMIC BASIS SET
     ----------------
 THE CONTRACTED PRIMITIVE FUNCTIONS HAVE BEEN UNNORMALIZED
 THE CONTRACTED BASIS FUNCTIONS ARE NOW NORMALIZED TO UNITY

  SHELL TYPE  PRIMITIVE        EXPONENT          CONTRACTION COEFFICIENT(S)

 C         

      1   S       1           172.2560000    0.061766907377
      1   S       2            25.9109000    0.358794042852
      1   S       3             5.5333500    0.700713083689

      2   L       4             3.6649800   -0.395895162119    0.236459946619
      2   L       5             0.7705450    1.215834355681    0.860618805716

      3   L       6             0.1958570    1.000000000000    1.000000000000

 H         

      4   S       7             5.4471780    0.156284978695
      4   S       8             0.8245472    0.904690876670

      5   S       9             0.1831916    1.000000000000

 O         

      6   S      10           322.0370000    0.059239393389
      6   S      11            48.4308000    0.351499960776
      6   S      12            10.4206000    0.707657921031

      7   L      13             7.4029400   -0.404453583190    0.244586106967
      7   L      14             1.5762000    1.221561761397    0.853955373466

      8   L      15             0.3736840    1.000000000000    1.000000000000

 O         

      9   S      16           322.0370000    0.059239393389
      9   S      17            48.4308000    0.351499960776
      9   S      18            10.4206000    0.707657921031

     10   L      19             7.4029400   -0.404453583190    0.244586106967
     10   L      20             1.5762000    1.221561761397    0.853955373466

     11   L      21             0.3736840    1.000000000000    1.000000000000

 O         

     12   S      22           322.0370000    0.059239393389
     12   S      23            48.4308000    0.351499960776
     12   S      24            10.4206000    0.707657921031

     13   L      25             7.4029400   -0.404453583190    0.244586106967
     13   L      26             1.5762000    1.221561761397    0.853955373466

     14   L      27             0.3736840    1.000000000000    1.000000000000

 O         

     15   S      28           322.0370000    0.059239393389
     15   S      29            48.4308000    0.351499960776
     15   S      30            10.4206000    0.707657921031

     16   L      31             7.4029400   -0.404453583190    0.244586106967
     16   L      32             1.5762000    1.221561761397    0.853955373466

     17   L      33             0.3736840    1.000000000000    1.000000000000

 O         

     18   S      34           322.0370000    0.059239393389
     18   S      35            48.4308000    0.351499960776
     18   S      36            10.4206000    0.707657921031

     19   L      37             7.4029400   -0.404453583190    0.244586106967
     19   L      38             1.5762000    1.221561761397    0.853955373466

     20   L      39             0.3736840    1.000000000000    1.000000000000

 O         

     21   S      40           322.0370000    0.059239393389
     21   S      41            48.4308000    0.351499960776
     21   S      42            10.4206000    0.707657921031

     22   L      43             7.4029400   -0.404453583190    0.244586106967
     22   L      44             1.5762000    1.221561761397    0.853955373466

     23   L      45             0.3736840    1.000000000000    1.000000000000

 H         

     24   S      46             5.4471780    0.156284978695
     24   S      47             0.8245472    0.904690876670

     25   S      48             0.1831916    1.000000000000

 H         

     26   S      49             5.4471780    0.156284978695
     26   S      50             0.8245472    0.904690876670

     27   S      51             0.1831916    1.000000000000

 C         

     28   S      52           172.2560000    0.061766907377
     28   S      53            25.9109000    0.358794042852
     28   S      54             5.5333500    0.700713083689

     29   L      55             3.6649800   -0.395895162119    0.236459946619
     29   L      56             0.7705450    1.215834355681    0.860618805716

     30   L      57             0.1958570    1.000000000000    1.000000000000

 C         

     31   S      58           172.2560000    0.061766907377
     31   S      59            25.9109000    0.358794042852
     31   S      60             5.5333500    0.700713083689

     32   L      61             3.6649800   -0.395895162119    0.236459946619
     32   L      62             0.7705450    1.215834355681    0.860618805716

     33   L      63             0.1958570    1.000000000000    1.000000000000

 P         

     34   S      64          1054.9000000    0.065540713549
     34   S      65           159.1950000    0.384036079392
     34   S      66            34.5304000    0.674541139449

     35   L      67            44.2866000   -0.102130053458    0.110851002536
     35   L      68            10.1019000    0.081592242708    0.456495010442
     35   L      69             2.7399700    0.969788507613    0.606936013883

     36   L      70             1.2186500   -0.371496021877    0.091582310217
     36   L      71             0.3955460    1.270993496131    0.934924104303

     37   L      72             0.1228110    1.000000000000    1.000000000000

 H         

     38   S      73             5.4471780    0.156284978695
     38   S      74             0.8245472    0.904690876670

     39   S      75             0.1831916    1.000000000000

 H         

     40   S      76             5.4471780    0.156284978695
     40   S      77             0.8245472    0.904690876670

     41   S      78             0.1831916    1.000000000000

 H         

     42   S      79             5.4471780    0.156284978695
     42   S      80             0.8245472    0.904690876670

     43   S      81             0.1831916    1.000000000000

 H         

     44   S      82             5.4471780    0.156284978695
     44   S      83             0.8245472    0.904690876670

     45   S      84             0.1831916    1.000000000000

 TOTAL NUMBER OF BASIS SET SHELLS             =   45
 NUMBER OF CARTESIAN GAUSSIAN BASIS FUNCTIONS =  108
 NUMBER OF ELECTRONS                          =   88
 CHARGE OF MOLECULE                           =    0
 SPIN MULTIPLICITY                            =    1
 NUMBER OF OCCUPIED ORBITALS (ALPHA)          =   44
 NUMBER OF OCCUPIED ORBITALS (BETA )          =   44
 TOTAL NUMBER OF ATOMS                        =   17
 THE NUCLEAR REPULSION ENERGY IS      701.4901222172

 SELECTED MURRAY-HANDY-LAMING RADIAL GRID

 LEGACY BECKE'S FUZZY CELL METHOD

 SELECTED ORIGINAL BECKE'S PARTITION FUNCTION

     LEBEDEV GRID-BASED DFT OPTIONS
     ------------------------------
     DFTTYP=B3LYP   
     NRAD  =      96     NLEB  =     302
     NRAD0 =      24     NLEB0 =     110
     SWOFF =    5.00E-03 (PURE SCF -> DFT)
     SWITCH=    3.00E-04 (COARSE -> TIGHT GRID)
     THRESH=    0.00E+00 GTHRE=    1.00E+00

 GRIMME'S EMPIRICAL DISPERSION CORRECTION= F

     $CONTRL OPTIONS
     ---------------
 SCFTYP=RHF          RUNTYP=OPTIMIZE     EXETYP=RUN     
 MPLEVL=       0     CITYP =NONE         CCTYP =NONE         VBTYP =NONE    
 DFTTYP=B3LYP        TDDFT =NONE    
 MULT  =       1     ICHARG=       0     NZVAR =       0     COORD =UNIQUE  
 PP    =NONE         RELWFN=NONE         LOCAL =NONE         NUMGRD=       F
 ISPHER=      -1     NOSYM =       0     MAXIT =      60     UNITS =ANGS    
 PLTORB=       F     MOLPLT=       F     AIMPAC=       F     FRIEND=        
 NPRINT=       7     IREST =       0     GEOM  =INPUT   
 NORMF =       0     NORMP =       0     ITOL  =      20     ICUT  =       9
 INTTYP=BEST         GRDTYP=BEST         QMTTOL= 1.0E-06

     $SYSTEM OPTIONS
     ---------------
  REPLICATED MEMORY=    30000000 WORDS (ON EVERY NODE).
 DISTRIBUTED MEMDDI=        1000 MILLION WORDS IN AGGREGATE,
 MEMDDI DISTRIBUTED OVER   8 PROCESSORS IS   125000000 WORDS/PROCESSOR.
 TOTAL MEMORY REQUESTED ON EACH PROCESSOR=   155000000 WORDS.
 TIMLIM=      525600.00 MINUTES, OR     365.0 DAYS.
 PARALL= T  BALTYP=  DLB     KDIAG=    0  COREFL= F
 MXSEQ2=     300 MXSEQ3=     150  mem10=         0

          ----------------
          PROPERTIES INPUT
          ----------------

     MOMENTS            FIELD           POTENTIAL          DENSITY
 IEMOM =       1   IEFLD =       0   IEPOT =       0   IEDEN =       0
 WHERE =COMASS     WHERE =NUCLEI     WHERE =NUCLEI     WHERE =NUCLEI  
 OUTPUT=BOTH       OUTPUT=BOTH       OUTPUT=BOTH       OUTPUT=BOTH    
 IEMINT=       0   IEFINT=       0                     IEDINT=       0
                                                       MORB  =       0
          EXTRAPOLATION IN EFFECT
          DIIS IN EFFECT
 ORBITAL PRINTING OPTION: NPREO=     1   108     2     1

     -------------------------------
     INTEGRAL TRANSFORMATION OPTIONS
     -------------------------------
     NWORD  =            0
     CUTOFF = 1.0E-09     MPTRAN =       0
     DIRTRF =       T     AOINTS =DUP     

          ----------------------
          INTEGRAL INPUT OPTIONS
          ----------------------
 NOPK  =       1 NORDER=       0 SCHWRZ=       T

     ------------------------------------------
     THE POINT GROUP IS C1 , NAXIS= 0, ORDER= 1
     ------------------------------------------

     DIMENSIONS OF THE SYMMETRY SUBSPACES ARE
 A   =  108

 ..... DONE SETTING UP THE RUN .....
 CPU     0: STEP CPU TIME=     0.02 TOTAL CPU TIME=          0.0 (      0.0 MIN)
 TOTAL WALL CLOCK TIME=          0.0 SECONDS, CPU UTILIZATION IS    66.67%


          -----------------------------
          STATIONARY POINT LOCATION RUN
          -----------------------------

 OBTAINING INITIAL HESSIAN, HESS=GUESS   
 CARTESIAN COORDINATE OPTIMIZATION USING BADGER'S RULE FORCE CONSTANT GUESS

          PARAMETERS CONTROLLING GEOMETRY SEARCH ARE
          METHOD =QA                  UPHESS =BFGS    
          NNEG   =         0          NFRZ   =         0
          NSTEP  =       999          IFOLOW =         1
          HESS   =GUESS               RESTAR =         F
          IHREP  =         0          HSSEND =         F
          NPRT   =         0          NPUN   =         0
          OPTTOL = 1.000E-04          RMIN   = 1.500E-03
          RMAX   = 1.000E-01          RLIM   = 7.000E-02
          DXMAX  = 3.000E-01          PURIFY =         F
          MOVIE  =         F          TRUPD  =         T
          TRMAX  = 5.000E-01          TRMIN  = 5.000E-02
          ITBMAT =         5          STPT   =         F
          STSTEP = 1.000E-02          PROJCT=          T

 BEGINNING GEOMETRY SEARCH POINT NSERCH=   0 ...

 COORDINATES OF ALL ATOMS ARE (ANGS)
   ATOM   CHARGE       X              Y              Z
 ------------------------------------------------------------
 C           6.0   0.6099098000  -0.9028121000  -0.3457374000
 H           1.0   2.1753676000   1.2842266000   1.1659991000
 O           8.0  -2.5089340000  -1.2721927000   0.7602013000
 O           8.0   3.7504857000  -0.0136914000   0.8722952000
 O           8.0  -2.7675889000   0.8989691000  -0.6598438000
 O           8.0  -1.2311643000   0.9039174000   1.3757733000
 O           8.0   1.4153110000   1.2033953000   0.5590016000
 O           8.0  -0.6055903000  -0.2911028000  -0.7910303000
 H           1.0  -3.6186858000   0.4703927000  -0.8329915000
 H           1.0  -0.3364431000   1.2482176000   1.1611587000
 C           6.0   1.7146731000   0.1628345000  -0.3559276000
 C           6.0   3.0742747000  -0.4345586000  -0.0447072000
 P          15.0  -1.8392529000  -0.0553000000   0.2495005000
 H           1.0   0.4999659000  -1.3369321000   0.6548891000
 H           1.0   0.8495124000  -1.7051096000  -1.0514659000
 H           1.0   1.7613665000   0.5809516000  -1.3753817000
 H           1.0   3.4246926000  -1.2596055000  -0.6933336000

          ********************
          1 ELECTRON INTEGRALS
          ********************
 ...... END OF ONE-ELECTRON INTEGRALS ......
 CPU     0: STEP CPU TIME=     0.01 TOTAL CPU TIME=          0.0 (      0.0 MIN)
 TOTAL WALL CLOCK TIME=          0.0 SECONDS, CPU UTILIZATION IS    75.00%

          -------------
          GUESS OPTIONS
          -------------
          GUESS =HUCKEL            NORB  =       0          NORDER=       0
          MIX   =       F          PRTMO =       F          PUNMO =       F
          TOLZ  = 1.0E-08          TOLE  = 1.0E-05
          SYMDEN=       F          PURIFY=       F

 INITIAL GUESS ORBITALS GENERATED BY HUCKEL   ROUTINE.
 HUCKEL GUESS REQUIRES    112404 WORDS.

 SYMMETRIES FOR INITIAL GUESS ORBITALS FOLLOW.   BOTH SET(S).
    44 ORBITALS ARE OCCUPIED (   14 CORE ORBITALS).
    15=A       16=A       17=A       18=A       19=A       20=A       21=A   
    22=A       23=A       24=A       25=A       26=A       27=A       28=A   
    29=A       30=A       31=A       32=A       33=A       34=A       35=A   
    36=A       37=A       38=A       39=A       40=A       41=A       42=A   
    43=A       44=A       45=A       46=A       47=A       48=A       49=A   
    50=A       51=A       52=A       53=A       54=A   
 ...... END OF INITIAL ORBITAL SELECTION ......
 CPU     0: STEP CPU TIME=     0.03 TOTAL CPU TIME=          0.1 (      0.0 MIN)
 TOTAL WALL CLOCK TIME=          0.1 SECONDS, CPU UTILIZATION IS    85.71%

                    ----------------------
                    AO INTEGRAL TECHNOLOGY
                    ----------------------
     S,P,L SHELL ROTATED AXIS INTEGRALS, REPROGRAMMED BY
        KAZUYA ISHIMURA (IMS) AND JOSE SIERRA (SYNSTAR).
     S,P,D,L SHELL ROTATED AXIS INTEGRALS PROGRAMMED BY
        KAZUYA ISHIMURA (INSTITUTE FOR MOLECULAR SCIENCE).
     S,P,D,F,G SHELL TO TOTAL QUARTET ANGULAR MOMENTUM SUM 5,
        ERIC PROGRAM BY GRAHAM FLETCHER (ELORET AND NASA ADVANCED
        SUPERCOMPUTING DIVISION, AMES RESEARCH CENTER).
     S,P,D,F,G,L SHELL GENERAL RYS QUADRATURE PROGRAMMED BY
        MICHEL DUPUIS (PACIFIC NORTHWEST NATIONAL LABORATORY).

          --------------------
          2 ELECTRON INTEGRALS
          --------------------

 DIRECT SCF METHOD SKIPS INTEGRAL STORAGE ON DISK.
 DIRECT TRANSFORMATION SKIPS AO INTEGRAL STORAGE ON DISK.
  ...... END OF TWO-ELECTRON INTEGRALS .....
 CPU     0: STEP CPU TIME=     0.00 TOTAL CPU TIME=          0.1 (      0.0 MIN)
 TOTAL WALL CLOCK TIME=          0.1 SECONDS, CPU UTILIZATION IS    75.00%

          --------------------------
             R-B3LYP SCF CALCULATION
          --------------------------

     NUCLEAR ENERGY =       701.4901222172
     MAXIT =   60     NPUNCH=    2
     EXTRAP=T  DAMP=F  SHIFT=F  RSTRCT=F  DIIS=T  DEM=F  SOSCF=F
         DENSITY MATRIX CONVERGENCE THRESHOLD=  2.00E-05
     COARSE -> FINE DFT GRID SWITCH THRESHOLD=  3.00E-04 (SWITCH IN $DFT)
                   HF -> DFT SWITCH THRESHOLD=  5.00E-03 (SWOFF IN $DFT)
     MEMORY REQUIRED FOR RHF ITERS=    696957 WORDS.

 DIRECT SCF CALCULATION, SCHWRZ=T   FDIFF=T,  DIRTHR=  0.00E+00 NITDIR=10
 SCHWARZ INEQUALITY OVERHEAD:      5293 INTEGRALS, T=        0.01

 DFT CODE IS SWITCHING FROM THE FINE GRID NRAD= 96,  NLEB=  302
                      TO THE COARSE GRID NRAD0= 24, NLEB0=  110

     EXCHANGE FUNCTIONAL   =B88&HFX   
     CORRELATION FUNCTIONAL=LYP88&VWN5
     DFT THRESHOLD         =.812E-08
     GRID CHANGE THRESHOLD =.300E-03
 FOR AN EULER-MACLAURIN QUADRATURE USING  96 RADIAL POINTS:
 SMALLEST GAUSSIAN PRIMITIVE EXPONENT=        0.1228110000 OF TYPE -P-
 ON ATOM NUMBER  13 HAS RADIAL NORMALIZATION=  1.000000
  LARGEST GAUSSIAN PRIMITIVE EXPONENT=     1054.9000000000 OF TYPE -S-
 ON ATOM NUMBER  13 HAS RADIAL NORMALIZATION=  1.000000
 DFT IS SWITCHED OFF, PERFORMING PURE SCF UNTIL SWOFF THRESHOLD IS REACHED.

                                                                                   NONZERO     BLOCKS
 ITER EX DEM     TOTAL ENERGY        E CHANGE  DENSITY CHANGE    DIIS ERROR      INTEGRALS    SKIPPED
   1  0  0     -900.6972005301  -900.6972005301   0.811344540   0.802111585        8948914     281446
          * * *   INITIATING DIIS PROCEDURE   * * *
   2  1  0     -902.4986411505    -1.8014406204   0.169360256   0.162652089        8942170     285018
   3  2  0     -902.6258422867    -0.1272011362   0.109053517   0.142609269        8885902     295540
   4  3  0     -902.7102763497    -0.0844340630   0.022754472   0.011678389        8777523     305297
   5  4  0     -902.7125208458    -0.0022444961   0.005996437   0.004739802        8604936     315206
   6  5  0     -902.7127598017    -0.0002389559   0.001344358   0.002401868        8260284     329155
 CONVERGED TO SWOFF, SO DFT CALCULATION IS NOW SWITCHED ON.
          * * *   INITIATING DIIS PROCEDURE   * * *
   7  6  0     -905.9661484621    -3.2533886604   0.123928668   0.078274952        8955211     278937
   8  7  0     -906.0208829592    -0.0547344971   0.129705272   0.059891284        8893134     295220
   9  8  0     -906.0105038968     0.0103790624   0.071265730   0.102357082        8805962     303029
  10  9  0     -906.0327234297    -0.0222195329   0.009786707   0.014410675        8716342     309448
  11 10  0     -906.0333182496    -0.0005948198   0.001852104   0.004085972        8375834     324276
  12 11  0     -906.0333573559    -0.0000391064   0.000656662   0.001006709        7979319     339356
  13 12  0     -906.0333609881    -0.0000036322   0.000544505   0.000428013        7644855     351481
  14 13  0     -906.0333619270    -0.0000009388   0.000064969   0.000103021        7326396     361980
 DFT CODE IS SWITCHING BACK TO THE FINE GRID
          * * *   INITIATING DIIS PROCEDURE   * * *
  15 14  0     -905.9924809787     0.0408809483   0.006518004   0.005078676        8957520     277735
  16 15  0     -905.9929182936    -0.0004373149   0.004807199   0.003857971        8371782     326461
  17 16  0     -905.9929615461    -0.0000432525   0.001996697   0.003026629        8134404     335071
  18 17  0     -905.9930031763    -0.0000416302   0.000923177   0.001112451        7886875     343951
  19 18  0     -905.9930079011    -0.0000047248   0.000176587   0.000282090        7464525     359447
  20 19  0     -905.9930081817    -0.0000002806   0.000048441   0.000056542        7060371     370991
  21 20  0     -905.9930082114    -0.0000000297   0.000018676   0.000017657        6719105     380047
  22 21  0     -905.9930082151    -0.0000000036   0.000004849   0.000007850        6221159     395090

          -----------------
          DENSITY CONVERGED
          -----------------
     TIME TO FORM FOCK OPERATORS=      12.6 SECONDS (       0.6 SEC/ITER)
     FOCK TIME ON FIRST ITERATION=       0.1, LAST ITERATION=       1.4
     TIME TO SOLVE SCF EQUATIONS=       0.3 SECONDS (       0.0 SEC/ITER)

 FINAL R-B3LYP ENERGY IS     -905.9930082151 AFTER  22 ITERATIONS
 DFT EXCHANGE + CORRELATION ENERGY =       -75.3629373346
 TOTAL ELECTRON NUMBER             =        87.9999922197

          ------------
          EIGENVECTORS
          ------------

                      1          2          3          4          5
                  -76.7152   -19.0987   -19.0813   -19.0755   -19.0602
                     A          A          A          A          A   
    1  C  1  S   -0.000004   0.000004   0.000157  -0.000740   0.000058
    2  C  1  S   -0.000067  -0.000006   0.000562  -0.002810   0.000183
    3  C  1  X    0.000004  -0.000112  -0.000643  -0.001696   0.000449
    4  C  1  Y   -0.000009   0.000027  -0.000571   0.000628  -0.000119
    5  C  1  Z    0.000083  -0.000377   0.000307  -0.000238  -0.000037
    6  C  1  S    0.000696  -0.001986  -0.003380   0.018173  -0.002511
    7  C  1  X    0.000300  -0.000064   0.000265  -0.005487  -0.000240
    8  C  1  Y    0.000372  -0.000757  -0.001881   0.004927  -0.000106
    9  C  1  Z   -0.001600   0.005181  -0.005768  -0.003350   0.001041
   10  H  2  S    0.000025  -0.000825   0.003229  -0.000266  -0.000090
   11  H  2  S   -0.000091   0.002443   0.006332  -0.000145   0.000246
   12  O  3  S   -0.000181  -0.000056   0.000231   0.001593   0.002242
   13  O  3  S   -0.001216  -0.000032   0.000106   0.000687   0.000870
   14  O  3  X   -0.000044   0.000003   0.000061   0.000472  -0.000378
   15  O  3  Y   -0.000099  -0.000002  -0.000033  -0.000039   0.000484
   16  O  3  Z    0.000066  -0.000003   0.000009  -0.000417  -0.000439
   17  O  3  S    0.003128   0.000083  -0.000287  -0.001035  -0.001241
   18  O  3  X    0.001291  -0.000005  -0.000239  -0.001833   0.001404
   19  O  3  Y    0.002447   0.000029   0.000125   0.000110  -0.002093
   20  O  3  Z   -0.001112  -0.000000  -0.000023   0.001646   0.001781
   21  O  4  S   -0.000004   0.982644   0.008363   0.001539  -0.000200
   22  O  4  S   -0.000030   0.106660   0.000101   0.000000   0.000015
   23  O  4  X   -0.000007  -0.002823  -0.000092  -0.000109   0.000014
   24  O  4  Y    0.000001  -0.001326   0.000210  -0.000002  -0.000008
   25  O  4  Z   -0.000003  -0.003370   0.000108   0.000053   0.000008
   26  O  4  S    0.000167  -0.059917   0.004882   0.000787  -0.000162
   27  O  4  X   -0.000009   0.010156  -0.001022   0.000450  -0.000055
   28  O  4  Y   -0.000009   0.004550  -0.000958  -0.000044   0.000052
   29  O  4  Z   -0.000019   0.011887  -0.001450  -0.000337  -0.000009
   30  O  5  S   -0.000196   0.000190  -0.002634   0.020989   0.981948
   31  O  5  S   -0.001698   0.000054  -0.000510   0.003576   0.104423
   32  O  5  X   -0.000311   0.000011  -0.000054   0.000708  -0.000140
   33  O  5  Y    0.000309   0.000004   0.000006  -0.000126  -0.002944
   34  O  5  Z   -0.000324   0.000008  -0.000062  -0.000037   0.001434
   35  O  5  S    0.003794  -0.000112   0.000866  -0.005038  -0.046849
   36  O  5  X    0.001818  -0.000074   0.000290  -0.003352  -0.001094
   37  O  5  Y   -0.001865   0.000003  -0.000056   0.000762   0.006117
   38  O  5  Z    0.001817  -0.000042   0.000291  -0.000097  -0.003633
   39  O  6  S   -0.000181   0.000326   0.005584   0.010141   0.019270
   40  O  6  S   -0.001535   0.000106   0.001347   0.002316   0.003163
   41  O  6  X    0.000216   0.000005   0.000375   0.000154  -0.000538
   42  O  6  Y    0.000280   0.000006   0.000182  -0.000200   0.000147
   43  O  6  Z    0.000393  -0.000013   0.000036  -0.000604  -0.000647
   44  O  6  S    0.003327  -0.000257  -0.002680  -0.003802  -0.004017
   45  O  6  X   -0.001206  -0.000035  -0.001663  -0.000531   0.002389
   46  O  6  Y   -0.001731  -0.000010  -0.000678   0.001047  -0.000364
   47  O  6  Z   -0.002362   0.000072  -0.000077   0.002855   0.002857
   48  O  7  S    0.000010  -0.008584   0.982479  -0.012159   0.002735
   49  O  7  S    0.000091  -0.001778   0.106265  -0.001107   0.000045
   50  O  7  X   -0.000025   0.000217   0.002288  -0.000145   0.000101
   51  O  7  Y   -0.000004   0.000170  -0.002439  -0.000166  -0.000023
   52  O  7  Z   -0.000000   0.000363  -0.000503  -0.000131  -0.000072
   53  O  7  S   -0.000316   0.005477  -0.054829   0.000389   0.000656
   54  O  7  X    0.000048  -0.000218  -0.005841   0.000384  -0.000429
   55  O  7  Y    0.000065  -0.002212   0.008491   0.000340  -0.000025
   56  O  7  Z    0.000018  -0.002501   0.003720   0.000372   0.000170
   57  O  8  S   -0.000164  -0.001697   0.012169   0.982182  -0.020846
   58  O  8  S   -0.001460  -0.000382   0.001518   0.105895  -0.000844
   59  O  8  X    0.000555  -0.000088   0.000311   0.000533  -0.000610
   60  O  8  Y   -0.000116   0.000100   0.000015  -0.000860   0.000478
   61  O  8  Z   -0.000455   0.000119  -0.000129   0.002944  -0.000082
   62  O  8  S    0.003016   0.001134  -0.000756  -0.052071  -0.003354
   63  O  8  X   -0.002857   0.000749  -0.000872  -0.002510   0.003231
   64  O  8  Y    0.000669  -0.000548   0.000073   0.002210  -0.002223
   65  O  8  Z    0.002265  -0.000577   0.000851  -0.006678  -0.000168
   66  H  9  S   -0.000464  -0.000012  -0.000060  -0.000099   0.002702
   67  H  9  S    0.000396   0.000016   0.000348  -0.001130   0.004704
   68  H 10  S   -0.000372   0.000000  -0.000552   0.001076   0.000657
   69  H 10  S    0.000530   0.000121   0.004443  -0.002143  -0.002678
   70  C 11  S    0.000016   0.000253  -0.000981   0.000228  -0.000032
   71  C 11  S    0.000106   0.000910  -0.004264   0.000919  -0.000129
   72  C 11  X    0.000011  -0.000352  -0.000415   0.000659  -0.000207
   73  C 11  Y    0.000005   0.000440   0.001468   0.000145   0.000054
   74  C 11  Z   -0.000046   0.000568   0.000551  -0.000018   0.000128
   75  C 11  S   -0.000688  -0.005115   0.024089  -0.007336   0.001495
   76  C 11  X    0.000155  -0.002850  -0.000233   0.001112   0.000691
   77  C 11  Y    0.000377  -0.006184   0.008834   0.002401  -0.000772
   78  C 11  Z    0.000705  -0.010663   0.014372   0.000952  -0.000785
   79  C 12  S   -0.000004   0.000099   0.000210  -0.000131   0.000026
   80  C 12  S   -0.000030   0.000330   0.000477  -0.000940   0.000162
   81  C 12  X   -0.000008   0.001758   0.000497   0.000297   0.000006
   82  C 12  Y    0.000019   0.000207  -0.000164   0.000200  -0.000029
   83  C 12  Z   -0.000001   0.001507   0.000204   0.000027  -0.000003
   84  C 12  S    0.000099   0.023444  -0.007755   0.002969  -0.000988
   85  C 12  X   -0.000085   0.007279   0.002050  -0.002842   0.000562
   86  C 12  Y   -0.000188   0.013115  -0.006425  -0.000788  -0.000042
   87  C 12  Z   -0.000259   0.019174  -0.006535  -0.000962   0.000417
   88  P 13  S    0.986800   0.000002  -0.000005   0.000100   0.000110
   89  P 13  S    0.050073  -0.000018   0.000047  -0.001169  -0.001254
   90  P 13  X    0.000040  -0.000001   0.000023  -0.000383   0.000320
   91  P 13  Y    0.000063  -0.000016  -0.000007   0.000031  -0.000190
   92  P 13  Z   -0.000056   0.000026  -0.000020   0.000174   0.000260
   93  P 13  S   -0.016518   0.000014  -0.000086  -0.000839  -0.000462
   94  P 13  X   -0.000029   0.000044  -0.000264   0.002323  -0.002420
   95  P 13  Y    0.000060   0.000062   0.000095  -0.000489   0.001249
   96  P 13  Z    0.000070  -0.000174   0.000088  -0.001119  -0.001691
   97  P 13  S   -0.000286   0.000294  -0.000803   0.013864   0.015229
   98  P 13  X   -0.000181   0.000202   0.000604   0.005697  -0.002475
   99  P 13  Y   -0.000956   0.000111  -0.001185   0.001909   0.008011
  100  P 13  Z    0.000613  -0.000005   0.000257  -0.005822  -0.005542
  101  H 14  S    0.000195  -0.000304   0.001106  -0.000934  -0.000337
  102  H 14  S    0.000640  -0.002600   0.001551  -0.001995   0.001107
  103  H 15  S   -0.000210   0.000151  -0.000685  -0.001403   0.000343
  104  H 15  S   -0.000436   0.002162  -0.000830  -0.001520   0.000489
  105  H 16  S    0.000086  -0.000493  -0.000998   0.000592  -0.000133
  106  H 16  S    0.000265  -0.001734   0.000591   0.000138  -0.000352
  107  H 17  S   -0.000045   0.000448  -0.000922  -0.000451   0.000084
  108  H 17  S   -0.000121   0.004600  -0.002291  -0.000109   0.000097

                      6          7          8          9         10
                  -19.0466   -18.9859   -10.2618   -10.2221   -10.2188
                     A          A          A          A          A   
    1  C  1  S    0.000168   0.000069  -0.005737  -0.128182   0.978039
    2  C  1  S    0.001138   0.000584  -0.002502  -0.018333   0.110649
    3  C  1  X   -0.000518  -0.000707  -0.001307   0.000398  -0.000076
    4  C  1  Y    0.000370   0.000096   0.000074  -0.000204   0.000360
    5  C  1  Z    0.000135   0.000199  -0.000358  -0.000104   0.000247
    6  C  1  S   -0.003218  -0.000164   0.003696   0.040187  -0.083748
    7  C  1  X    0.002384   0.002599   0.005340   0.012627  -0.003968
    8  C  1  Y   -0.002544  -0.001260  -0.000655   0.012417  -0.003819
    9  C  1  Z    0.000339  -0.000579   0.002524   0.000726  -0.001251
   10  H  2  S   -0.000184   0.000150  -0.000384  -0.000736  -0.000062
   11  H  2  S   -0.000796  -0.000078   0.002284   0.003075   0.000705
   12  O  3  S    0.003309   0.982350   0.000006   0.000001   0.000039
   13  O  3  S    0.001086   0.104190   0.000064  -0.000010   0.000439
   14  O  3  X    0.000422   0.001865   0.000052  -0.000089   0.000463
   15  O  3  Y    0.000381   0.003257  -0.000014  -0.000008  -0.000073
   16  O  3  Z    0.000491  -0.001428  -0.000032  -0.000041   0.000043
   17  O  3  S   -0.001851  -0.046939  -0.000207  -0.000115  -0.001175
   18  O  3  X   -0.001657  -0.004615  -0.000253   0.000274  -0.001882
   19  O  3  Y   -0.001460  -0.007812   0.000040   0.000035   0.000155
   20  O  3  Z   -0.001943   0.003395   0.000147   0.000186  -0.000060
   21  O  4  S   -0.000365   0.000045   0.000313   0.000036   0.000003
   22  O  4  S    0.000056  -0.000029   0.000897   0.000009  -0.000027
   23  O  4  X    0.000027   0.000009   0.000784   0.000004  -0.000136
   24  O  4  Y   -0.000010   0.000016   0.000316   0.000260  -0.000045
   25  O  4  Z   -0.000044  -0.000023   0.000799   0.000241   0.000135
   26  O  4  S   -0.000554   0.000214  -0.001975  -0.001716   0.000046
   27  O  4  X   -0.000024  -0.000111   0.001960   0.002272   0.000837
   28  O  4  Y    0.000062  -0.000074   0.002391  -0.001446   0.000095
   29  O  4  Z    0.000270   0.000045   0.004194  -0.000086  -0.000211
   30  O  5  S   -0.019226  -0.002066   0.000008   0.000001  -0.000014
   31  O  5  S   -0.000929   0.000452   0.000078   0.000009  -0.000099
   32  O  5  X    0.000479  -0.000333   0.000059  -0.000005   0.000188
   33  O  5  Y    0.000361  -0.000716  -0.000006  -0.000065   0.000049
   34  O  5  Z    0.000380   0.000290  -0.000026  -0.000031  -0.000164
   35  O  5  S   -0.002269  -0.001204  -0.000242   0.000006   0.000442
   36  O  5  X   -0.002361   0.001340  -0.000289   0.000038  -0.000691
   37  O  5  Y   -0.001046   0.003014   0.000064   0.000249  -0.000244
   38  O  5  Z   -0.001946  -0.001197   0.000081   0.000115   0.000647
   39  O  6  S    0.982151  -0.003217   0.000015  -0.000006   0.000077
   40  O  6  S    0.104910   0.000451   0.000145  -0.000017   0.000733
   41  O  6  X    0.001230  -0.000425   0.000040   0.000137   0.000105
   42  O  6  Y   -0.001046  -0.000719  -0.000013  -0.000029  -0.000133
   43  O  6  Z   -0.003012   0.000375  -0.000027  -0.000028  -0.000010
   44  O  6  S   -0.048325  -0.001901  -0.000514   0.000261  -0.002656
   45  O  6  X   -0.002410   0.001814  -0.000197  -0.000482  -0.000552
   46  O  6  Y    0.002639   0.003037   0.000083  -0.000019   0.000847
   47  O  6  Z    0.006870  -0.001228   0.000188   0.000008   0.000463
   48  O  7  S   -0.005375  -0.000172  -0.000021  -0.000144   0.000031
   49  O  7  S    0.000114   0.000104  -0.000398  -0.000932  -0.000031
   50  O  7  X   -0.000800   0.000107  -0.000091   0.000194   0.000101
   51  O  7  Y    0.000118   0.000021   0.000408  -0.000071   0.000332
   52  O  7  Z    0.000151   0.000013   0.000251  -0.000153   0.000114
   53  O  7  S   -0.000939  -0.000784   0.000439   0.010706  -0.000721
   54  O  7  X    0.002866  -0.000397  -0.000567   0.000171   0.000377
   55  O  7  Y   -0.000314   0.000175  -0.001200  -0.003752  -0.000005
   56  O  7  Z   -0.000484   0.000088  -0.001039  -0.002171   0.000040
   57  O  8  S   -0.009541  -0.001423  -0.000064   0.000065  -0.000051
   58  O  8  S    0.000111   0.000323  -0.000637   0.000200  -0.000127
   59  O  8  X   -0.000217  -0.000480  -0.000351  -0.000237   0.000173
   60  O  8  Y    0.000592  -0.000687   0.000066  -0.000035  -0.000156
   61  O  8  Z    0.000448   0.000161   0.000008  -0.000169   0.000328
   62  O  8  S   -0.002252  -0.000537   0.002301  -0.003198   0.007273
   63  O  8  X    0.001917   0.002295   0.001932  -0.001585   0.003323
   64  O  8  Y   -0.002655   0.002414  -0.000589   0.000043  -0.000957
   65  O  8  Z   -0.002215  -0.000608   0.000026  -0.000030  -0.000203
   66  H  9  S   -0.000608   0.001445  -0.000032   0.000109  -0.000386
   67  H  9  S    0.000017  -0.001811   0.000019  -0.000206   0.000987
   68  H 10  S    0.002554  -0.000880   0.000078  -0.000043  -0.000108
   69  H 10  S    0.007019   0.000445   0.000084   0.000546   0.000220
   70  C 11  S   -0.000012  -0.000015  -0.009856   0.978724   0.127294
   71  C 11  S    0.000005  -0.000043  -0.002623   0.115377   0.012066
   72  C 11  X   -0.000053   0.000025  -0.000728   0.000392   0.000240
   73  C 11  Y    0.000054  -0.000056   0.000274  -0.000860  -0.000078
   74  C 11  Z    0.000024  -0.000258  -0.000181   0.000081  -0.000309
   75  C 11  S    0.000394  -0.000071   0.014633  -0.109359   0.007828
   76  C 11  X   -0.001497  -0.000294   0.011442  -0.001637  -0.013557
   77  C 11  Y   -0.000878   0.000837  -0.004426   0.013583  -0.006576
   78  C 11  Z   -0.000517   0.001527  -0.000187  -0.001489   0.001338
   79  C 12  S    0.000008   0.000017   0.985244   0.008658   0.006537
   80  C 12  S    0.000138   0.000117   0.105384  -0.001859  -0.001597
   81  C 12  X   -0.000116  -0.000082   0.000287  -0.000103   0.000991
   82  C 12  Y   -0.000007  -0.000011   0.000537  -0.000349   0.000255
   83  C 12  Z   -0.000039  -0.000005   0.001058  -0.000201   0.000229
   84  C 12  S    0.000492  -0.000155  -0.057935   0.027253   0.008039
   85  C 12  X    0.000389   0.000285   0.011187  -0.016900  -0.004350
   86  C 12  Y    0.000770  -0.000140   0.001266   0.008305   0.001016
   87  C 12  Z    0.000452  -0.000506   0.008745  -0.000996  -0.001490
   88  P 13  S    0.000091   0.000050  -0.000000  -0.000003  -0.000000
   89  P 13  S   -0.001171  -0.000812  -0.000077   0.000039  -0.000273
   90  P 13  X   -0.000205   0.000116   0.000036   0.000045   0.000076
   91  P 13  Y   -0.000349   0.000036  -0.000008  -0.000027   0.000029
   92  P 13  Z   -0.000154  -0.000033  -0.000000  -0.000026  -0.000075
   93  P 13  S   -0.001196   0.000052  -0.000623  -0.000027  -0.002307
   94  P 13  X    0.001173  -0.002279  -0.000252  -0.000166  -0.001125
   95  P 13  Y    0.002315  -0.002963   0.000043   0.000230  -0.000082
   96  P 13  Z    0.001699   0.001400   0.000001   0.000232   0.000406
   97  P 13  S    0.015442   0.016912   0.001875  -0.000411   0.005986
   98  P 13  X    0.006111  -0.004534   0.001266  -0.000537   0.006298
   99  P 13  Y    0.005276  -0.010652  -0.000223  -0.000784  -0.001232
  100  P 13  Z    0.005102   0.003920  -0.000576  -0.000731  -0.000017
  101  H 14  S    0.000732   0.000824  -0.000983  -0.001955   0.000122
  102  H 14  S   -0.002212  -0.002221  -0.000874  -0.001123   0.014815
  103  H 15  S    0.000060  -0.000202  -0.000528  -0.001526  -0.000620
  104  H 15  S   -0.000558  -0.000608  -0.000315  -0.001102   0.015921
  105  H 16  S   -0.000029   0.000147  -0.001541   0.001125  -0.001297
  106  H 16  S    0.000054   0.000490   0.002036   0.016166   0.004039
  107  H 17  S    0.000137  -0.000015  -0.001733  -0.001012  -0.000465
  108  H 17  S    0.000110  -0.000232   0.014281   0.003216  -0.000792

                     11         12         13         14         15
                   -6.6820    -4.8454    -4.8446    -4.8442    -1.1259
                     A          A          A          A          A   
    1  C  1  S   -0.000142  -0.000174  -0.000263   0.000071  -0.016267
    2  C  1  S   -0.000763  -0.000823  -0.000692   0.000352   0.019082
    3  C  1  X    0.000601  -0.000029  -0.000620  -0.000534  -0.000817
    4  C  1  Y   -0.000155  -0.000437   0.000321  -0.000453   0.010314
    5  C  1  Z   -0.000682  -0.000485   0.000063  -0.000052   0.000897
    6  C  1  S   -0.000312   0.002036   0.004668  -0.000174   0.022884
    7  C  1  X   -0.006279  -0.003480  -0.004802   0.005973  -0.013264
    8  C  1  Y    0.000389   0.002993   0.002544   0.003263   0.005004
    9  C  1  Z    0.008275   0.006477  -0.002315  -0.002376  -0.010914
   10  H  2  S    0.000007   0.000076   0.000142   0.000007   0.040223
   11  H  2  S    0.000308   0.000119   0.000030  -0.000180   0.004646
   12  O  3  S    0.000348   0.000622  -0.000410   0.000197  -0.009705
   13  O  3  S    0.002717   0.000102  -0.000427   0.000250   0.008513
   14  O  3  X   -0.000169  -0.000018  -0.000279   0.000082   0.003556
   15  O  3  Y    0.000162   0.000315  -0.000208   0.000200   0.006403
   16  O  3  Z   -0.000149  -0.000311   0.000228   0.000197  -0.002881
   17  O  3  S   -0.008880   0.005516  -0.002169   0.000619   0.029151
   18  O  3  X   -0.005067   0.005392  -0.002794   0.001414   0.004851
   19  O  3  Y   -0.011285   0.009481  -0.004733   0.001242   0.006662
   20  O  3  Z    0.005062  -0.003087   0.000908  -0.003012  -0.003227
   21  O  4  S    0.000014   0.000010  -0.000028  -0.000000  -0.187583
   22  O  4  S    0.000080   0.000053  -0.000181  -0.000002   0.179227
   23  O  4  X    0.000006  -0.000017   0.000005  -0.000007  -0.083879
   24  O  4  Y   -0.000016   0.000021  -0.000002   0.000026  -0.043385
   25  O  4  Z    0.000039   0.000024   0.000021  -0.000018  -0.104027
   26  O  4  S   -0.000653  -0.000535   0.000971   0.000027   0.572404
   27  O  4  X    0.000194   0.000369  -0.000167   0.000063  -0.082122
   28  O  4  Y    0.000085  -0.000121  -0.000031  -0.000133  -0.036881
   29  O  4  Z   -0.000016   0.000045  -0.000230   0.000067  -0.096055
   30  O  5  S    0.000641  -0.000063  -0.000071  -0.000051  -0.016820
   31  O  5  S    0.004937  -0.000603  -0.002117  -0.000235   0.015094
   32  O  5  X    0.000407   0.001047   0.000334   0.000212   0.000738
   33  O  5  Y   -0.001086   0.000310   0.000002   0.000244  -0.008235
   34  O  5  Z    0.000887   0.000237   0.000319   0.000198   0.004250
   35  O  5  S   -0.012001   0.001563   0.007569   0.000753   0.051447
   36  O  5  X   -0.005484  -0.004779   0.005606  -0.001517   0.002534
   37  O  5  Y    0.008749  -0.001952  -0.007672  -0.000690  -0.009317
   38  O  5  Z   -0.007446  -0.000757   0.005623  -0.001430   0.004778
   39  O  6  S    0.000542   0.000129  -0.000121  -0.000032  -0.019550
   40  O  6  S    0.004170   0.001664  -0.000304   0.001321   0.017369
   41  O  6  X   -0.000290   0.000892   0.000151   0.000148   0.003111
   42  O  6  Y   -0.000568   0.000707   0.000084   0.000164  -0.003830
   43  O  6  Z   -0.000990  -0.000343   0.000409   0.000120  -0.009573
   44  O  6  S   -0.009459  -0.005461   0.000989  -0.005571   0.059637
   45  O  6  X    0.003744  -0.002251   0.000562   0.003695   0.002582
   46  O  6  Y    0.006454   0.000073   0.001529   0.006026  -0.006775
   47  O  6  Z    0.009325   0.005716   0.000396   0.007387  -0.012352
   48  O  7  S   -0.000037  -0.000011   0.000007   0.000009  -0.070483
   49  O  7  S   -0.000259  -0.000066   0.000034   0.000068   0.067318
   50  O  7  X   -0.000067  -0.000075   0.000037   0.000013   0.028781
   51  O  7  Y    0.000059   0.000122   0.000077   0.000031  -0.025130
   52  O  7  Z    0.000171   0.000171   0.000073  -0.000052  -0.003172
   53  O  7  S    0.001529   0.000555  -0.000250  -0.000336   0.199010
   54  O  7  X    0.000610   0.000802  -0.000121  -0.000026   0.030065
   55  O  7  Y   -0.000654  -0.000765  -0.000230  -0.000164  -0.023537
   56  O  7  Z   -0.000858  -0.000699  -0.000336   0.000245  -0.001059
   57  O  8  S    0.000537   0.000114   0.000054  -0.000006  -0.031241
   58  O  8  S    0.004229   0.001861   0.000475  -0.001016   0.028872
   59  O  8  X   -0.001327   0.000240   0.000886   0.000040   0.001559
   60  O  8  Y    0.000080   0.000388  -0.000691   0.000554  -0.002582
   61  O  8  Z    0.001648   0.000450   0.000188  -0.000075   0.013865
   62  O  8  S   -0.008990  -0.005509  -0.001208   0.003372   0.090511
   63  O  8  X    0.009617   0.005603  -0.004667  -0.005780  -0.004435
   64  O  8  Y   -0.001178  -0.002679   0.003275  -0.001394   0.000946
   65  O  8  Z   -0.010605  -0.007638  -0.000815   0.005381   0.017950
   66  H  9  S    0.001804  -0.001810  -0.000914  -0.000744   0.007287
   67  H  9  S    0.001283  -0.007017  -0.005085  -0.000917   0.000600
   68  H 10  S    0.000722   0.002396  -0.000355   0.000229   0.010764
   69  H 10  S    0.002752   0.006298   0.002890   0.001005   0.006594
   70  C 11  S   -0.000028   0.000036   0.000022   0.000124  -0.044146
   71  C 11  S   -0.000398  -0.000153  -0.000037   0.000718   0.041708
   72  C 11  X    0.000103   0.000788   0.000130   0.000308   0.013623
   73  C 11  Y   -0.000070  -0.000236  -0.000094  -0.000080   0.012401
   74  C 11  Z    0.000303   0.000250  -0.000131   0.000006   0.027082
   75  C 11  S    0.002375  -0.001903  -0.000329  -0.005444   0.073442
   76  C 11  X   -0.001108  -0.003233   0.000754   0.000441   0.004848
   77  C 11  Y   -0.002511   0.000299   0.000066   0.002875   0.008422
   78  C 11  Z   -0.004373  -0.003764   0.000796   0.000496   0.021825
   79  C 12  S   -0.000026  -0.000080  -0.000016  -0.000013  -0.116778
   80  C 12  S   -0.000226  -0.000470  -0.000179   0.000033   0.127121
   81  C 12  X    0.000163   0.000035   0.000032  -0.000185   0.069074
   82  C 12  Y   -0.000028  -0.000024   0.000059  -0.000019   0.060805
   83  C 12  Z    0.000033   0.000042   0.000124  -0.000018   0.112778
   84  C 12  S    0.000615   0.003381  -0.000149   0.001211   0.125014
   85  C 12  X   -0.000587  -0.002074  -0.000414  -0.000586  -0.021946
   86  C 12  Y    0.000923   0.001516  -0.000878   0.000243  -0.020697
   87  C 12  Z    0.001235   0.000503  -0.001074  -0.000350  -0.036893
   88  P 13  S   -0.294495   0.001309  -0.000771   0.000092   0.007216
   89  P 13  S    0.988460  -0.004638   0.003073  -0.000453  -0.035562
   90  P 13  X    0.002095   0.831122   0.475486  -0.145345  -0.004378
   91  P 13  Y    0.003684   0.440604  -0.575706   0.642354  -0.001569
   92  P 13  Z   -0.002191  -0.228759   0.617339   0.711149   0.002311
   93  P 13  S    0.147707  -0.000319   0.003169  -0.001691   0.047031
   94  P 13  X    0.001449   0.092162   0.050741  -0.014595   0.007187
   95  P 13  Y   -0.000410   0.050318  -0.062389   0.068409   0.002247
   96  P 13  Z   -0.000626  -0.025181   0.066322   0.074312  -0.003490
   97  P 13  S   -0.035173  -0.000134  -0.007876   0.003203  -0.000625
   98  P 13  X   -0.003973  -0.029512  -0.020854   0.005519  -0.006330
   99  P 13  Y    0.002378  -0.010123   0.015794  -0.017652   0.000490
  100  P 13  Z   -0.001521   0.001911  -0.016676  -0.018514   0.000437
  101  H 14  S   -0.001947  -0.001176  -0.001206   0.000587   0.006214
  102  H 14  S   -0.000738  -0.000214   0.006518   0.001178   0.007639
  103  H 15  S    0.000954   0.000833  -0.000291   0.000148   0.005627
  104  H 15  S    0.003115   0.003001  -0.000269  -0.000542  -0.005640
  105  H 16  S   -0.000436  -0.000376   0.000279   0.000233   0.012617
  106  H 16  S   -0.001395  -0.001119  -0.000228   0.000055  -0.004844
  107  H 17  S    0.000092  -0.000017  -0.000225  -0.000012   0.022030
  108  H 17  S    0.000708   0.000653  -0.000328  -0.000103  -0.022777

                     16         17         18         19         20
                   -1.1139    -1.0692    -1.0456    -1.0283    -0.9741
                     A          A          A          A          A   
    1  C  1  S   -0.040923  -0.023167  -0.055786   0.025796   0.013985
    2  C  1  S    0.040170   0.022603   0.058205  -0.030527  -0.014011
    3  C  1  X   -0.038186   0.002559  -0.055734   0.023172   0.011756
    4  C  1  Y    0.020440   0.018492   0.023983  -0.014184  -0.006480
    5  C  1  Z   -0.009238   0.000439  -0.015927   0.007271   0.004891
    6  C  1  S    0.072451   0.032487   0.107058  -0.043876  -0.036934
    7  C  1  X    0.000529  -0.007393   0.002327  -0.006599  -0.009181
    8  C  1  Y    0.007012   0.003844   0.002021   0.013676  -0.006833
    9  C  1  Z    0.004236   0.024132  -0.010425   0.008020  -0.003523
   10  H  2  S    0.003606   0.092585  -0.033525  -0.003036   0.005719
   11  H  2  S    0.000036   0.007656  -0.004463   0.002445   0.000977
   12  O  3  S   -0.053446   0.019813   0.020061  -0.009730  -0.207371
   13  O  3  S    0.048059  -0.018310  -0.018241   0.008601   0.189252
   14  O  3  X    0.019446  -0.005604  -0.001750   0.005342   0.058994
   15  O  3  Y    0.035078  -0.012978  -0.014732   0.006905   0.106371
   16  O  3  Z   -0.015789   0.005505   0.004909   0.003288  -0.046528
   17  O  3  S    0.157112  -0.057878  -0.060599   0.030793   0.647440
   18  O  3  X    0.020892  -0.003962   0.001357   0.007835   0.061623
   19  O  3  Y    0.037025  -0.013452  -0.016035   0.008029   0.112293
   20  O  3  Z   -0.017222   0.006571   0.005967   0.003663  -0.050756
   21  O  4  S    0.052541   0.077293  -0.015776  -0.003334   0.001103
   22  O  4  S   -0.049974  -0.073221   0.015117   0.002974  -0.001071
   23  O  4  X    0.022469   0.026977  -0.004757  -0.000935   0.000173
   24  O  4  Y    0.012678   0.022098  -0.005123  -0.000982   0.000518
   25  O  4  Z    0.028986   0.042241  -0.008778  -0.001606   0.000665
   26  O  4  S   -0.163906  -0.255925   0.052815   0.012596  -0.004064
   27  O  4  X    0.021779   0.027252  -0.005474  -0.000604   0.000091
   28  O  4  Y    0.011257   0.023321  -0.005988  -0.001055   0.000952
   29  O  4  Z    0.027803   0.043807  -0.008786  -0.002583   0.000640
   30  O  5  S   -0.100185   0.061243   0.148790   0.103528   0.063992
   31  O  5  S    0.090373  -0.055799  -0.136705  -0.095778  -0.059764
   32  O  5  X    0.001962   0.005554   0.022549   0.018744   0.010796
   33  O  5  Y   -0.048433   0.027746   0.063955   0.046499   0.018280
   34  O  5  Z    0.024005  -0.011841  -0.025418  -0.009244  -0.003681
   35  O  5  S    0.307368  -0.190807  -0.465544  -0.324739  -0.206222
   36  O  5  X    0.010029   0.000353   0.010447   0.008512   0.006300
   37  O  5  Y   -0.054654   0.032246   0.074782   0.055973   0.018282
   38  O  5  Z    0.029462  -0.016974  -0.039666  -0.015210  -0.005236
   39  O  6  S   -0.092815   0.014340   0.024975  -0.195119   0.055310
   40  O  6  S    0.082488  -0.011759  -0.023276   0.177936  -0.051866
   41  O  6  X    0.010016   0.003931   0.000680   0.040283  -0.021243
   42  O  6  Y   -0.020758   0.005176   0.001869  -0.024301  -0.005894
   43  O  6  Z   -0.046407   0.007823   0.009970  -0.074863   0.021576
   44  O  6  S    0.286321  -0.050218  -0.075567   0.615893  -0.175172
   45  O  6  X    0.009657   0.001226   0.006175   0.034226  -0.018612
   46  O  6  Y   -0.027014   0.001079   0.001712  -0.040282  -0.003720
   47  O  6  Z   -0.056921   0.009146   0.012137  -0.091850   0.027033
   48  O  7  S   -0.013962  -0.194680   0.065251   0.005363  -0.008825
   49  O  7  S    0.011681   0.180048  -0.060434  -0.006550   0.008430
   50  O  7  X    0.000503   0.068673  -0.025976  -0.005319   0.006210
   51  O  7  Y   -0.004806  -0.057585   0.015539   0.003985  -0.001612
   52  O  7  Z   -0.001392  -0.004923  -0.002196   0.003109   0.000658
   53  O  7  S    0.047006   0.610988  -0.207897  -0.013162   0.029599
   54  O  7  X   -0.002970   0.072899  -0.028212  -0.011300   0.008275
   55  O  7  Y   -0.007495  -0.070238   0.020223   0.002536  -0.002007
   56  O  7  Z   -0.002934  -0.014971   0.001846   0.003268  -0.000718
   57  O  8  S   -0.132010  -0.018021  -0.154587   0.068309   0.028956
   58  O  8  S    0.117896   0.016495   0.141077  -0.062343  -0.027129
   59  O  8  X   -0.006159   0.013513   0.022212  -0.007082  -0.013020
   60  O  8  Y   -0.009132  -0.003921  -0.023423   0.011696  -0.002112
   61  O  8  Z    0.059224   0.006406   0.059143  -0.018966  -0.006833
   62  O  8  S    0.409021   0.054881   0.486165  -0.218229  -0.093859
   63  O  8  X   -0.011837   0.013343   0.013165  -0.002700  -0.014185
   64  O  8  Y   -0.007707  -0.003921  -0.024928   0.013301  -0.003984
   65  O  8  Z    0.073226   0.006157   0.079656  -0.023885  -0.006907
   66  H  9  S    0.044157  -0.030272  -0.078436  -0.057453  -0.036907
   67  H  9  S    0.008069  -0.008552  -0.021459  -0.016634   0.001406
   68  H 10  S    0.038043   0.004382  -0.011948   0.094286  -0.033278
   69  H 10  S    0.009788   0.016824  -0.004094   0.015880  -0.012026
   70  C 11  S   -0.008120  -0.072746   0.010597   0.009797   0.000537
   71  C 11  S    0.009749   0.077354  -0.012106  -0.008950  -0.001472
   72  C 11  X   -0.015263  -0.019471  -0.009698   0.006077   0.003476
   73  C 11  Y    0.000580   0.055618  -0.027153   0.001105   0.005819
   74  C 11  Z    0.000982   0.055132  -0.020841  -0.001144   0.003877
   75  C 11  S    0.008747   0.128738  -0.021035  -0.023629   0.008391
   76  C 11  X    0.000145   0.001744  -0.003830   0.006401   0.000865
   77  C 11  Y   -0.002650  -0.025775   0.009341   0.002380  -0.007105
   78  C 11  Z   -0.011376  -0.032529   0.006112  -0.000054  -0.000543
   79  C 12  S    0.029795   0.030954  -0.006100  -0.000174   0.000582
   80  C 12  S   -0.031324  -0.034390   0.008831  -0.000897  -0.000963
   81  C 12  X   -0.024893  -0.055686   0.010560   0.004775  -0.000288
   82  C 12  Y   -0.015374  -0.010452  -0.000094   0.000479   0.000556
   83  C 12  Z   -0.032255  -0.048855   0.009318   0.002727  -0.000427
   84  C 12  S   -0.034359  -0.034052   0.003999   0.000740  -0.002888
   85  C 12  X    0.008996   0.010273   0.002159  -0.003276   0.000811
   86  C 12  Y    0.009304   0.031254  -0.007585  -0.003561   0.000816
   87  C 12  Z    0.014690   0.040889  -0.010080  -0.002487   0.002014
   88  P 13  S    0.036797  -0.009216  -0.006523   0.005530   0.019930
   89  P 13  S   -0.182727   0.046206   0.032816  -0.027630  -0.101399
   90  P 13  X   -0.012540  -0.016386  -0.061054  -0.029773   0.046849
   91  P 13  Y   -0.009192   0.006310   0.028038  -0.019529   0.101639
   92  P 13  Z    0.011432  -0.002146   0.007095  -0.069386  -0.037272
   93  P 13  S    0.232715  -0.057331  -0.040126   0.036592   0.125645
   94  P 13  X    0.021079   0.023042   0.087814   0.044521  -0.067420
   95  P 13  Y    0.015094  -0.009920  -0.039437   0.028506  -0.145684
   96  P 13  Z   -0.018026   0.003030  -0.009520   0.097937   0.053015
   97  P 13  S    0.025610  -0.011997  -0.004784   0.001571   0.017276
   98  P 13  X   -0.007542  -0.007142  -0.016357  -0.010877   0.010714
   99  P 13  Y   -0.004396   0.003679   0.006740  -0.000804   0.017351
  100  P 13  Z    0.001791  -0.003524  -0.002045  -0.012329  -0.005255
  101  H 14  S    0.010572   0.005319   0.016951  -0.009698  -0.005018
  102  H 14  S    0.002735  -0.009165   0.005508   0.008545   0.009861
  103  H 15  S    0.009906   0.007820   0.015371  -0.007318  -0.004321
  104  H 15  S   -0.000215   0.004332  -0.006835   0.010189  -0.002023
  105  H 16  S    0.001804   0.017795  -0.001632  -0.003021  -0.000948
  106  H 16  S   -0.001197  -0.012976   0.003191  -0.000312  -0.000402
  107  H 17  S   -0.004805  -0.003385   0.001364  -0.000673  -0.000273
  108  H 17  S    0.007775   0.018759  -0.004475  -0.001355   0.000888

                     21         22         23         24         25
                   -0.8122    -0.7081    -0.6280    -0.6229    -0.5674
                     A          A          A          A          A   
    1  C  1  S   -0.119891  -0.128075   0.012927  -0.074523   0.008410
    2  C  1  S    0.125028   0.122429  -0.012382   0.069739  -0.007388
    3  C  1  X    0.078144  -0.046977  -0.066056   0.045267  -0.036079
    4  C  1  Y    0.025469  -0.023168  -0.047378  -0.122511  -0.029410
    5  C  1  Z   -0.002162  -0.010081  -0.036548   0.058622  -0.066609
    6  C  1  S    0.290917   0.416431  -0.032258   0.279703  -0.026767
    7  C  1  X    0.019093   0.012213  -0.026507   0.046605  -0.021275
    8  C  1  Y   -0.006997   0.002676  -0.023732  -0.061190  -0.028342
    9  C  1  Z    0.007403   0.024883  -0.025033   0.042000  -0.063274
   10  H  2  S   -0.067903   0.023468   0.092381   0.099169   0.114186
   11  H  2  S   -0.039199   0.029845   0.050236   0.062439   0.086094
   12  O  3  S   -0.015728  -0.027894  -0.029222   0.039080   0.002673
   13  O  3  S    0.014510   0.026620   0.028522  -0.036153   0.000076
   14  O  3  X   -0.000576  -0.003980  -0.002586   0.006781   0.001175
   15  O  3  Y    0.006249   0.002334  -0.014212   0.016278   0.006051
   16  O  3  Z    0.001381   0.005278  -0.001490   0.001478   0.013655
   17  O  3  S    0.052181   0.093439   0.099427  -0.143079  -0.021534
   18  O  3  X    0.001749  -0.001708  -0.002783   0.006578   0.000261
   19  O  3  Y    0.005259   0.000912  -0.012726   0.009892  -0.000650
   20  O  3  Z   -0.000984   0.002038  -0.001552   0.002349   0.014406
   21  O  4  S    0.038449  -0.052971   0.057897   0.017800  -0.011889
   22  O  4  S   -0.038287   0.052348  -0.056860  -0.018048   0.011301
   23  O  4  X   -0.005638   0.019642  -0.010888  -0.007029  -0.087825
   24  O  4  Y    0.003046  -0.003412  -0.035449  -0.018014   0.135047
   25  O  4  Z    0.001975   0.018983  -0.047418  -0.000986   0.060827
   26  O  4  S   -0.130173   0.192915  -0.221625  -0.068768   0.037246
   27  O  4  X   -0.003854   0.011455  -0.005084  -0.005547  -0.071474
   28  O  4  Y    0.002329  -0.002357  -0.028803  -0.013209   0.116975
   29  O  4  Z    0.002774   0.012344  -0.037187  -0.000155   0.054704
   30  O  5  S   -0.011703  -0.021741  -0.014878   0.015037   0.000099
   31  O  5  S    0.011127   0.021733   0.017815  -0.019656   0.001698
   32  O  5  X   -0.019761  -0.076082  -0.132154   0.143792  -0.075187
   33  O  5  Y   -0.000639   0.003927   0.003612  -0.004938   0.008517
   34  O  5  Z   -0.001379  -0.022299  -0.067885   0.077095  -0.019744
   35  O  5  S    0.039746   0.074809   0.043275  -0.037055  -0.006509
   36  O  5  X   -0.014739  -0.062948  -0.115675   0.129043  -0.068128
   37  O  5  Y   -0.002535   0.002134   0.006825  -0.008598   0.012005
   38  O  5  Z    0.001687  -0.013732  -0.061678   0.073311  -0.018706
   39  O  6  S   -0.013749  -0.019420  -0.024833   0.024934  -0.019107
   40  O  6  S    0.011486   0.019059   0.025893  -0.025893   0.014947
   41  O  6  X    0.002714   0.035181   0.098575  -0.117574  -0.080173
   42  O  6  Y    0.001850   0.023056   0.061879  -0.075567  -0.049348
   43  O  6  Z    0.002460   0.021856   0.045782  -0.048984  -0.001630
   44  O  6  S    0.052919   0.066552   0.085613  -0.086168   0.088625
   45  O  6  X    0.006149   0.030488   0.084262  -0.106102  -0.072907
   46  O  6  Y    0.001345   0.017280   0.051497  -0.063920  -0.044334
   47  O  6  Z   -0.000690   0.017494   0.042181  -0.044290  -0.002140
   48  O  7  S    0.065894  -0.026461  -0.014782  -0.013798   0.041288
   49  O  7  S   -0.061676   0.023503   0.012710   0.012644  -0.036910
   50  O  7  X   -0.036788  -0.019035   0.061359   0.071538   0.169332
   51  O  7  Y   -0.040418   0.021394   0.086878   0.060754   0.047133
   52  O  7  Z   -0.060866   0.044159   0.139941   0.144395   0.098781
   53  O  7  S   -0.240340   0.107904   0.066727   0.065785  -0.167951
   54  O  7  X   -0.037257  -0.017666   0.051645   0.066388   0.157130
   55  O  7  Y   -0.014828   0.006909   0.072551   0.046978   0.039499
   56  O  7  Z   -0.040050   0.030506   0.121243   0.117663   0.081821
   57  O  8  S    0.049241   0.027792  -0.032649   0.043535  -0.019230
   58  O  8  S   -0.043119  -0.021922   0.031031  -0.041312   0.018180
   59  O  8  X    0.079644   0.163669   0.043518  -0.059321   0.042350
   60  O  8  Y   -0.018453  -0.071485  -0.054237  -0.006977  -0.047169
   61  O  8  Z   -0.023277  -0.024452  -0.021849   0.029755  -0.029475
   62  O  8  S   -0.190074  -0.126445   0.125293  -0.170570   0.078764
   63  O  8  X    0.064088   0.144933   0.043087  -0.064041   0.037048
   64  O  8  Y   -0.011938  -0.063246  -0.053580  -0.007031  -0.047638
   65  O  8  Z   -0.031232  -0.032350  -0.015490   0.021492  -0.024429
   66  H  9  S    0.015393   0.052505   0.089821  -0.097981   0.045010
   67  H  9  S    0.007283   0.029372   0.054680  -0.060258   0.025773
   68  H 10  S    0.004837   0.036440   0.073960  -0.087957  -0.063514
   69  H 10  S   -0.010997   0.022699   0.053389  -0.051656  -0.059383
   70  C 11  S   -0.144220   0.072998   0.063312   0.061618  -0.022659
   71  C 11  S    0.138861  -0.066633  -0.061377  -0.056862   0.023633
   72  C 11  X    0.002289  -0.139439   0.125216   0.029075   0.169049
   73  C 11  Y   -0.087491  -0.013347  -0.069240  -0.117389  -0.037162
   74  C 11  Z   -0.028859   0.013363  -0.006445   0.041399  -0.029920
   75  C 11  S    0.406812  -0.253434  -0.237828  -0.249234   0.063578
   76  C 11  X    0.032076  -0.038281   0.035756   0.028720   0.111739
   77  C 11  Y   -0.054979   0.010734  -0.012465  -0.049720  -0.027939
   78  C 11  Z   -0.014191   0.000283   0.001741   0.032484  -0.022756
   79  C 12  S   -0.065135   0.093491  -0.106138  -0.031606   0.029656
   80  C 12  S    0.080750  -0.104837   0.115577   0.033499  -0.035535
   81  C 12  X   -0.099425   0.089691   0.002532  -0.004662  -0.187178
   82  C 12  Y   -0.003271  -0.005436  -0.086228  -0.060227   0.195869
   83  C 12  Z   -0.060320   0.082418  -0.095649  -0.019683   0.042564
   84  C 12  S    0.108685  -0.250615   0.356904   0.112523  -0.108750
   85  C 12  X   -0.006301   0.045577  -0.039212  -0.021491  -0.112347
   86  C 12  Y   -0.022074   0.004193  -0.047757  -0.032053   0.166418
   87  C 12  Z   -0.025689   0.054112  -0.077211  -0.009526   0.073363
   88  P 13  S   -0.007578  -0.020895  -0.023876   0.027197  -0.003108
   89  P 13  S    0.038927   0.107783   0.123768  -0.140641   0.016504
   90  P 13  X    0.026376   0.037344   0.001710  -0.002079  -0.001823
   91  P 13  Y    0.000327   0.017659   0.050405  -0.051950  -0.001052
   92  P 13  Z   -0.027333  -0.043190  -0.004518   0.000400  -0.045449
   93  P 13  S   -0.053227  -0.157982  -0.188575   0.219343  -0.021221
   94  P 13  X   -0.042310  -0.064887  -0.002791   0.003792   0.004336
   95  P 13  Y   -0.001574  -0.033700  -0.095570   0.098007   0.000622
   96  P 13  Z    0.045416   0.077548   0.009047  -0.000502   0.088851
   97  P 13  S   -0.026952  -0.071388  -0.084669   0.089838  -0.013864
   98  P 13  X   -0.008658  -0.013875  -0.010254   0.005102  -0.021474
   99  P 13  Y    0.002557  -0.007556  -0.025361   0.010113  -0.008334
  100  P 13  Z    0.008750   0.015687  -0.003100   0.010818   0.022843
  101  H 14  S    0.059362   0.077467  -0.014172   0.101503  -0.031273
  102  H 14  S   -0.008119   0.005560   0.002997   0.037599  -0.012369
  103  H 15  S    0.067383   0.081737   0.011933   0.082707   0.020287
  104  H 15  S   -0.000006   0.020060   0.014459   0.032577   0.000416
  105  H 16  S    0.074395  -0.053065  -0.048083  -0.079083   0.029038
  106  H 16  S   -0.008902  -0.009118  -0.013804  -0.031623   0.011561
  107  H 17  S    0.043095  -0.071388   0.139661   0.051652  -0.142388
  108  H 17  S    0.000197  -0.013809   0.063981   0.032492  -0.060616

                     26         27         28         29         30
                   -0.5654    -0.5471    -0.5138    -0.4978    -0.4697
                     A          A          A          A          A   
    1  C  1  S    0.011436  -0.007299  -0.005730   0.018425  -0.005851
    2  C  1  S   -0.008160   0.009950  -0.000058  -0.012330   0.004483
    3  C  1  X   -0.087844   0.068369   0.118920   0.112734  -0.161728
    4  C  1  Y    0.063672  -0.019447  -0.067405   0.255239   0.097117
    5  C  1  Z   -0.165641  -0.137932  -0.010426   0.009464   0.199730
    6  C  1  S   -0.047993   0.020441   0.029684  -0.118824   0.026013
    7  C  1  X   -0.036788   0.059481   0.073023   0.065653  -0.111864
    8  C  1  Y    0.032308  -0.028208  -0.034279   0.170777   0.085044
    9  C  1  Z   -0.106691  -0.115643   0.002759   0.004347   0.203394
   10  H  2  S    0.011227   0.056448   0.041140   0.072535   0.046777
   11  H  2  S    0.003538   0.061801   0.064417   0.077907   0.064320
   12  O  3  S    0.006201  -0.021444   0.021885  -0.015489  -0.010436
   13  O  3  S   -0.005139   0.015952  -0.017924   0.011084   0.006619
   14  O  3  X   -0.015740  -0.034758   0.043467  -0.015147   0.004997
   15  O  3  Y    0.028481  -0.012539   0.000737  -0.001719  -0.014469
   16  O  3  Z    0.030472  -0.030274  -0.007958   0.023032   0.016315
   17  O  3  S   -0.025440   0.098957  -0.095236   0.076139   0.055146
   18  O  3  X   -0.011217  -0.022976   0.032597  -0.013238   0.005875
   19  O  3  Y    0.021766  -0.000594  -0.003100   0.008430  -0.009885
   20  O  3  Z    0.029096  -0.028804  -0.003515   0.019121   0.005483
   21  O  4  S    0.004642  -0.028971  -0.062382  -0.027132  -0.024067
   22  O  4  S   -0.004650   0.025453   0.054670   0.022971   0.020838
   23  O  4  X    0.062092   0.035300   0.161345   0.009085   0.108206
   24  O  4  Y   -0.037412   0.039939   0.033302  -0.027635   0.131806
   25  O  4  Z   -0.043725   0.044441   0.097552   0.138023   0.010488
   26  O  4  S   -0.017333   0.122011   0.262678   0.112263   0.093479
   27  O  4  X    0.051981   0.028842   0.138501   0.003909   0.102139
   28  O  4  Y   -0.030328   0.033600   0.031971  -0.028597   0.127332
   29  O  4  Z   -0.038314   0.035765   0.082244   0.128630   0.008989
   30  O  5  S   -0.000281  -0.003606   0.015244  -0.001140  -0.024237
   31  O  5  S   -0.000005   0.000690  -0.011576   0.003565   0.017678
   32  O  5  X    0.026327   0.210617  -0.158391  -0.027824   0.084415
   33  O  5  Y    0.018489  -0.020252  -0.014594   0.019426   0.043506
   34  O  5  Z    0.062006   0.077600  -0.103003  -0.006316   0.049805
   35  O  5  S    0.000681   0.020739  -0.069018  -0.006074   0.120861
   36  O  5  X    0.020734   0.191656  -0.145250  -0.028302   0.084454
   37  O  5  Y    0.019306  -0.021619  -0.011475   0.020638   0.034492
   38  O  5  Z    0.060555   0.068670  -0.101722  -0.011097   0.062368
   39  O  6  S   -0.006587  -0.001508   0.006010   0.008026   0.021303
   40  O  6  S    0.003998   0.005960  -0.008044  -0.006505  -0.016045
   41  O  6  X   -0.184395   0.146096  -0.017314  -0.030798   0.069271
   42  O  6  Y   -0.094782   0.152357  -0.070839  -0.025150   0.019977
   43  O  6  Z   -0.035937   0.032921  -0.016249  -0.021005  -0.015982
   44  O  6  S    0.031207  -0.009086  -0.014339  -0.039901  -0.104696
   45  O  6  X   -0.172622   0.127037  -0.018968  -0.021253   0.080765
   46  O  6  Y   -0.086719   0.145655  -0.075992  -0.025139   0.032782
   47  O  6  Z   -0.034383   0.035084  -0.018953  -0.018048  -0.012831
   48  O  7  S   -0.020342  -0.002352  -0.013905   0.009798   0.014902
   49  O  7  S    0.019895   0.002479   0.013132  -0.007102  -0.014071
   50  O  7  X    0.020666   0.013142   0.010213  -0.011399   0.040139
   51  O  7  Y    0.056181   0.097500   0.111275  -0.001358   0.070479
   52  O  7  Z   -0.024117   0.088522   0.044118   0.180912   0.053139
   53  O  7  S    0.082215   0.002437   0.056253  -0.051085  -0.063181
   54  O  7  X    0.027392   0.004246   0.002898  -0.018125   0.023016
   55  O  7  Y    0.048434   0.089924   0.098756   0.000233   0.063095
   56  O  7  Z   -0.024382   0.079535   0.029575   0.167826   0.046510
   57  O  8  S   -0.015453  -0.009647   0.016343  -0.018330   0.031972
   58  O  8  S    0.016826   0.012587  -0.018067   0.016357  -0.029324
   59  O  8  X    0.191451  -0.013106  -0.170950   0.069998   0.133916
   60  O  8  Y   -0.040652   0.019866   0.042328   0.136472  -0.013416
   61  O  8  Z   -0.072146  -0.097246   0.047471  -0.000635   0.158511
   62  O  8  S    0.057751   0.024835  -0.057613   0.082806  -0.134222
   63  O  8  X    0.183691  -0.009154  -0.174454   0.069802   0.144310
   64  O  8  Y   -0.040822   0.020580   0.042274   0.131681  -0.016193
   65  O  8  Z   -0.068549  -0.098729   0.050656   0.002989   0.151648
   66  H  9  S   -0.027527  -0.127347   0.105977   0.014665  -0.061270
   67  H  9  S   -0.026533  -0.094497   0.082557   0.013254  -0.031010
   68  H 10  S   -0.116711   0.116377  -0.028459  -0.016327   0.037635
   69  H 10  S   -0.070213   0.087287  -0.010495  -0.006163   0.012815
   70  C 11  S    0.011144  -0.008690  -0.018635  -0.015868  -0.001918
   71  C 11  S   -0.011572   0.005207   0.014394   0.012861   0.002577
   72  C 11  X   -0.033613   0.002178  -0.045724  -0.112493   0.062092
   73  C 11  Y    0.077327  -0.049966  -0.011150  -0.222523   0.033186
   74  C 11  Z   -0.119920  -0.140041  -0.192032   0.036485  -0.093923
   75  C 11  S   -0.026656   0.044472   0.103705   0.059557   0.014284
   76  C 11  X   -0.029357  -0.002194   0.011744  -0.107303   0.070271
   77  C 11  Y    0.061220  -0.023566  -0.017536  -0.171488   0.028623
   78  C 11  Z   -0.099016  -0.093539  -0.159733   0.046432  -0.098159
   79  C 12  S   -0.015157   0.028279   0.049370   0.011063   0.002917
   80  C 12  S    0.015648  -0.035504  -0.064472  -0.019156  -0.010321
   81  C 12  X    0.117986  -0.015916   0.039927  -0.088520   0.002710
   82  C 12  Y   -0.071628   0.010899  -0.079639  -0.113039   0.048908
   83  C 12  Z   -0.070042  -0.032205  -0.121665   0.010378  -0.154520
   84  C 12  S    0.066188  -0.084248  -0.150589  -0.008681   0.013986
   85  C 12  X    0.069802   0.003096   0.083341  -0.044302   0.045050
   86  C 12  Y   -0.046287   0.016091  -0.054220  -0.068769   0.065938
   87  C 12  Z   -0.058493  -0.008532  -0.045539   0.041524  -0.080946
   88  P 13  S    0.003228  -0.003670   0.008784  -0.003066  -0.002206
   89  P 13  S   -0.016473   0.018666  -0.045630   0.016169   0.011823
   90  P 13  X    0.046320   0.066390  -0.079087  -0.006333  -0.002549
   91  P 13  Y   -0.060213  -0.018926   0.046646  -0.022708  -0.013995
   92  P 13  Z   -0.085175   0.094762  -0.006687  -0.024553  -0.004262
   93  P 13  S    0.030084  -0.034984   0.074839  -0.025355  -0.016937
   94  P 13  X   -0.087686  -0.127076   0.153754   0.014541   0.005440
[...]
    6             0.087362   0.437217   0.202403   0.022317   0.067865
    7             0.153058   0.208165   0.111603   0.138739   0.122750
    8             0.251254   0.217596   0.128338   0.200283   0.098660
    9             0.023617   0.017106   0.116723   0.032799   0.022990
   10             0.022570   0.168973   0.047170   0.003323   0.001878
   11             0.348448   0.187906   0.142622   0.406195   0.093328
   12             0.075343   0.042730   0.122180   0.156319   0.222561
   13             0.150442   0.220919   0.188157   0.084675   0.055396
   14             0.106106   0.000152   0.002022   0.099128   0.036040
   15             0.055464   0.019866   0.015452   0.066638   0.052962
   16             0.116142   0.039981   0.012477   0.063192   0.012600
   17             0.008780   0.002093   0.025827   0.000088   0.075225

                     31         32         33         34         35

                  2.000000   2.000000   2.000000   2.000000   2.000000

    1             0.499712   0.073010   0.063345   0.081969   0.135518
    2             0.034091   0.013589   0.018614   0.017320   0.021733
    3             0.025693   0.500337   0.025246   0.100850   0.150094
    4             0.188411   0.107696   0.689862   0.346938   0.012936
    5             0.064159   0.346119   0.051685   0.313832   0.330847
    6             0.035136   0.150112   0.141336   0.205176   0.226227
    7             0.204004   0.109499   0.182066   0.348372   0.486545
    8             0.376874   0.139329   0.072024   0.040229   0.207101
    9             0.016867   0.012153   0.000662   0.014974   0.020320
   10             0.014909   0.034253   0.007361   0.006836   0.010790
   11             0.096849   0.032482   0.131466   0.109077   0.038001
   12             0.122163   0.085521   0.367281   0.200698   0.032369
   13             0.027784   0.319051   0.081993   0.187449   0.185369
   14             0.024404   0.056940   0.025605   0.013109   0.071364
   15             0.216010   0.003946   0.026416   0.000316   0.054154
   16             0.046655   0.015961   0.114962   0.009720   0.000579
   17             0.006277   0.000002   0.000076   0.003136   0.016055

                     36         37         38         39         40

                  2.000000   2.000000   2.000000   2.000000   2.000000

    1             0.033527   0.080446   0.048014   0.043075   0.010825
    2             0.002320   0.012778   0.001125   0.001005   0.028494
    3             0.259644   0.112733   0.218603   0.036870   0.006001
    4             0.093238   0.013845   0.048479   0.056062   1.034069
    5             0.410217   0.304718   0.315012   1.072624   0.003743
    6             0.469749   0.497453   0.354663   0.094860   0.060208
    7             0.107312   0.207185   0.589047   0.292294   0.324431
    8             0.394640   0.474390   0.250185   0.279227   0.034773
    9             0.020779  -0.000239   0.002191   0.000395   0.000003
   10             0.000246   0.032333   0.002654   0.001171   0.000275
   11             0.032846   0.044400   0.018290   0.016798   0.206476
   12             0.005617   0.015553   0.003283   0.002639   0.030553
   13             0.124502   0.110790   0.092462   0.034583   0.006480
   14             0.007478   0.078888   0.004158   0.022026   0.014706
   15             0.011193   0.002063   0.003171   0.032254   0.008510
   16             0.008154   0.010500   0.042806   0.006128   0.064819
   17             0.018539   0.002163   0.005856   0.007988   0.165634

                     41         42         43         44

                  2.000000   2.000000   2.000000   2.000000

    1             0.024725   0.068409   0.016418   0.001509
    2             0.000137   0.007482   0.000104   0.000286
    3             0.374687   0.059003   1.503179   1.404531
    4             0.012830   0.151796   0.001075   0.005265
    5             0.043470   0.154580   0.196639   0.080686
    6             1.026357   0.271207   0.019949   0.272109
    7             0.080438   0.243715   0.021061   0.005252
    8             0.270483   0.750698   0.113958   0.150970
    9             0.001534  -0.000614   0.000672   0.000378
   10             0.000010   0.002928   0.000969  -0.001327
   11             0.004644   0.134072   0.004885   0.007478
   12             0.000868   0.027627   0.000202   0.002202
   13             0.110536   0.041231   0.099323   0.062788
   14             0.026263   0.010868   0.018017   0.005974
   15             0.009979   0.042787   0.000551   0.001128
   16             0.010470   0.009740   0.002985   0.000168
   17             0.002570   0.024471   0.000012   0.000601

               ----- POPULATIONS IN EACH AO -----
                             MULLIKEN      LOWDIN
              1  C  1  S      1.98692     1.97376
              2  C  1  S      0.37509     0.43755
              3  C  1  X      0.46459     0.44898
              4  C  1  Y      0.54788     0.51579
              5  C  1  Z      0.60756     0.56525
              6  C  1  S      1.02579     0.57680
              7  C  1  X      0.26527     0.43239
              8  C  1  Y      0.36693     0.50928
              9  C  1  Z      0.51904     0.56391
             10  H  2  S      0.39716     0.40832
             11  H  2  S      0.22453     0.34189
             12  O  3  S      1.98538     1.98145
             13  O  3  S      0.43334     0.61510
             14  O  3  X      0.73324     0.72911
             15  O  3  Y      0.64878     0.63987
             16  O  3  Z      0.67682     0.66987
             17  O  3  S      1.55953     1.18106
             18  O  3  X      0.93851     0.97736
             19  O  3  Y      0.82308     0.88521
             20  O  3  Z      0.85640     0.91173
             21  O  4  S      1.98581     1.98060
             22  O  4  S      0.44151     0.59753
             23  O  4  X      0.74270     0.73438
             24  O  4  Y      0.68157     0.67040
             25  O  4  Z      0.67532     0.65700
             26  O  4  S      1.55261     1.05795
             27  O  4  X      0.82436     0.86175
             28  O  4  Y      0.78226     0.81093
             29  O  4  Z      0.71448     0.78106
             30  O  5  S      1.98445     1.97936
             31  O  5  S      0.42433     0.58703
             32  O  5  X      0.59906     0.58012
             33  O  5  Y      0.75592     0.74927
             34  O  5  Z      0.77153     0.77280
             35  O  5  S      1.49844     1.08802
             36  O  5  X      0.73676     0.78098
             37  O  5  Y      0.92915     0.94907
             38  O  5  Z      0.97126     0.98471
             39  O  6  S      1.98468     1.97945
             40  O  6  S      0.42251     0.58984
             41  O  6  X      0.66399     0.64722
             42  O  6  Y      0.65278     0.64813
             43  O  6  Z      0.80839     0.81026
             44  O  6  S      1.50766     1.08907
             45  O  6  X      0.81136     0.82781
             46  O  6  Y      0.84683     0.89338
             47  O  6  Z      1.00482     1.02287
             48  O  7  S      1.98452     1.97837
             49  O  7  S      0.41961     0.57122
             50  O  7  X      0.75431     0.74889
             51  O  7  Y      0.77858     0.77741
             52  O  7  Z      0.61344     0.58965
             53  O  7  S      1.48884     1.01966
             54  O  7  X      0.91410     0.91770
             55  O  7  Y      0.92970     0.95886
             56  O  7  Z      0.69828     0.75096
             57  O  8  S      1.98502     1.97976
             58  O  8  S      0.42367     0.59157
             59  O  8  X      0.62490     0.61318
             60  O  8  Y      0.77571     0.77206
             61  O  8  Z      0.70640     0.70519
             62  O  8  S      1.51247     1.07090
             63  O  8  X      0.76278     0.80996
             64  O  8  Y      0.92099     0.95386
             65  O  8  Z      0.89205     0.92663
             66  H  9  S      0.40922     0.41409
             67  H  9  S      0.19987     0.31004
             68  H 10  S      0.37257     0.37851
             69  H 10  S      0.22146     0.35941
             70  C 11  S      1.98831     1.97363
             71  C 11  S      0.36898     0.43903
             72  C 11  X      0.57309     0.54948
             73  C 11  Y      0.53790     0.51109
             74  C 11  Z      0.52586     0.49823
             75  C 11  S      1.02963     0.56318
             76  C 11  X      0.31903     0.50559
             77  C 11  Y      0.37885     0.50457
             78  C 11  Z      0.35641     0.47416
             79  C 12  S      1.98536     1.97505
             80  C 12  S      0.42879     0.45267
             81  C 12  X      0.53757     0.51031
             82  C 12  Y      0.47659     0.44883
             83  C 12  Z      0.58997     0.56071
             84  C 12  S      0.78264     0.57188
             85  C 12  X      0.33946     0.46900
             86  C 12  Y      0.43415     0.48430
             87  C 12  Z      0.18142     0.41726
             88  P 13  S      1.99821     1.99790
             89  P 13  S      1.95659     1.93482
             90  P 13  X      1.94949     1.92457
             91  P 13  Y      1.95104     1.92673
             92  P 13  Z      1.95068     1.92507
             93  P 13  S      0.92592     0.73041
             94  P 13  X      0.57951     0.55786
             95  P 13  Y      0.61425     0.57369
             96  P 13  Z      0.58460     0.55127
             97  P 13  S      0.20515     0.44650
             98  P 13  X      0.28888     0.39647
             99  P 13  Y      0.21528     0.40102
            100  P 13  Z      0.26828     0.42485
            101  H 14  S      0.46851     0.47281
            102  H 14  S      0.29304     0.42359
            103  H 15  S      0.47874     0.47849
            104  H 15  S      0.30276     0.42474
            105  H 16  S      0.46941     0.47446
            106  H 16  S      0.27544     0.41133
            107  H 17  S      0.47747     0.47314
            108  H 17  S      0.31389     0.44772

          ----- MULLIKEN ATOMIC OVERLAP POPULATIONS -----
          (OFF-DIAGONAL ELEMENTS NEED TO BE MULTIPLIED BY 2)

             1           2           3           4           5

    1    5.3621488
    2    0.0049281   0.4129290
    3   -0.0091533   0.0000087   8.3476145
    4   -0.0000832   0.0524082  -0.0000000   8.0085022
    5    0.0001678   0.0000000  -0.0163874  -0.0000000   8.2987297
    6   -0.0006159   0.0005464  -0.0142204  -0.0000000  -0.0186787
    7   -0.0447661   0.2315865  -0.0001256  -0.0107885  -0.0000002
    8    0.2490987  -0.0000716  -0.0166205  -0.0000006  -0.0147751
    9   -0.0000482  -0.0000000   0.0000851  -0.0000000   0.2496618
   10    0.0004682  -0.0026657  -0.0012209   0.0000050   0.0002285
   11    0.1188616  -0.0797062  -0.0001635  -0.0753957  -0.0000136
   12   -0.0471919  -0.0054416  -0.0000032   0.4753749   0.0000000
   13   -0.0571316   0.0000068   0.3407236  -0.0000125   0.1719507
   14    0.2977489   0.0005465   0.0244836   0.0004168   0.0000386
   15    0.3376759  -0.0000833   0.0000668  -0.0000081  -0.0000084
   16   -0.0569971   0.0042189  -0.0000016   0.0009001  -0.0000001
   17    0.0039670   0.0024813  -0.0000000  -0.0507068  -0.0000000

             6           7           8           9          10

    6    8.3652307
    7   -0.0172291   8.1539632
    8   -0.0191052  -0.0009358   8.3793071
    9    0.0004217   0.0000003   0.0000489   0.3817371
   10    0.2232602   0.0737777   0.0016632  -0.0000046   0.3432035
   11    0.0013963   0.2402070  -0.0380156   0.0000002  -0.0039111
   12   -0.0000149  -0.0305536   0.0015449   0.0000000   0.0005767
   13    0.1821618   0.0161128   0.1227434  -0.0228100  -0.0404529
   14   -0.0001342   0.0004263  -0.0329170  -0.0000020  -0.0003598
   15   -0.0000306   0.0016415  -0.0285383   0.0000030  -0.0000226
   16    0.0000242  -0.0332719   0.0005858   0.0000001  -0.0005153
   17    0.0000001   0.0013413  -0.0000233  -0.0000000  -0.0000080

            11          12          13          14          15

   11    5.7424765
   12    0.0432618   5.0329536
   13   -0.0075010   0.0000341  12.7811038
   14   -0.0469438   0.0025091  -0.0027556   0.5396454
   15   -0.0503747   0.0027578   0.0029153  -0.0251267   0.5381901
   16    0.3362157  -0.0339400   0.0007919   0.0038401   0.0002452
   17   -0.1023380   0.3140698  -0.0000066   0.0001260   0.0021912

            16          17

   16    0.5205526
   17    0.0022032   0.6180648

          TOTAL MULLIKEN AND LOWDIN ATOMIC POPULATIONS
       ATOM         MULL.POP.    CHARGE          LOW.POP.     CHARGE
    1 C             6.159077   -0.159077         6.023727   -0.023727
    2 H             0.621692    0.378308         0.750203    0.249797
    3 O             8.655086   -0.655086         8.590763   -0.590763
    4 O             8.400612   -0.400612         8.151608   -0.151608
    5 O             8.670914   -0.670914         8.471361   -0.471361
    6 O             8.703012   -0.703012         8.508036   -0.508036
    7 O             8.581386   -0.581386         8.312716   -0.312716
    8 O             8.603989   -0.603989         8.423103   -0.423103
    9 H             0.609093    0.390907         0.724130    0.275870
   10 H             0.594022    0.405978         0.737919    0.262081
   11 C             6.078056   -0.078056         6.018970   -0.018970
   12 C             5.755938    0.244062         5.890017    0.109983
   13 P            13.487874    1.512126        13.791165    1.208835
   14 H             0.761542    0.238458         0.896402    0.103598
   15 H             0.781494    0.218506         0.903232    0.096768
   16 H             0.744852    0.255148         0.885788    0.114212
   17 H             0.791362    0.208638         0.920859    0.079141

          -------------------------------
          BOND ORDER AND VALENCE ANALYSIS     BOND ORDER THRESHOLD=0.050
          -------------------------------

                   BOND                       BOND                       BOND
  ATOM PAIR DIST  ORDER      ATOM PAIR DIST  ORDER      ATOM PAIR DIST  ORDER
    1   8  1.465  0.914        1  11  1.544  0.839        1  14  1.096  0.850
    1  15  1.092  0.882        2   4  1.926  0.111        2   7  1.006  0.720
    3   5  2.728  0.106        3   6  2.770  0.095        3   8  2.697  0.089
    3  13  1.555  1.565        3  14  2.405  0.051        4  12  1.236  1.852
    5   9  0.994  0.797        5  13  1.662  0.860        6   8  2.633  0.055
    6  10  1.025  0.661        6  13  1.644  0.951        7  10  1.644  0.161
    7  11  1.456  0.879        8  13  1.702  0.726       11  12  1.517  0.840
   11  16  1.096  0.847       12  17  1.098  0.828

                       TOTAL       BONDED        FREE
      ATOM            VALENCE     VALENCE     VALENCE
    1 C                 3.527       3.527      -0.000
    2 H                 0.857       0.857      -0.000
    3 O                 1.911       1.911       0.000
    4 O                 2.108       2.108       0.000
    5 O                 1.843       1.843      -0.000
    6 O                 1.846       1.846       0.000
    7 O                 1.938       1.938      -0.000
    8 O                 1.895       1.895      -0.000
    9 H                 0.826       0.826       0.000
   10 H                 0.846       0.846       0.000
   11 C                 3.467       3.467      -0.000
   12 C                 3.559       3.559      -0.000
   13 P                 4.184       4.184       0.000
   14 H                 0.920       0.920      -0.000
   15 H                 0.907       0.907       0.000
   16 H                 0.886       0.886      -0.000
   17 H                 0.897       0.897      -0.000

          ---------------------
          ELECTROSTATIC MOMENTS
          ---------------------

 POINT   1           X           Y           Z (BOHR)    CHARGE
                -0.144120    0.184310    0.373661       -0.00 (A.U.)
         DX          DY          DZ         /D/  (DEBYE)
     3.661971   -1.761327   -2.112550    4.579866
 ...... END OF PROPERTY EVALUATION ......
 CPU     0: STEP CPU TIME=     0.06 TOTAL CPU TIME=       1518.2 (     25.3 MIN)
 TOTAL WALL CLOCK TIME=       1527.6 SECONDS, CPU UTILIZATION IS    99.38%
  $VIB   
          IVIB=   0 IATOM=   0 ICOORD=   0 E=     -906.0157986145
 -2.594795592E-05 2.841233059E-05-1.389942555E-06-6.813689650E-06-2.159111463E-05
 -2.421676716E-05 5.180622690E-06-2.563014334E-05 1.195568898E-05 3.399068742E-05
  7.031434582E-06 3.853463473E-05 1.351292576E-05 9.337221361E-06-8.825979929E-06
 -1.548174724E-05-9.478439987E-06 2.784589576E-06 9.764277830E-06-2.196553492E-05
 -1.349533141E-05 9.410296942E-05-2.481279781E-05-1.885968281E-05-3.054194006E-06
 -9.878597884E-06 1.567204137E-05 1.482320945E-06 3.148458519E-06-2.511496942E-06
  4.144807162E-06 3.341882540E-05 1.055097856E-05-2.625949142E-05-7.862052094E-06
 -4.155490345E-05-7.438825019E-05 6.126913769E-05 2.194925354E-05-8.267321621E-06
  5.981131561E-07 5.956055055E-06-3.751041739E-07-2.838092427E-05-1.659151793E-05
 -4.813594609E-06-3.213103890E-06 5.455919017E-06 3.222737588E-06 9.597187534E-06
  1.458646137E-05
  3.661971326E+00-1.761327192E+00-2.112549869E+00
 ......END OF GEOMETRY SEARCH......
 CPU     0: STEP CPU TIME=     0.00 TOTAL CPU TIME=       1518.2 (     25.3 MIN)
 TOTAL WALL CLOCK TIME=       1527.6 SECONDS, CPU UTILIZATION IS    99.38%
               697485  WORDS OF DYNAMIC MEMORY USED
 EXECUTION OF GAMESS TERMINATED NORMALLY Fri May 22 17:17:28 2020
 DDI: 263640 bytes (0.3 MB / 0 MWords) used by master data server.
Note: The following floating-point exceptions are signalling:Note: The following floating-point exceptions are signalling: IEEE_UNDERFLOW_FLAG IEEE_UNDERFLOW_FLAG IEEE_DENORMALNote: The following floating-point exceptions are signalling: IEEE_UNDERFLOW_FLAGNote: The following floating-point exceptions are signalling: IEEE_UNDERFLOW_FLAGNote: The following floating-point exceptions are signalling: IEEE_UNDERFLOW_FLAG IEEE_DENORMAL

 ----------------------------------------
 CPU timing information for all processes
 ========================================
 0: 1502.926 + 15.247 = 1518.173
 1: 1504.727 + 4.525 = 1509.253
 2: 1505.234 + 5.674 = 1510.908
 3: 1503.639 + 4.268 = 1507.907
 4: 1504.654 + 5.444 = 1510.99
 5: 1502.475 + 3.836 = 1506.312
 6: 1503.551 + 4.827 = 1508.378
 7: 1501.277 + 3.716 = 1504.993
 ----------------------------------------

Note: The following floating-point exceptions are signalling: IEEE_DENORMAL
 IEEE_DENORMAL IEEE_DENORMAL
Note: The following floating-point exceptions are signalling: IEEE_UNDERFLOW_FLAGNote: The following floating-point exceptions are signalling: IEEE_UNDERFLOW_FLAG IEEE_UNDERFLOW_FLAG IEEE_DENORMAL
 IEEE_DENORMAL
 IEEE_DENORMAL

 ddikick.x: exited gracefully.
unset echo
----- accounting info -----
Files used on the master node pietdev were:
-rwxr-xr-x 1 piet piet     1006 mei 22 16:52 /home/piet/scr/GAP_geoopt.F05*
-rw-r--r-- 1 piet piet 57344000 mei 22 17:17 /home/piet/scr/GAP_geoopt.F10
-rw-r--r-- 1 piet piet  4475168 mei 22 17:17 /home/piet/scr/GAP_geoopt.F22
-rw-r--r-- 1 piet piet  4475168 mei 22 17:17 /home/piet/scr/GAP_geoopt.F22.001
-rw-r--r-- 1 piet piet  4475168 mei 22 17:17 /home/piet/scr/GAP_geoopt.F22.002
-rw-r--r-- 1 piet piet  4475168 mei 22 17:17 /home/piet/scr/GAP_geoopt.F22.003
-rw-r--r-- 1 piet piet  4475168 mei 22 17:17 /home/piet/scr/GAP_geoopt.F22.004
-rw-r--r-- 1 piet piet  4475168 mei 22 17:17 /home/piet/scr/GAP_geoopt.F22.005
-rw-r--r-- 1 piet piet  4475168 mei 22 17:17 /home/piet/scr/GAP_geoopt.F22.006
-rw-r--r-- 1 piet piet  4475168 mei 22 17:17 /home/piet/scr/GAP_geoopt.F22.007
ls: No match.
ls: No match.
ls: No match.
vr 22 mei 2020 17:17:32 CEST
0.099u 0.029s 25:30.80 0.0%	0+0k 8+8io 0pf+0w
