----- GAMESS execution script 'rungms' -----
This job is running on host pietdev
under operating system Linux at vr 22 mei 2020 17:18:44 CEST
Available scratch disk space (Kbyte units) at beginning of the job is
Filesystem     1K-blocks     Used Available Use% Mounted on
/dev/sda2      244568380 31373056 200702268  14% /
GAMESS temporary binary files will be written to /home/piet/scr
GAMESS supplementary output files will be written to /home/piet/gamess/scr
Copying input file GAP_fukui_neu.inp to your run's scratch directory...
cp GAP_fukui_neu.inp /home/piet/scr/GAP_fukui_neu.F05
unset echo
 
Assuming a single but multicore node.
 
/home/piet/gamess/ddikick.x /home/piet/gamess/gamess.03.x GAP_fukui_neu -ddi 1 8 pietdev:cpus=8 -scr /home/piet/scr

 Distributed Data Interface kickoff program.
 Initiating 8 compute processes on 1 nodes to run the following command:
 /home/piet/gamess/gamess.03.x GAP_fukui_neu 

          ******************************************************
          *         GAMESS VERSION = 30 SEP 2019 (R2)          *
          *             FROM IOWA STATE UNIVERSITY             *
          * M.W.SCHMIDT, K.K.BALDRIDGE, J.A.BOATZ, S.T.ELBERT, *
          *   M.S.GORDON, J.H.JENSEN, S.KOSEKI, N.MATSUNAGA,   *
          *          K.A.NGUYEN, S.J.SU, T.L.WINDUS,           *
          *       TOGETHER WITH M.DUPUIS, J.A.MONTGOMERY       *
          *         J.COMPUT.CHEM.  14, 1347-1363(1993)        *
          **************** 64 BIT LINUX VERSION ****************

  SINCE 1993, STUDENTS AND POSTDOCS WORKING AT IOWA STATE UNIVERSITY
  AND ALSO IN THEIR VARIOUS JOBS AFTER LEAVING ISU HAVE MADE IMPORTANT
  CONTRIBUTIONS TO THE CODE:
     IVANA ADAMOVIC, CHRISTINE AIKENS, YURI ALEXEEV, POOJA ARORA,
     ANDREY ASADCHEV, ROB BELL, PRADIPTA BANDYOPADHYAY, JONATHAN BENTZ,
     COLLEEN BERTONI, BRETT BODE, KURT BRORSEN, CALEB CARLIN, GALINA CHABAN,
     WEI CHEN, CHEOL HO CHOI, PAUL DAY, ALBERT DEFUSCO, NUWAN DESILVA,
     TIM DUDLEY, DMITRI FEDOROV, ALEX FINDLATER, GRAHAM FLETCHER, 
     MARK FREITAG, KURT GLAESEMANN, EMILIE B GUIDEZ, ANASTASIA GUNINA, 
     DAN KEMP, SAROM SOK LEANG, GRANT MERRILL,
     NORIYUKI MINEZAWA, JONATHAN MULLIN,
     TAKESHI NAGATA, SEAN NEDD, HEATHER NETZLOFF, BOSILJKA NJEGIC, RYAN OLSON,
     MIKE PAK, BUU PHAM, DAVID POOLE,
     SPENCER PRUITT, LUKE ROSKOP, TOSAPORN SATTASATHUCHANA,
     JIM SHOEMAKER, LYUDMILA SLIPCHENKO,
     TONY SMITH, JIE SONG, TETSUYA TAKETSUGU, SIMON WEBB,
     JORGE LUIS GALVEZ VALLEJO, PENG XU, SOOHAENG YOO,
     FEDERICO ZAHARIEV

  ADDITIONAL CODE HAS BEEN PROVIDED BY COLLABORATORS IN OTHER GROUPS:
     IOWA STATE UNIVERSITY:
          JOE IVANIC, AARON WEST, LAIMUTIS BYTAUTAS, KLAUS RUEDENBERG
     UNIVERSITY OF TOKYO: KIMIHIKO HIRAO, TAKAHITO NAKAJIMA,
          TAKAO TSUNEDA, MUNEAKI KAMIYA, SUSUMU YANAGISAWA,
          KIYOSHI YAGI, MAHITO CHIBA, SEIKEN TOKURA, NAOAKI KAWAKAMI
     UNIVERSITY OF AARHUS: FRANK JENSEN
     UNIVERSITY OF IOWA: VISVALDAS KAIRYS, HUI LI
     NATIONAL INST. OF STANDARDS AND TECHNOLOGY: WALT STEVENS, DAVID GARMER
     UNIVERSITY OF PISA: BENEDETTA MENNUCCI, JACOPO TOMASI
     UNIVERSITY OF MEMPHIS: HENRY KURTZ, PRAKASHAN KORAMBATH
     UNIVERSITY OF ALBERTA: TOBY ZENG, MARIUSZ KLOBUKOWSKI
     UNIVERSITY OF NEW ENGLAND: MARK SPACKMAN
     MIE UNIVERSITY: HIROAKI UMEDA
     NAT. INST. OF ADVANCED INDUSTRIAL SCIENCE AND TECHNOLOGY: KAZUO KITAURA
     MICHIGAN STATE UNIVERSITY:
          KAROL KOWALSKI, MARTA WLOCH, JEFFREY GOUR, JESSE LUTZ,
          WEI LI, JUN SHEN, J. EMILIANO DEUSTUA, PIOTR PIECUCH
     UNIVERSITY OF MINNESOTA:
          ANDREW SAND, PRACHI SHARMA, YINAN SHU
     UNIVERSITY OF SILESIA: MONIKA MUSIAL, STANISLAW KUCHARSKI
     FACULTES UNIVERSITAIRES NOTRE-DAME DE LA PAIX:
          OLIVIER QUINET, BENOIT CHAMPAGNE
     UNIVERSITY OF CALIFORNIA - SANTA BARBARA: BERNARD KIRTMAN
     INSTITUTE FOR MOLECULAR SCIENCE:
          KAZUYA ISHIMURA, MICHIO KATOUDA, AND SHIGERU NAGASE
     UNIVERSITY OF NOTRE DAME: ANNA POMOGAEVA, DAN CHIPMAN
     KYUSHU UNIVERSITY:
          HARUYUKI NAKANO,
          FENG LONG GU, JACEK KORCHOWIEC, MARCIN MAKOWSKI, AND YURIKO AOKI,
          HIROTOSHI MORI AND EISAKU MIYOSHI
     PENNSYLVANIA STATE UNIVERSITY:
          TZVETELIN IORDANOV, CHET SWALINA, JONATHAN SKONE,
          SHARON HAMMES-SCHIFFER
     WASEDA UNIVERSITY:
          MASATO KOBAYASHI, TOMOKO AKAMA, TSUGUKI TOUMA,
          TAKESHI YOSHIKAWA, YASUHIRO IKABATA, JUNJI SEINO,
          YUYA NAKAJIMA, HIROMI NAKAI
     NANJING UNIVERSITY: SHUHUA LI
     UNIVERSITY OF NEBRASKA:
          PEIFENG SU, DEJUN SI, NANDUN THELLAMUREGE, YALI WANG, HUI LI
     UNIVERSITY OF ZURICH: ROBERTO PEVERATI, KIM BALDRIDGE
     N. COPERNICUS UNIVERSITY AND JACKSON STATE UNIVERSITY:
          MARIA BARYSZ
     UNIVERSITY OF COPENHAGEN: Jimmy Kromann, CASPER STEINMANN
     TOKYO INSTITUTE OF TECHNOLOGY: HIROYA NAKATA
     NAGOYA UNIVERSITY: YOSHIO NISHIMOTO, STEPHAN IRLE
     MOSCOW STATE UNIVERSITY: VLADIMIR MIRONOV
     A.N.NESMEYANOV INSTITUTE OF ORGANOELEMENT COMPOUNDS OF RUSSIAN ACADEMY OF SCIENCES:
          IGOR S. GERASIMOV
     JOHANNES KEPLER UNIVERSITY LINZ:
          CHRISTIAN FRIEDL


 PARALLEL VERSION RUNNING ON        8 PROCESSORS IN        1 NODES.

 EXECUTION OF GAMESS BEGUN Fri May 22 17:18:44 2020

            ECHO OF THE FIRST FEW INPUT CARDS -
 INPUT CARD> $BASIS GBASIS=N21 NGAUSS=3 $END                                                
 INPUT CARD> $CONTRL SCFTYP=RHF MAXIT=60 MULT=1 ICHARG=0 $END                               
 INPUT CARD> $SYSTEM MEMDDI=1000 MWORDS=30 $END                                             
 INPUT CARD> $SCF DIRSCF=.TRUE. $END                                                        
 INPUT CARD> $DATA                                                                          
 INPUT CARD>                                                                                
 INPUT CARD>C1                                                                              
 INPUT CARD>C 6.0000000 0.6102413541 -0.8877648425 -0.6524681532                            
 INPUT CARD>H 1.0000000 1.9127980110 0.7996201210 1.5268488244                              
 INPUT CARD>O 8.0000000 -1.6958326254 -0.9533968023 1.2782296858                            
 INPUT CARD>O 8.0000000 3.4115466098 -0.3820166725 1.2668025997                             
 INPUT CARD>O 8.0000000 -3.0690250304 0.4810259059 -0.5920173835                            
 INPUT CARD>O 8.0000000 -1.2101425729 1.7105488961 0.6971525770                             
 INPUT CARD>O 8.0000000 1.2864864861 1.0044765488 0.7660763589                              
 INPUT CARD>O 8.0000000 -0.5957751672 -0.1583691844 -1.0525508738                           
 INPUT CARD>H 1.0000000 -3.7942645129 -0.1403979031 -0.3147732699                           
 INPUT CARD>H 1.0000000 -0.1902768495 1.7262023119 0.7939258260                             
 INPUT CARD>C 6.0000000 1.7117693448 0.1445099613 -0.3289670532                             
 INPUT CARD>C 6.0000000 2.9778155780 -0.5588320513 0.1230522540                             
 INPUT CARD>P 15.0000000 -1.6542889618 0.1970092905 0.2326425210                            
 INPUT CARD>H 1.0000000 0.3985443348 -1.5017104589 0.2303246898                             
 INPUT CARD>H 1.0000000 0.9093196074 -1.5121857079 -1.4969781407                            
 INPUT CARD>H 1.0000000 1.9037897784 0.7441951507 -1.2264409746                             
 INPUT CARD>H 1.0000000 3.4551946157 -1.2313145632 -0.6024596877                            
 INPUT CARD> $END                                                                           
   30000000 WORDS OF MEMORY AVAILABLE

     BASIS OPTIONS
     -------------
     GBASIS=N21          IGAUSS=       3      POLAR=NONE    
     NDFUNC=       0     NFFUNC=       0     DIFFSP=       F
     NPFUNC=       0      DIFFS=       F     BASNAM=        


     RUN TITLE
     ---------
                                                                                 

 THE POINT GROUP OF THE MOLECULE IS C1      
 THE ORDER OF THE PRINCIPAL AXIS IS     0

 ATOM      ATOMIC                      COORDINATES (BOHR)
           CHARGE         X                   Y                   Z
 C           6.0     1.1531889456       -1.6776322939       -1.2329860253
 H           1.0     3.6146641106        1.5110629230        2.8853259028
 O           8.0    -3.2046589830       -1.8016587139        2.4155038555
 O           8.0     6.4468882869       -0.7219068338        2.3939097940
 O           8.0    -5.7996163569        0.9090071551       -1.1187506348
 O           8.0    -2.2868378689        3.2324687022        1.3174273422
 O           8.0     2.4311069456        1.8981854383        1.4476744040
 O           8.0    -1.1258518163       -0.2992743634       -1.9890327396
 H           1.0    -7.1701202543       -0.2653135661       -0.5948352284
 H           1.0    -0.3595711074        3.2620493689        1.5003022657
 C           6.0     3.2347750159        0.2730842294       -0.6216575895
 C           6.0     5.6272554844       -1.0560394501        0.2325350422
 P          15.0    -3.1261528423        0.3722935761        0.4396306178
 H           1.0     0.7531395867       -2.8378212802        0.4352505519
 H           1.0     1.7183648932       -2.8576166305       -2.8288784955
 H           1.0     3.5976410194        1.4063249162       -2.3176373821
 H           1.0     6.5293710579       -2.3268471291       -1.1384837284

          INTERNUCLEAR DISTANCES (ANGS.)
          ------------------------------

                1 C          2 H          3 O          4 O          5 O     

   1 C       0.0000000    3.0484987    3.0083017    3.4331753    3.9260977  
   2 H       3.0484987    0.0000000    4.0195889    1.9261716 *  5.4230671  
   3 O       3.0083017    4.0195889    0.0000000    5.1392537    2.7278288 *
   4 O       3.4331753    1.9261716 *  5.1392537    0.0000000    6.7969010  
   5 O       3.9260977    5.4230671    2.7278288 *  6.7969010    0.0000000  
   6 O       3.4476815    3.3572228    2.7695039 *  5.1052270    2.5747097 *
   7 O       2.4597060 *  1.0064825 *  3.6041360    2.5863045 *  4.5922652  
   8 O       1.4651144 *  3.7234374    2.6971714 *  4.6355201    2.5957431 *
   9 H       4.4802084    6.0700715    2.7571801 *  7.3812923    0.9944869 *
  10 H       3.0928481    2.4121887 *  3.1115109    4.2001586    3.4290660  
  11 C       1.5438938 *  1.9782908 *  3.9243129    2.3901786 *  4.7998368  
  12 C       2.5129736 *  2.2249269 *  4.8304352    1.2359414 *  6.1771280  
  13 P       2.6623774 *  3.8421634    1.5551246 *  5.2026386    1.6619890 *
  14 H       1.0959325 *  3.0446776    2.4052375 *  3.3773042    4.0781770  
  15 H       1.0920377 *  3.9363618    3.8471862    3.8957549    4.5408229  
  16 H       2.1600939 *  2.7538623 *  4.7023904    3.1237713    5.0200238  
  17 H       2.8660576 *  3.3222940    5.4906568    2.0536196 *  6.7451954  

                6 O          7 O          8 O          9 H         10 H     

   1 C       3.4476815    2.4597060 *  1.4651144 *  4.4802084    3.0928481  
   2 H       3.3572228    1.0064825 *  3.7234374    6.0700715    2.4121887 *
   3 O       2.7695039 *  3.6041360    2.6971714 *  2.7571801 *  3.1115109  
   4 O       5.1052270    2.5863045 *  4.6355201    7.3812923    4.2001586  
   5 O       2.5747097 *  4.5922652    2.5957431 *  0.9944869 *  3.4290660  
   6 O       0.0000000    2.5954663 *  2.6328244 *  3.3358184    1.0245663 *
   7 O       2.5954663 *  0.0000000    2.8640049 *  5.3191169    1.6439263 *
   8 O       2.6328244 *  2.8640049 *  0.0000000    3.2825254    2.6693660 *
   9 H       3.3358184    5.3191169    3.2825254    0.0000000    4.2073908  
  10 H       1.0245663 *  1.6439263 *  2.6693660 *  4.2073908    0.0000000  
  11 C       3.4702981    1.4558599 *  2.4372261 *  5.5134184    2.7166926 *
  12 C       4.7977781    2.3912356 *  3.7832478    6.7991063    3.9633651  
  13 P       1.6443350 *  3.0959191    1.7024886 *  2.2345029 *  2.1901602 *
  14 H       3.6227630    2.7122766 *  2.1068951 *  4.4418408    3.3292308  
  15 H       4.4376061    3.4054749    2.0725938 *  5.0401502    4.1163710  
  16 H       3.7855814    2.1021263 *  2.6632095 *  5.8379333    3.0710479  
  17 H       5.6664737    3.4021975    4.2147539    7.3367241    4.8975770  

               11 C         12 C         13 P         14 H         15 H     

   1 C       1.5438938 *  2.5129736 *  2.6623774 *  1.0959325 *  1.0920377 *
   2 H       1.9782908 *  2.2249269 *  3.8421634    3.0446776    3.9363618  
   3 O       3.9243129    4.8304352    1.5551246 *  2.4052375 *  3.8471862  
   4 O       2.3901786 *  1.2359414 *  5.2026386    3.3773042    3.8957549  
   5 O       4.7998368    6.1771280    1.6619890 *  4.0781770    4.5408229  
   6 O       3.4702981    4.7977781    1.6443350 *  3.6227630    4.4376061  
   7 O       1.4558599 *  2.3912356 *  3.0959191    2.7122766 *  3.4054749  
   8 O       2.4372261 *  3.7832478    1.7024886 *  2.1068951 *  2.0725938 *
   9 H       5.5134184    6.7991063    2.2345029 *  4.4418408    5.0401502  
  10 H       2.7166926 *  3.9633651    2.1901602 *  3.3292308    4.1163710  
  11 C       0.0000000    1.5171963 *  3.4129914    2.1788549 *  2.1800954 *
  12 C       1.5171963 *  0.0000000    4.6946457    2.7483026 *  2.7950058 *
  13 P       3.4129914    4.6946457    0.0000000    2.6645410 *  3.5334154  
  14 H       2.1788549 *  2.7483026 *  2.6645410 *  0.0000000    1.8012707 *
  15 H       2.1800954 *  2.7950058 *  3.5334154    1.8012707 *  0.0000000  
  16 H       1.0963365 *  2.1616066 *  3.8843611    3.0711597    2.4806080 *
  17 H       2.2376825 *  1.0984039 *  5.3706915    3.1795840    2.7130299 *

               16 H         17 H     

   1 C       2.1600939 *  2.8660576 *
   2 H       2.7538623 *  3.3222940  
   3 O       4.7023904    5.4906568  
   4 O       3.1237713    2.0536196 *
   5 O       5.0200238    6.7451954  
   6 O       3.7855814    5.6664737  
   7 O       2.1021263 *  3.4021975  
   8 O       2.6632095 *  4.2147539  
   9 H       5.8379333    7.3367241  
  10 H       3.0710479    4.8975770  
  11 C       1.0963365 *  2.2376825 *
  12 C       2.1616066 *  1.0984039 *
  13 P       3.8843611    5.3706915  
  14 H       3.0711597    3.1795840  
  15 H       2.4806080 *  2.7130299 *
  16 H       0.0000000    2.5882133 *
  17 H       2.5882133 *  0.0000000  

  * ... LESS THAN  3.000


     ATOMIC BASIS SET
     ----------------
 THE CONTRACTED PRIMITIVE FUNCTIONS HAVE BEEN UNNORMALIZED
 THE CONTRACTED BASIS FUNCTIONS ARE NOW NORMALIZED TO UNITY

  SHELL TYPE  PRIMITIVE        EXPONENT          CONTRACTION COEFFICIENT(S)

 C         

      1   S       1           172.2560000    0.061766907377
      1   S       2            25.9109000    0.358794042852
      1   S       3             5.5333500    0.700713083689

      2   L       4             3.6649800   -0.395895162119    0.236459946619
      2   L       5             0.7705450    1.215834355681    0.860618805716

      3   L       6             0.1958570    1.000000000000    1.000000000000

 H         

      4   S       7             5.4471780    0.156284978695
      4   S       8             0.8245472    0.904690876670

      5   S       9             0.1831916    1.000000000000

 O         

      6   S      10           322.0370000    0.059239393389
      6   S      11            48.4308000    0.351499960776
      6   S      12            10.4206000    0.707657921031

      7   L      13             7.4029400   -0.404453583190    0.244586106967
      7   L      14             1.5762000    1.221561761397    0.853955373466

      8   L      15             0.3736840    1.000000000000    1.000000000000

 O         

      9   S      16           322.0370000    0.059239393389
      9   S      17            48.4308000    0.351499960776
      9   S      18            10.4206000    0.707657921031

     10   L      19             7.4029400   -0.404453583190    0.244586106967
     10   L      20             1.5762000    1.221561761397    0.853955373466

     11   L      21             0.3736840    1.000000000000    1.000000000000

 O         

     12   S      22           322.0370000    0.059239393389
     12   S      23            48.4308000    0.351499960776
     12   S      24            10.4206000    0.707657921031

     13   L      25             7.4029400   -0.404453583190    0.244586106967
     13   L      26             1.5762000    1.221561761397    0.853955373466

     14   L      27             0.3736840    1.000000000000    1.000000000000

 O         

     15   S      28           322.0370000    0.059239393389
     15   S      29            48.4308000    0.351499960776
     15   S      30            10.4206000    0.707657921031

     16   L      31             7.4029400   -0.404453583190    0.244586106967
     16   L      32             1.5762000    1.221561761397    0.853955373466

     17   L      33             0.3736840    1.000000000000    1.000000000000

 O         

     18   S      34           322.0370000    0.059239393389
     18   S      35            48.4308000    0.351499960776
     18   S      36            10.4206000    0.707657921031

     19   L      37             7.4029400   -0.404453583190    0.244586106967
     19   L      38             1.5762000    1.221561761397    0.853955373466

     20   L      39             0.3736840    1.000000000000    1.000000000000

 O         

     21   S      40           322.0370000    0.059239393389
     21   S      41            48.4308000    0.351499960776
     21   S      42            10.4206000    0.707657921031

     22   L      43             7.4029400   -0.404453583190    0.244586106967
     22   L      44             1.5762000    1.221561761397    0.853955373466

     23   L      45             0.3736840    1.000000000000    1.000000000000

 H         

     24   S      46             5.4471780    0.156284978695
     24   S      47             0.8245472    0.904690876670

     25   S      48             0.1831916    1.000000000000

 H         

     26   S      49             5.4471780    0.156284978695
     26   S      50             0.8245472    0.904690876670

     27   S      51             0.1831916    1.000000000000

 C         

     28   S      52           172.2560000    0.061766907377
     28   S      53            25.9109000    0.358794042852
     28   S      54             5.5333500    0.700713083689

     29   L      55             3.6649800   -0.395895162119    0.236459946619
     29   L      56             0.7705450    1.215834355681    0.860618805716

     30   L      57             0.1958570    1.000000000000    1.000000000000

 C         

     31   S      58           172.2560000    0.061766907377
     31   S      59            25.9109000    0.358794042852
     31   S      60             5.5333500    0.700713083689

     32   L      61             3.6649800   -0.395895162119    0.236459946619
     32   L      62             0.7705450    1.215834355681    0.860618805716

     33   L      63             0.1958570    1.000000000000    1.000000000000

 P         

     34   S      64          1054.9000000    0.065540713549
     34   S      65           159.1950000    0.384036079392
     34   S      66            34.5304000    0.674541139449

     35   L      67            44.2866000   -0.102130053458    0.110851002536
     35   L      68            10.1019000    0.081592242708    0.456495010442
     35   L      69             2.7399700    0.969788507613    0.606936013883

     36   L      70             1.2186500   -0.371496021877    0.091582310217
     36   L      71             0.3955460    1.270993496131    0.934924104303

     37   L      72             0.1228110    1.000000000000    1.000000000000

 H         

     38   S      73             5.4471780    0.156284978695
     38   S      74             0.8245472    0.904690876670

     39   S      75             0.1831916    1.000000000000

 H         

     40   S      76             5.4471780    0.156284978695
     40   S      77             0.8245472    0.904690876670

     41   S      78             0.1831916    1.000000000000

 H         

     42   S      79             5.4471780    0.156284978695
     42   S      80             0.8245472    0.904690876670

     43   S      81             0.1831916    1.000000000000

 H         

     44   S      82             5.4471780    0.156284978695
     44   S      83             0.8245472    0.904690876670

     45   S      84             0.1831916    1.000000000000

 TOTAL NUMBER OF BASIS SET SHELLS             =   45
 NUMBER OF CARTESIAN GAUSSIAN BASIS FUNCTIONS =  108
 NUMBER OF ELECTRONS                          =   88
 CHARGE OF MOLECULE                           =    0
 SPIN MULTIPLICITY                            =    1
 NUMBER OF OCCUPIED ORBITALS (ALPHA)          =   44
 NUMBER OF OCCUPIED ORBITALS (BETA )          =   44
 TOTAL NUMBER OF ATOMS                        =   17
 THE NUCLEAR REPULSION ENERGY IS      701.1758179196

     $CONTRL OPTIONS
     ---------------
 SCFTYP=RHF          RUNTYP=ENERGY       EXETYP=RUN     
 MPLEVL=       0     CITYP =NONE         CCTYP =NONE         VBTYP =NONE    
 DFTTYP=NONE         TDDFT =NONE    
 MULT  =       1     ICHARG=       0     NZVAR =       0     COORD =UNIQUE  
 PP    =NONE         RELWFN=NONE         LOCAL =NONE         NUMGRD=       F
 ISPHER=      -1     NOSYM =       0     MAXIT =      60     UNITS =ANGS    
 PLTORB=       F     MOLPLT=       F     AIMPAC=       F     FRIEND=        
 NPRINT=       7     IREST =       0     GEOM  =INPUT   
 NORMF =       0     NORMP =       0     ITOL  =      20     ICUT  =       9
 INTTYP=BEST         GRDTYP=BEST         QMTTOL= 1.0E-06

     $SYSTEM OPTIONS
     ---------------
  REPLICATED MEMORY=    30000000 WORDS (ON EVERY NODE).
 DISTRIBUTED MEMDDI=        1000 MILLION WORDS IN AGGREGATE,
 MEMDDI DISTRIBUTED OVER   8 PROCESSORS IS   125000000 WORDS/PROCESSOR.
 TOTAL MEMORY REQUESTED ON EACH PROCESSOR=   155000000 WORDS.
 TIMLIM=      525600.00 MINUTES, OR     365.0 DAYS.
 PARALL= T  BALTYP=  DLB     KDIAG=    0  COREFL= F
 MXSEQ2=     300 MXSEQ3=     150  mem10=         0

          ----------------
          PROPERTIES INPUT
          ----------------

     MOMENTS            FIELD           POTENTIAL          DENSITY
 IEMOM =       1   IEFLD =       0   IEPOT =       0   IEDEN =       0
 WHERE =COMASS     WHERE =NUCLEI     WHERE =NUCLEI     WHERE =NUCLEI  
 OUTPUT=BOTH       OUTPUT=BOTH       OUTPUT=BOTH       OUTPUT=BOTH    
 IEMINT=       0   IEFINT=       0                     IEDINT=       0
                                                       MORB  =       0
          EXTRAPOLATION IN EFFECT
          SOSCF IN EFFECT
 ORBITAL PRINTING OPTION: NPREO=     1   108     2     1

     -------------------------------
     INTEGRAL TRANSFORMATION OPTIONS
     -------------------------------
     NWORD  =            0
     CUTOFF = 1.0E-09     MPTRAN =       0
     DIRTRF =       T     AOINTS =DUP     

          ----------------------
          INTEGRAL INPUT OPTIONS
          ----------------------
 NOPK  =       1 NORDER=       0 SCHWRZ=       T

     ------------------------------------------
     THE POINT GROUP IS C1 , NAXIS= 0, ORDER= 1
     ------------------------------------------

     DIMENSIONS OF THE SYMMETRY SUBSPACES ARE
 A   =  108

 ..... DONE SETTING UP THE RUN .....
 CPU     0: STEP CPU TIME=     0.03 TOTAL CPU TIME=          0.0 (      0.0 MIN)
 TOTAL WALL CLOCK TIME=          0.0 SECONDS, CPU UTILIZATION IS    75.00%

          ********************
          1 ELECTRON INTEGRALS
          ********************
 ...... END OF ONE-ELECTRON INTEGRALS ......
 CPU     0: STEP CPU TIME=     0.01 TOTAL CPU TIME=          0.0 (      0.0 MIN)
 TOTAL WALL CLOCK TIME=          0.1 SECONDS, CPU UTILIZATION IS    57.14%

          -------------
          GUESS OPTIONS
          -------------
          GUESS =HUCKEL            NORB  =       0          NORDER=       0
          MIX   =       F          PRTMO =       F          PUNMO =       F
          TOLZ  = 1.0E-08          TOLE  = 1.0E-05
          SYMDEN=       F          PURIFY=       F

 INITIAL GUESS ORBITALS GENERATED BY HUCKEL   ROUTINE.
 HUCKEL GUESS REQUIRES    112404 WORDS.

 SYMMETRIES FOR INITIAL GUESS ORBITALS FOLLOW.   BOTH SET(S).
    44 ORBITALS ARE OCCUPIED (   14 CORE ORBITALS).
    15=A       16=A       17=A       18=A       19=A       20=A       21=A   
    22=A       23=A       24=A       25=A       26=A       27=A       28=A   
    29=A       30=A       31=A       32=A       33=A       34=A       35=A   
    36=A       37=A       38=A       39=A       40=A       41=A       42=A   
    43=A       44=A       45=A       46=A       47=A       48=A       49=A   
    50=A       51=A       52=A       53=A       54=A   
 ...... END OF INITIAL ORBITAL SELECTION ......
 CPU     0: STEP CPU TIME=     0.03 TOTAL CPU TIME=          0.1 (      0.0 MIN)
 TOTAL WALL CLOCK TIME=          0.1 SECONDS, CPU UTILIZATION IS    63.64%

                    ----------------------
                    AO INTEGRAL TECHNOLOGY
                    ----------------------
     S,P,L SHELL ROTATED AXIS INTEGRALS, REPROGRAMMED BY
        KAZUYA ISHIMURA (IMS) AND JOSE SIERRA (SYNSTAR).
     S,P,D,L SHELL ROTATED AXIS INTEGRALS PROGRAMMED BY
        KAZUYA ISHIMURA (INSTITUTE FOR MOLECULAR SCIENCE).
     S,P,D,F,G SHELL TO TOTAL QUARTET ANGULAR MOMENTUM SUM 5,
        ERIC PROGRAM BY GRAHAM FLETCHER (ELORET AND NASA ADVANCED
        SUPERCOMPUTING DIVISION, AMES RESEARCH CENTER).
     S,P,D,F,G,L SHELL GENERAL RYS QUADRATURE PROGRAMMED BY
        MICHEL DUPUIS (PACIFIC NORTHWEST NATIONAL LABORATORY).

          --------------------
          2 ELECTRON INTEGRALS
          --------------------

 DIRECT SCF METHOD SKIPS INTEGRAL STORAGE ON DISK.
 DIRECT TRANSFORMATION SKIPS AO INTEGRAL STORAGE ON DISK.
  ...... END OF TWO-ELECTRON INTEGRALS .....
 CPU     0: STEP CPU TIME=     0.02 TOTAL CPU TIME=          0.1 (      0.0 MIN)
 TOTAL WALL CLOCK TIME=          0.1 SECONDS, CPU UTILIZATION IS    64.29%

          --------------------------
                 RHF SCF CALCULATION
          --------------------------

     NUCLEAR ENERGY =       701.1758179196
     MAXIT =   60     NPUNCH=    2
     EXTRAP=T  DAMP=F  SHIFT=F  RSTRCT=F  DIIS=F  DEM=F  SOSCF=T
     DENSITY MATRIX CONV=  2.00E-05
     SOSCF WILL OPTIMIZE    2816 ORBITAL ROTATIONS, SOGTOL=   0.250
     MEMORY REQUIRED FOR RHF ITERS=    140850 WORDS.

 DIRECT SCF CALCULATION, SCHWRZ=T   FDIFF=T,  DIRTHR=  0.00E+00 NITDIR=10
 SCHWARZ INEQUALITY OVERHEAD:      5386 INTEGRALS, T=        0.00

                                                                                   NONZERO     BLOCKS
 ITER EX DEM     TOTAL ENERGY        E CHANGE  DENSITY CHANGE     ORB. GRAD      INTEGRALS    SKIPPED
   1  0  0     -900.6794761321  -900.6794761321   0.828653190   0.000000000        9233529     277468
          ---------------START SECOND ORDER SCF---------------
   2  1  0     -902.4570769266    -1.7776007945   0.250559934   0.123341937        9228184     280629
   3  2  0     -902.5264288977    -0.0693519711   0.122179162   0.110010698        9187612     288899
   4  3  0     -902.7072550959    -0.1808261982   0.047377372   0.022210004        9110494     297488
   5  4  0     -902.7123780583    -0.0051229625   0.012822925   0.009815843        8983870     306873
   6  5  0     -902.7133340976    -0.0009560393   0.004822616   0.002513213        8717172     318825
   7  6  0     -902.7134449029    -0.0001108053   0.002306492   0.000745799        8409589     330684
   8  7  0     -902.7134660004    -0.0000210976   0.000484671   0.000211342        8188911     338915
   9  8  0     -902.7134678188    -0.0000018184   0.000178603   0.000083776        7836040     350222
  10  9  0     -902.7134681315    -0.0000003127   0.000089043   0.000041384        7446398     364032
  11 10  0     -902.7134681667    -0.0000000352   0.000057342   0.000024268        6849787     379447
  12 11  0     -902.7134681791    -0.0000000124   0.000016009   0.000006622        6718787     383858
  13 12  0     -902.7134681803    -0.0000000012   0.000010881   0.000002009        6173278     400134

          -----------------
          DENSITY CONVERGED
          -----------------
     TIME TO FORM FOCK OPERATORS=       1.0 SECONDS (       0.1 SEC/ITER)
     FOCK TIME ON FIRST ITERATION=       0.1, LAST ITERATION=       0.1
     TIME TO SOLVE SCF EQUATIONS=       0.1 SECONDS (       0.0 SEC/ITER)

 FINAL RHF ENERGY IS     -902.7134681803 AFTER  13 ITERATIONS

          ------------
          EIGENVECTORS
          ------------

                      1          2          3          4          5
                  -79.6164   -20.5357   -20.5188   -20.5042   -20.4983
                     A          A          A          A          A   
    1  C  1  S   -0.000005   0.000001   0.000178  -0.000692   0.000026
    2  C  1  S   -0.000108   0.000047   0.000695  -0.002547  -0.000085
    3  C  1  X    0.000033   0.000098  -0.000680  -0.001368   0.000358
    4  C  1  Y   -0.000077   0.000154  -0.000522   0.000686  -0.000327
    5  C  1  Z    0.000077  -0.000292   0.000109  -0.000144  -0.000227
    6  C  1  S    0.000604  -0.000965  -0.004192   0.015474  -0.001261
    7  C  1  X    0.000351  -0.001043   0.001043  -0.005099   0.000191
    8  C  1  Y    0.000433  -0.001346  -0.001128   0.004874   0.000607
    9  C  1  Z   -0.001283   0.004295  -0.005379  -0.002402   0.002081
   10  H  2  S    0.000041  -0.000685   0.002880  -0.000139  -0.000081
   11  H  2  S   -0.000112   0.002871   0.005780  -0.000118   0.000286
   12  O  3  S   -0.000139  -0.000036   0.000476   0.001787   0.001214
   13  O  3  S   -0.001076  -0.000023   0.000252   0.000801   0.000493
   14  O  3  X    0.000005  -0.000009   0.000092   0.000318  -0.000552
   15  O  3  Y   -0.000227   0.000026   0.000017  -0.000002   0.000105
   16  O  3  Z    0.000226  -0.000011   0.000020  -0.000477  -0.000337
   17  O  3  S    0.002252   0.000044  -0.000759  -0.001374  -0.000474
   18  O  3  X    0.000004   0.000028  -0.000397  -0.001158   0.002077
   19  O  3  Y    0.001863  -0.000069  -0.000080  -0.000064  -0.000410
   20  O  3  Z   -0.001770   0.000018   0.000028   0.001883   0.001243
   21  O  4  S   -0.000005   0.983667   0.005443   0.000618  -0.000150
   22  O  4  S   -0.000037   0.099062   0.000009  -0.000025   0.000014
   23  O  4  X   -0.000003  -0.001927  -0.000129  -0.000101   0.000010
   24  O  4  Y   -0.000004  -0.000353   0.000170  -0.000020   0.000002
   25  O  4  Z   -0.000006  -0.004066   0.000179   0.000028   0.000011
   26  O  4  S    0.000207  -0.052537   0.003739   0.000407  -0.000132
   27  O  4  X   -0.000030   0.006381  -0.000318   0.000510  -0.000028
   28  O  4  Y    0.000023   0.001011  -0.000634   0.000063  -0.000003
   29  O  4  Z   -0.000033   0.013071  -0.001789  -0.000144  -0.000016
   30  O  5  S   -0.000150   0.000141  -0.002463   0.043211   0.982320
   31  O  5  S   -0.001397   0.000038  -0.000458   0.005315   0.096623
   32  O  5  X   -0.000482   0.000011  -0.000042   0.000626   0.000914
   33  O  5  Y    0.000094   0.000007  -0.000054  -0.000057  -0.002067
   34  O  5  Z   -0.000283   0.000004  -0.000046  -0.000135   0.002264
   35  O  5  S    0.002865  -0.000067   0.000855  -0.004782  -0.040008
   36  O  5  X    0.002272  -0.000061   0.000250  -0.002782  -0.002647
   37  O  5  Y   -0.000448  -0.000020   0.000212   0.000078   0.003353
   38  O  5  Z    0.001315  -0.000017   0.000208   0.000543  -0.004183
   39  O  6  S   -0.000143   0.000120   0.005085   0.008889   0.011446
   40  O  6  S   -0.001295   0.000040   0.001391   0.001895   0.002159
   41  O  6  X    0.000144  -0.000009   0.000436   0.000037  -0.000509
   42  O  6  Y    0.000474  -0.000011   0.000066  -0.000265  -0.000088
   43  O  6  Z    0.000168  -0.000004   0.000087  -0.000456  -0.000413
   44  O  6  S    0.002565  -0.000099  -0.002976  -0.003198  -0.003494
   45  O  6  X   -0.000694   0.000050  -0.002127  -0.000086   0.002298
   46  O  6  Y   -0.002351   0.000060  -0.000134   0.001389   0.000699
   47  O  6  Z   -0.000850   0.000029  -0.000344   0.001940   0.001760
   48  O  7  S    0.000011  -0.005604   0.983523  -0.004891   0.002574
   49  O  7  S    0.000111  -0.001128   0.098722  -0.000286   0.000031
   50  O  7  X   -0.000045   0.000185   0.001880  -0.000214   0.000112
   51  O  7  Y   -0.000014   0.000072  -0.002256  -0.000175   0.000029
   52  O  7  Z    0.000001   0.000424  -0.000603  -0.000111  -0.000016
   53  O  7  S   -0.000332   0.003877  -0.047575   0.000208   0.000573
   54  O  7  X    0.000085  -0.000292  -0.004619   0.000665  -0.000368
   55  O  7  Y    0.000087  -0.001314   0.006694   0.000313  -0.000194
   56  O  7  Z    0.000011  -0.002891   0.003724   0.000193  -0.000076
   57  O  8  S   -0.000122  -0.000677   0.004979   0.982498  -0.043074
   58  O  8  S   -0.001213  -0.000177   0.000727   0.097885  -0.003197
   59  O  8  X    0.000453  -0.000093   0.000228   0.000850  -0.000689
   60  O  8  Y   -0.000156   0.000032   0.000079  -0.000907   0.000379
   61  O  8  Z   -0.000546   0.000116  -0.000083   0.002974  -0.000106
   62  O  8  S    0.002164   0.000551  -0.000503  -0.044401  -0.001225
   63  O  8  X   -0.001923   0.000579  -0.000432  -0.002969   0.002983
   64  O  8  Y    0.000676  -0.000188  -0.000347   0.002388  -0.001517
   65  O  8  Z    0.002167  -0.000580   0.000564  -0.005986  -0.000178
   66  H  9  S   -0.000279  -0.000012  -0.000063  -0.000087   0.002492
   67  H  9  S    0.000237   0.000019   0.000442  -0.000568   0.004309
   68  H 10  S   -0.000366  -0.000031   0.000095   0.000475  -0.000353
   69  H 10  S    0.000283  -0.000073   0.004040  -0.001139  -0.000367
   70  C 11  S    0.000014   0.000228  -0.000944   0.000209   0.000010
   71  C 11  S    0.000124   0.000851  -0.004149   0.000873   0.000092
   72  C 11  X   -0.000061  -0.000522  -0.000470   0.000521  -0.000075
   73  C 11  Y    0.000041   0.000327   0.001223   0.000115  -0.000013
   74  C 11  Z   -0.000099   0.000512   0.000525   0.000210   0.000040
   75  C 11  S   -0.000447  -0.004597   0.021253  -0.006319  -0.000147
   76  C 11  X    0.000340  -0.000536  -0.001797   0.000936   0.000717
   77  C 11  Y   -0.000043  -0.002787   0.003704   0.001668   0.000028
   78  C 11  Z    0.000954  -0.010749   0.013887   0.000456  -0.000693
   79  C 12  S    0.000001  -0.000014   0.000200  -0.000127   0.000018
   80  C 12  S   -0.000007   0.000204   0.000486  -0.000900   0.000147
   81  C 12  X    0.000009   0.001284   0.000509   0.000290  -0.000054
   82  C 12  Y    0.000023  -0.000142  -0.000316   0.000160  -0.000016
   83  C 12  Z    0.000006   0.001864   0.000198   0.000116  -0.000016
   84  C 12  S   -0.000219   0.020411  -0.007785   0.002882  -0.000469
   85  C 12  X    0.000142   0.001580   0.003334  -0.002441   0.000224
   86  C 12  Y   -0.000263   0.007274  -0.004060  -0.000304  -0.000016
   87  C 12  Z   -0.000293   0.020113  -0.005643  -0.001074   0.000323
   88  P 13  S    0.986984   0.000002  -0.000010   0.000094   0.000095
   89  P 13  S    0.049316  -0.000023   0.000010  -0.001075  -0.001051
   90  P 13  X    0.000022   0.000008   0.000096  -0.000266   0.000369
   91  P 13  Y    0.000037  -0.000008  -0.000008   0.000112  -0.000025
   92  P 13  Z   -0.000077   0.000026  -0.000010   0.000286   0.000185
   93  P 13  S   -0.015213  -0.000011  -0.000700  -0.001235  -0.000746
   94  P 13  X   -0.000127  -0.000029  -0.000718   0.001313  -0.002105
   95  P 13  Y    0.000068   0.000016   0.000102  -0.000741  -0.000011
   96  P 13  Z    0.000039  -0.000153   0.000047  -0.001224  -0.000867
   97  P 13  S    0.001123   0.000301   0.000691   0.011452   0.011230
   98  P 13  X    0.000408   0.000156   0.002155   0.002951  -0.006102
   99  P 13  Y   -0.000536   0.000086  -0.001063   0.000635   0.003338
  100  P 13  Z    0.000713  -0.000006   0.000376  -0.005948  -0.005263
  101  H 14  S    0.000230  -0.000170   0.001018  -0.001038  -0.000214
  102  H 14  S    0.000238  -0.002661   0.001343  -0.001255   0.000350
  103  H 15  S   -0.000254   0.000220  -0.000609  -0.001190   0.000344
  104  H 15  S   -0.000324   0.001778  -0.000807  -0.001376   0.001172
  105  H 16  S    0.000134  -0.000588  -0.000714   0.000475  -0.000071
  106  H 16  S    0.000349  -0.001781   0.000874  -0.000134  -0.000248
  107  H 17  S   -0.000042   0.000459  -0.000680  -0.000378   0.000075
  108  H 17  S   -0.000169   0.004406  -0.001688   0.000036   0.000052

                      6          7          8          9         10
                  -20.4773   -20.4115   -11.3425   -11.2945   -11.2795
                     A          A          A          A          A   
    1  C  1  S    0.000134   0.000185  -0.003800  -0.010819   0.987681
    2  C  1  S    0.000855   0.001488  -0.002249  -0.004492   0.102008
    3  C  1  X   -0.000051  -0.000604  -0.001089   0.000760  -0.000052
    4  C  1  Y    0.000309   0.000328   0.000127   0.000091   0.000704
    5  C  1  Z    0.000254   0.000393  -0.000456  -0.000103   0.000537
    6  C  1  S   -0.003102  -0.003528   0.003971   0.027089  -0.079764
    7  C  1  X    0.000916   0.001786   0.004583   0.009765  -0.004336
    8  C  1  Y   -0.001857  -0.001892  -0.000684   0.010385  -0.005823
    9  C  1  Z   -0.000388  -0.002587   0.002508   0.005394  -0.004221
   10  H  2  S   -0.000180   0.000183  -0.000367  -0.000839  -0.000007
   11  H  2  S   -0.000819  -0.000349   0.002008   0.002880  -0.000090
   12  O  3  S    0.001274   0.983352  -0.000000  -0.000005   0.000105
   13  O  3  S    0.000402   0.096114  -0.000003  -0.000021   0.001067
   14  O  3  X    0.000235   0.000207   0.000029   0.000093   0.000424
   15  O  3  Y    0.000516   0.002741  -0.000013  -0.000004  -0.000041
   16  O  3  Z    0.000201  -0.002596  -0.000026  -0.000034  -0.000070
   17  O  3  S   -0.000364  -0.039511   0.000022   0.000177  -0.003331
   18  O  3  X   -0.000874  -0.000579  -0.000106  -0.000244  -0.001872
   19  O  3  Y   -0.001791  -0.005742   0.000052   0.000069  -0.000154
   20  O  3  Z   -0.000791   0.005514   0.000119   0.000085   0.000721
   21  O  4  S   -0.000143   0.000028   0.000080   0.000050   0.000005
   22  O  4  S    0.000030  -0.000018   0.000893   0.000110   0.000062
   23  O  4  X    0.000034   0.000016   0.000285  -0.000033  -0.000169
   24  O  4  Y   -0.000018  -0.000000   0.000033   0.000164  -0.000081
   25  O  4  Z   -0.000037  -0.000020   0.000359   0.000294   0.000007
   26  O  4  S   -0.000323   0.000091  -0.000577  -0.002189   0.000022
   27  O  4  X   -0.000140  -0.000105   0.000493   0.002101   0.000637
   28  O  4  Y    0.000099  -0.000003   0.000864  -0.001304   0.000254
   29  O  4  Z    0.000213   0.000044   0.003673   0.000138   0.000117
   30  O  5  S   -0.011583  -0.001190   0.000008   0.000006  -0.000029
   31  O  5  S   -0.000077   0.000313   0.000084   0.000066  -0.000269
   32  O  5  X    0.000426  -0.000003   0.000046   0.000049   0.000036
   33  O  5  Y    0.000494  -0.000623   0.000001  -0.000007  -0.000120
   34  O  5  Z    0.000065   0.000421  -0.000031  -0.000026  -0.000187
   35  O  5  S   -0.002589  -0.000537  -0.000265  -0.000160   0.001032
   36  O  5  X   -0.002163   0.000031  -0.000231  -0.000197  -0.000033
   37  O  5  Y   -0.001872   0.002403   0.000007   0.000033   0.000415
   38  O  5  Z   -0.000545  -0.001632   0.000109   0.000085   0.000760
   39  O  6  S    0.983287  -0.001253   0.000017   0.000010   0.000042
   40  O  6  S    0.097366   0.000186   0.000165   0.000121   0.000436
   41  O  6  X    0.001730   0.000039   0.000043   0.000082   0.000228
   42  O  6  Y   -0.002837  -0.000562   0.000024   0.000044  -0.000296
   43  O  6  Z   -0.000768   0.000561  -0.000019  -0.000007  -0.000072
   44  O  6  S   -0.041930  -0.000242  -0.000594  -0.000444  -0.001199
   45  O  6  X   -0.003590  -0.000187  -0.000258  -0.000365  -0.000855
   46  O  6  Y    0.005686   0.002056  -0.000030  -0.000160   0.001323
   47  O  6  Z    0.001836  -0.002003   0.000109   0.000046   0.000345
   48  O  7  S   -0.004892  -0.000420  -0.000009  -0.000275   0.000053
   49  O  7  S    0.000352   0.000156  -0.000301  -0.001074   0.000148
   50  O  7  X   -0.000776  -0.000085  -0.000215   0.000262   0.000006
   51  O  7  Y    0.000389  -0.000160   0.000362  -0.000173   0.000123
   52  O  7  Z    0.000020   0.000020   0.000264  -0.000340   0.000110
   53  O  7  S   -0.001397  -0.000628   0.000146   0.010671  -0.001922
   54  O  7  X    0.003127   0.000079   0.000018   0.000877   0.000339
   55  O  7  Y   -0.001504   0.000717  -0.000984  -0.003702   0.000968
   56  O  7  Z   -0.000096   0.000159  -0.001068  -0.003347   0.000774
   57  O  8  S   -0.008199  -0.001607  -0.000058   0.000069  -0.000164
   58  O  8  S    0.000125   0.000425  -0.000582   0.000262  -0.000131
   59  O  8  X   -0.000289  -0.000164  -0.000291  -0.000157   0.000374
   60  O  8  Y    0.000651  -0.000503   0.000087   0.000012  -0.000313
   61  O  8  Z    0.000196   0.000355   0.000032  -0.000071   0.000420
   62  O  8  S   -0.002022  -0.001086   0.002029  -0.002341   0.006923
   63  O  8  X    0.001732   0.001241   0.001517  -0.001228   0.003838
   64  O  8  Y   -0.002788   0.001559  -0.000631  -0.000109  -0.001469
   65  O  8  Z   -0.001110  -0.001426  -0.000077  -0.000521  -0.000172
   66  H  9  S   -0.000467   0.001232  -0.000024  -0.000032  -0.000182
   67  H  9  S   -0.000312  -0.001293  -0.000043   0.000033   0.000862
   68  H 10  S    0.002495   0.000653  -0.000057  -0.000249   0.000677
   69  H 10  S    0.007289  -0.001406   0.000730   0.001047  -0.001794
   70  C 11  S   -0.000001  -0.000067  -0.002415   0.988194   0.009767
   71  C 11  S    0.000068  -0.000275  -0.001389   0.105299  -0.001655
   72  C 11  X   -0.000224  -0.000157  -0.000351   0.000310  -0.000180
   73  C 11  Y    0.000042  -0.000020   0.000074  -0.000979  -0.000144
   74  C 11  Z    0.000060  -0.000031  -0.000080   0.000463  -0.000323
   75  C 11  S    0.000698   0.001999   0.012499  -0.096257   0.020040
   76  C 11  X   -0.000283  -0.000823   0.010134  -0.001808  -0.012288
   77  C 11  Y   -0.001105  -0.000332  -0.003553   0.012004  -0.007392
   78  C 11  Z   -0.001301   0.000958   0.000842  -0.003143  -0.001129
   79  C 12  S    0.000017   0.000014   0.986707   0.001860   0.003445
   80  C 12  S    0.000182   0.000057   0.095246  -0.002396  -0.001518
   81  C 12  X   -0.000097   0.000018  -0.000321  -0.000290   0.000915
   82  C 12  Y    0.000038  -0.000036   0.000184  -0.000134   0.000117
   83  C 12  Z   -0.000021  -0.000016   0.000772  -0.000287   0.000468
   84  C 12  S   -0.000153  -0.000389  -0.052027   0.026005   0.004262
   85  C 12  X    0.000468   0.000398   0.007873  -0.015259  -0.001658
   86  C 12  Y    0.000199   0.000026  -0.000919   0.008546   0.000362
   87  C 12  Z    0.000634  -0.000100   0.009281  -0.001822  -0.001600
   88  P 13  S    0.000085   0.000060   0.000000  -0.000005   0.000000
   89  P 13  S   -0.001050  -0.000926  -0.000048   0.000032  -0.000346
   90  P 13  X   -0.000132   0.000092   0.000015   0.000095   0.000051
   91  P 13  Y   -0.000411   0.000156  -0.000000  -0.000018   0.000020
   92  P 13  Z   -0.000049  -0.000159  -0.000013  -0.000025  -0.000061
   93  P 13  S   -0.001416  -0.001421  -0.000378  -0.000232  -0.002862
   94  P 13  X    0.000671  -0.000732  -0.000101  -0.000520  -0.001015
   95  P 13  Y    0.002439  -0.001911  -0.000017   0.000067   0.000131
   96  P 13  Z    0.000642   0.002052   0.000108   0.000204   0.000405
   97  P 13  S    0.012361   0.014703   0.001052  -0.000033   0.007239
   98  P 13  X    0.002815   0.001775   0.000472   0.000306   0.006820
   99  P 13  Y    0.007285  -0.008656  -0.000069  -0.000076  -0.001845
  100  P 13  Z   -0.000289   0.006126  -0.000828  -0.000676  -0.000456
  101  H 14  S    0.000264   0.000130  -0.001118  -0.001946   0.000774
  102  H 14  S    0.000099   0.000565  -0.000113  -0.000093   0.014000
  103  H 15  S    0.000195  -0.000105  -0.000430  -0.001291  -0.000154
  104  H 15  S   -0.000649  -0.001318  -0.000408   0.001443   0.013465
  105  H 16  S   -0.000033   0.000015  -0.001378   0.000780  -0.001299
  106  H 16  S   -0.000266   0.000188   0.001360   0.013717   0.001813
  107  H 17  S    0.000113   0.000012  -0.001226  -0.000887  -0.000361
  108  H 17  S    0.000018  -0.000064   0.012970   0.003004  -0.000976

                     11         12         13         14         15
                   -7.6570    -5.5448    -5.5445    -5.5436    -1.4670
                     A          A          A          A          A   
    1  C  1  S   -0.000186  -0.000169   0.000188   0.000104  -0.012657
    2  C  1  S   -0.000957  -0.000738   0.000394   0.000385   0.016260
    3  C  1  X    0.000323  -0.000392   0.000583  -0.000183   0.003389
    4  C  1  Y    0.000003  -0.000188  -0.000289  -0.000317   0.007832
    5  C  1  Z   -0.000740  -0.000321  -0.000198   0.000212   0.004132
    6  C  1  S    0.001766   0.003165  -0.002907  -0.000927   0.012790
    7  C  1  X   -0.004935  -0.001117   0.002946   0.005146  -0.009992
    8  C  1  Y    0.001310   0.002537  -0.002663   0.001289   0.004230
    9  C  1  Z    0.007280   0.004370   0.002015  -0.004064  -0.010176
   10  H  2  S   -0.000186  -0.000114   0.000131  -0.000013   0.040700
   11  H  2  S    0.000734   0.000771  -0.000637   0.000011   0.002871
   12  O  3  S    0.000194   0.000163   0.000413  -0.000070  -0.004605
   13  O  3  S    0.002109  -0.000577  -0.000256   0.000159   0.004024
   14  O  3  X   -0.000112  -0.000074  -0.000094   0.000006   0.000320
   15  O  3  Y    0.000554  -0.000035   0.000158   0.000163   0.001985
   16  O  3  Z   -0.000599   0.000043  -0.000019   0.000260  -0.001975
   17  O  3  S   -0.003842   0.002939   0.002275  -0.001205   0.014319
   18  O  3  X    0.000496   0.000688   0.000405  -0.000162   0.000918
   19  O  3  Y   -0.007043   0.004032   0.006191  -0.002063   0.002620
   20  O  3  Z    0.006692  -0.003634  -0.005971   0.000297  -0.002731
   21  O  4  S    0.000014  -0.000001   0.000030  -0.000012  -0.191957
   22  O  4  S    0.000086  -0.000012   0.000192  -0.000067   0.181546
   23  O  4  X   -0.000018  -0.000030   0.000002   0.000002  -0.045562
   24  O  4  Y    0.000011   0.000048  -0.000009   0.000009  -0.010548
   25  O  4  Z    0.000045   0.000034  -0.000034  -0.000011  -0.100367
   26  O  4  S   -0.000625  -0.000001  -0.001130   0.000534   0.602258
   27  O  4  X    0.000281   0.000256   0.000180  -0.000151  -0.054374
   28  O  4  Y   -0.000095  -0.000271   0.000033  -0.000003  -0.007871
   29  O  4  Z    0.000023  -0.000073   0.000381  -0.000119  -0.109382
   30  O  5  S    0.000395  -0.000020  -0.000015  -0.000022  -0.007288
   31  O  5  S    0.003839  -0.001437   0.001630  -0.000442   0.006439
   32  O  5  X    0.001152   0.000544   0.000634  -0.000209   0.001570
   33  O  5  Y   -0.000435   0.000690   0.000082   0.000051  -0.001536
   34  O  5  Z    0.001019  -0.000309   0.000096   0.000080   0.002011
   35  O  5  S   -0.007955   0.003018  -0.003613   0.001315   0.023086
   36  O  5  X   -0.007084   0.000938  -0.008030   0.001692   0.003038
   37  O  5  Y    0.002298  -0.003511   0.000983  -0.000071  -0.002167
   38  O  5  Z   -0.005552   0.003201  -0.003588   0.000668   0.002358
   39  O  6  S    0.000335   0.000012   0.000041  -0.000080  -0.012914
   40  O  6  S    0.003308   0.001684   0.001068   0.000939   0.011711
   41  O  6  X   -0.000181   0.000512  -0.000283   0.000135   0.003212
   42  O  6  Y   -0.001215  -0.000056  -0.000306  -0.000318  -0.004298
   43  O  6  Z   -0.000344  -0.000157  -0.000522   0.000146  -0.001080
   44  O  6  S   -0.006199  -0.004044  -0.003149  -0.002036   0.039134
   45  O  6  X    0.001483  -0.000643   0.001932   0.000618   0.002829
   46  O  6  Y    0.007879   0.005132   0.004625   0.006027  -0.007891
   47  O  6  Z    0.002415   0.001926   0.002740   0.001184  -0.002589
   48  O  7  S   -0.000056  -0.000047   0.000018   0.000021  -0.079004
   49  O  7  S   -0.000486  -0.000398   0.000184   0.000128   0.074493
   50  O  7  X    0.000234   0.000392  -0.000278   0.000113   0.020562
   51  O  7  Y    0.000282   0.000383  -0.000226   0.000025  -0.021687
   52  O  7  Z    0.000073   0.000072   0.000002  -0.000074  -0.003047
   53  O  7  S    0.001601   0.000559   0.000125  -0.000807   0.233281
   54  O  7  X   -0.000319  -0.001227   0.001126  -0.000580   0.025669
   55  O  7  Y   -0.001431  -0.001601   0.000673   0.000078  -0.023927
   56  O  7  Z   -0.000500  -0.000163  -0.000054   0.000306  -0.000629
   57  O  8  S    0.000315   0.000024  -0.000011  -0.000052  -0.018990
   58  O  8  S    0.003304   0.001124  -0.000163  -0.001997   0.017712
   59  O  8  X   -0.001015   0.000094  -0.000762   0.000383   0.002806
   60  O  8  Y    0.000232   0.000249   0.000754   0.000157  -0.001202
   61  O  8  Z    0.001931   0.000596  -0.000169  -0.000853   0.006361
   62  O  8  S   -0.005145  -0.001268   0.000059   0.003491   0.055548
   63  O  8  X    0.004650   0.001718   0.003708  -0.004492  -0.001164
   64  O  8  Y   -0.001016  -0.000951  -0.002995   0.000493   0.001443
   65  O  8  Z   -0.008749  -0.004326  -0.000066   0.007622   0.010744
   66  H  9  S    0.000805  -0.001337  -0.000364   0.000011   0.002744
   67  H  9  S    0.001379  -0.007242   0.001182   0.000526   0.000148
   68  H 10  S    0.000687   0.001386  -0.000050   0.000585   0.009088
   69  H 10  S    0.003288   0.005697  -0.002212   0.000641   0.007316
   70  C 11  S    0.000030   0.000023   0.000032   0.000066  -0.043667
   71  C 11  S   -0.000272  -0.000352   0.000430   0.000591   0.042367
   72  C 11  X    0.000539   0.000971  -0.000217  -0.000249   0.010995
   73  C 11  Y   -0.000274  -0.000396   0.000025   0.000057   0.003073
   74  C 11  Z    0.000410   0.000087   0.000259  -0.000300   0.029318
   75  C 11  S   -0.000513  -0.002521  -0.000865  -0.002348   0.077164
   76  C 11  X   -0.001220  -0.002945  -0.000386   0.001933  -0.001972
   77  C 11  Y    0.000831   0.002864   0.000081   0.000795  -0.000922
   78  C 11  Z   -0.005029  -0.002161  -0.001599   0.003328   0.024023
   79  C 12  S   -0.000046  -0.000061  -0.000016   0.000034  -0.110712
   80  C 12  S   -0.000241  -0.000317  -0.000049   0.000233   0.123327
   81  C 12  X   -0.000028  -0.000136   0.000070  -0.000085   0.031506
   82  C 12  Y   -0.000032  -0.000007  -0.000033   0.000030   0.028670
   83  C 12  Z    0.000049   0.000054  -0.000149  -0.000023   0.121255
   84  C 12  S    0.002143   0.003307   0.000937  -0.001313   0.121335
   85  C 12  X   -0.001542  -0.001821  -0.000457   0.000877  -0.010811
   86  C 12  Y    0.001080   0.001091   0.000854  -0.000852  -0.011734
   87  C 12  Z    0.000746  -0.000715   0.001583  -0.000742  -0.044551
   88  P 13  S   -0.295504   0.000577   0.001042  -0.000492   0.003240
   89  P 13  S    0.995291  -0.001962  -0.004124   0.001744  -0.016034
   90  P 13  X   -0.000077   0.825491  -0.466369  -0.215213  -0.002569
   91  P 13  Y    0.002534   0.505034   0.663028   0.500679  -0.001031
   92  P 13  Z   -0.003143  -0.093209  -0.536658   0.805849   0.001568
   93  P 13  S    0.125582   0.001585  -0.003739  -0.001029   0.022559
   94  P 13  X    0.001819   0.079592  -0.044995  -0.020518   0.004450
   95  P 13  Y   -0.000400   0.048681   0.064330   0.046763   0.001069
   96  P 13  Z   -0.000781  -0.009428  -0.051437   0.074694  -0.002328
   97  P 13  S   -0.035871  -0.002789   0.008957   0.001074  -0.001480
   98  P 13  X   -0.005509  -0.029151   0.016513   0.008002  -0.003785
   99  P 13  Y    0.001763  -0.012732  -0.015359  -0.013833   0.000097
  100  P 13  Z   -0.000884   0.000510   0.011055  -0.019276   0.001950
  101  H 14  S   -0.001878  -0.000662   0.000853   0.000910   0.005805
  102  H 14  S    0.000467   0.000152  -0.005925   0.000750   0.005840
  103  H 15  S    0.001072   0.000538   0.000111  -0.000538   0.004724
  104  H 15  S    0.002858   0.001884   0.000481  -0.001359  -0.004950
  105  H 16  S   -0.000530  -0.000347  -0.000193   0.000443   0.013215
  106  H 16  S   -0.001783  -0.000862  -0.000042   0.000896  -0.002619
  107  H 17  S    0.000034  -0.000122   0.000218  -0.000030   0.022634
  108  H 17  S    0.000690   0.000209   0.000541  -0.000577  -0.023558

                     16         17         18         19         20
                   -1.4329    -1.3985    -1.3683    -1.3498    -1.2787
                     A          A          A          A          A   
    1  C  1  S   -0.041857  -0.009290  -0.055007   0.019700   0.013012
    2  C  1  S    0.041823   0.008551   0.057082  -0.021907  -0.015964
    3  C  1  X   -0.029529   0.012495  -0.045529   0.011155   0.010710
    4  C  1  Y    0.022964   0.009692   0.026118  -0.010982  -0.008767
    5  C  1  Z   -0.005015   0.006125  -0.012004   0.002073   0.005393
    6  C  1  S    0.076932   0.011957   0.107066  -0.034833  -0.027379
    7  C  1  X    0.000019  -0.007493   0.001950  -0.000567  -0.009432
    8  C  1  Y    0.004737  -0.000741   0.005404   0.003356   0.007076
    9  C  1  Z    0.007400   0.020358  -0.005068   0.002711   0.006620
   10  H  2  S    0.017995   0.077433  -0.022596  -0.012308   0.004255
   11  H  2  S    0.000661   0.004263  -0.002497   0.001340   0.001647
   12  O  3  S   -0.047742   0.022315   0.005189  -0.008654  -0.218000
   13  O  3  S    0.042764  -0.020159  -0.005327   0.007964   0.197460
   14  O  3  X    0.001449   0.000904   0.004203   0.002522   0.002894
   15  O  3  Y    0.020024  -0.008790  -0.003847   0.006060   0.059567
   16  O  3  Z   -0.019750   0.008691   0.000389   0.000295  -0.056417
   17  O  3  S    0.145474  -0.068390  -0.013587   0.026449   0.702176
   18  O  3  X    0.002687   0.001575   0.008072   0.004229   0.003882
   19  O  3  Y    0.024900  -0.011294  -0.004790   0.008484   0.083869
   20  O  3  Z   -0.025696   0.011601   0.000686  -0.000420  -0.080357
   21  O  4  S    0.051041   0.079735  -0.011137  -0.009394   0.000884
   22  O  4  S   -0.048231  -0.075248   0.010453   0.008863  -0.000894
   23  O  4  X    0.009584   0.010415  -0.000668  -0.000557  -0.000154
   24  O  4  Y    0.004361   0.009712  -0.002009  -0.001465   0.000320
   25  O  4  Z    0.026034   0.039863  -0.005730  -0.004314   0.000573
   26  O  4  S   -0.164726  -0.265015   0.038383   0.032360  -0.003012
   27  O  4  X    0.011055   0.013673  -0.002370  -0.000142  -0.000019
   28  O  4  Y    0.004134   0.011070  -0.002691  -0.002020   0.000771
   29  O  4  Z    0.030023   0.048564  -0.007273  -0.005910   0.000427
   30  O  5  S   -0.103112   0.081333   0.143423   0.114093   0.046491
   31  O  5  S    0.093247  -0.074123  -0.130543  -0.104707  -0.043153
   32  O  5  X    0.016521  -0.007134  -0.002008   0.002138   0.004638
   33  O  5  Y   -0.022611   0.018267   0.030734   0.029305   0.005508
   34  O  5  Z    0.026333  -0.019256  -0.032737  -0.020474  -0.003150
   35  O  5  S    0.325863  -0.258837  -0.462792  -0.367628  -0.154611
   36  O  5  X    0.028756  -0.016226  -0.019584  -0.011918   0.002320
   37  O  5  Y   -0.029411   0.023478   0.038408   0.039377   0.006359
   38  O  5  Z    0.035889  -0.027748  -0.050604  -0.031915  -0.005651
   39  O  6  S   -0.095935   0.017580   0.045685  -0.196229   0.047555
   40  O  6  S    0.085521  -0.014328  -0.041674   0.176698  -0.043650
   41  O  6  X    0.012416   0.005017  -0.004623   0.036350  -0.011389
   42  O  6  Y   -0.035621   0.009428   0.011807  -0.050226   0.003478
   43  O  6  Z   -0.010543   0.003670   0.001741  -0.009019   0.006058
   44  O  6  S    0.303782  -0.062950  -0.145689   0.637967  -0.157875
   45  O  6  X    0.015425   0.001666  -0.000397   0.042577  -0.012196
   46  O  6  Y   -0.052011   0.009056   0.017910  -0.083968   0.007409
   47  O  6  Z   -0.016861   0.003906   0.003732  -0.016981   0.008159
   48  O  7  S   -0.052664  -0.192682   0.052241   0.025370  -0.007847
   49  O  7  S    0.047425   0.176175  -0.047541  -0.024564   0.006987
   50  O  7  X    0.004355   0.037434  -0.010533  -0.012819   0.004021
   51  O  7  Y   -0.010519  -0.039670   0.007197   0.010156  -0.001984
   52  O  7  Z   -0.003279  -0.003905  -0.003262   0.002219   0.001444
   53  O  7  S    0.168974   0.619830  -0.172057  -0.079491   0.028341
   54  O  7  X    0.003515   0.050359  -0.016127  -0.020066   0.006272
   55  O  7  Y   -0.015318  -0.058545   0.012196   0.012554  -0.004581
   56  O  7  Z   -0.007018  -0.014552   0.000190   0.002706  -0.000475
   57  O  8  S   -0.132120   0.017034  -0.166101   0.048232   0.039002
   58  O  8  S    0.117809  -0.014999   0.150028  -0.044089  -0.035288
   59  O  8  X    0.002411   0.008182   0.020572  -0.005551  -0.009816
   60  O  8  Y   -0.005791  -0.000334  -0.016696   0.008988   0.000118
   61  O  8  Z    0.043560  -0.005832   0.041170  -0.008044  -0.000880
   62  O  8  S    0.420093  -0.056523   0.535188  -0.154683  -0.131961
   63  O  8  X   -0.000604   0.009897   0.018468  -0.002424  -0.011940
   64  O  8  Y   -0.006001   0.000881  -0.020040   0.012438  -0.000026
   65  O  8  Z    0.065063  -0.010796   0.072416  -0.014545  -0.006422
   66  H  9  S    0.040848  -0.034739  -0.065197  -0.054187  -0.023861
   67  H  9  S    0.007436  -0.007866  -0.018029  -0.015509   0.000895
   68  H 10  S    0.036879   0.007671  -0.020944   0.077714  -0.022087
   69  H 10  S    0.009669   0.018341  -0.003771   0.011455  -0.002177
   70  C 11  S   -0.021260  -0.060009   0.002215   0.015537   0.001575
   71  C 11  S    0.023259   0.064620  -0.003590  -0.015938  -0.000476
   72  C 11  X   -0.017611  -0.020750  -0.008844   0.006808   0.002578
   73  C 11  Y    0.005748   0.035859  -0.017616  -0.002811   0.004059
   74  C 11  Z    0.008159   0.049814  -0.019078  -0.006731   0.004787
   75  C 11  S    0.035053   0.111554  -0.003712  -0.034417  -0.005175
   76  C 11  X    0.002083   0.005975  -0.001943  -0.002705   0.007377
   77  C 11  Y   -0.001690  -0.013518   0.003533   0.005797  -0.002768
   78  C 11  Z   -0.010334  -0.028157   0.006617   0.003124  -0.003245
   79  C 12  S    0.023780   0.029808  -0.004400  -0.001614   0.000594
   80  C 12  S   -0.024852  -0.032864   0.007388   0.000380  -0.000984
   81  C 12  X   -0.017984  -0.037919   0.003933   0.007577  -0.000056
   82  C 12  Y   -0.002997   0.003717  -0.002046  -0.001611   0.000604
   83  C 12  Z   -0.034502  -0.055078   0.006474   0.007597  -0.000053
   84  C 12  S   -0.029766  -0.033089  -0.001190   0.006321  -0.002439
   85  C 12  X    0.004972   0.000253   0.006188  -0.003466  -0.000498
   86  C 12  Y    0.006354   0.016625  -0.004454  -0.001631  -0.000772
   87  C 12  Z    0.018198   0.038683  -0.007197  -0.006665   0.001578
   88  P 13  S    0.029450  -0.011485  -0.004097   0.005528   0.017235
   89  P 13  S   -0.147795   0.057843   0.020937  -0.028026  -0.088446
   90  P 13  X   -0.005029  -0.014087  -0.049965  -0.033822   0.001241
   91  P 13  Y   -0.007246   0.000571   0.022074  -0.042914   0.071224
   92  P 13  Z    0.014290  -0.006041   0.013543  -0.036508  -0.061428
   93  P 13  S    0.194570  -0.076101  -0.024358   0.036597   0.114099
   94  P 13  X    0.009206   0.020038   0.073764   0.049733  -0.000923
   95  P 13  Y    0.010261  -0.001835  -0.031535   0.061402  -0.104315
   96  P 13  Z   -0.021806   0.008646  -0.019473   0.051656   0.088706
   97  P 13  S    0.027836  -0.013563  -0.005608   0.005490   0.022771
   98  P 13  X   -0.003618  -0.003533  -0.018392  -0.011093  -0.002047
   99  P 13  Y   -0.003565   0.001487   0.006296  -0.008253   0.009806
  100  P 13  Z    0.005529  -0.001447  -0.002517  -0.004409  -0.003969
  101  H 14  S    0.013266   0.001323   0.018007  -0.006910  -0.002915
  102  H 14  S   -0.003227  -0.009012   0.003359   0.001645   0.015049
  103  H 15  S    0.011213   0.003986   0.016417  -0.006440  -0.004223
  104  H 15  S   -0.000088   0.004087  -0.003961   0.004552   0.004953
  105  H 16  S    0.005752   0.015681   0.000503  -0.004781  -0.000999
  106  H 16  S   -0.002860  -0.011221   0.002477   0.001536  -0.001311
  107  H 17  S   -0.003890  -0.004545   0.001487  -0.000465  -0.000382
  108  H 17  S    0.007126   0.014402  -0.003433  -0.001558   0.000354

                     21         22         23         24         25
                   -1.0871    -0.9421    -0.8430    -0.8232    -0.7764
                     A          A          A          A          A   
    1  C  1  S   -0.110364  -0.144608  -0.025370  -0.055485  -0.004990
    2  C  1  S    0.115679   0.132073   0.023494   0.048854   0.002578
    3  C  1  X    0.080351  -0.008802  -0.050932   0.037769   0.028056
    4  C  1  Y    0.018971  -0.038776  -0.074569  -0.096977   0.039717
    5  C  1  Z    0.015642  -0.005959  -0.023886   0.059525   0.023737
    6  C  1  S    0.265957   0.487468   0.113917   0.224748   0.019347
    7  C  1  X    0.014813   0.036001  -0.011351   0.036696   0.023242
    8  C  1  Y   -0.008925  -0.007531  -0.032681  -0.052600   0.030754
    9  C  1  Z    0.007614   0.042899  -0.012961   0.053070   0.038323
   10  H  2  S   -0.051714   0.009666   0.064525   0.060887  -0.121687
   11  H  2  S   -0.035537   0.025042   0.029356   0.035400  -0.073974
   12  O  3  S   -0.008629  -0.016229  -0.017813   0.050228   0.015998
   13  O  3  S    0.006895   0.014499   0.017447  -0.047188  -0.014996
   14  O  3  X   -0.000878   0.001385   0.002070   0.002889   0.004517
   15  O  3  Y    0.000600  -0.006215  -0.015314   0.034988   0.014357
   16  O  3  Z    0.002274   0.008854   0.009935  -0.032484  -0.014825
   17  O  3  S    0.032894   0.060255   0.063898  -0.190115  -0.062007
   18  O  3  X    0.003341   0.005856   0.002950   0.004898   0.000874
   19  O  3  Y    0.000918  -0.007161  -0.015915   0.032039   0.013730
   20  O  3  Z   -0.001038   0.005420   0.010102  -0.031778  -0.014437
   21  O  4  S    0.044769  -0.057568   0.061631   0.009873  -0.009076
   22  O  4  S   -0.043818   0.056889  -0.061388  -0.009880   0.007888
   23  O  4  X   -0.011799   0.023255   0.004648  -0.019965   0.149073
   24  O  4  Y    0.000991  -0.003214  -0.054526  -0.003809  -0.128852
   25  O  4  Z   -0.010602   0.049777  -0.101124  -0.001508  -0.046722
   26  O  4  S   -0.156663   0.212268  -0.233485  -0.039874   0.050252
   27  O  4  X   -0.008380   0.015189   0.004854  -0.019752   0.134499
   28  O  4  Y    0.000819  -0.003127  -0.047982  -0.002869  -0.120014
   29  O  4  Z   -0.004002   0.038699  -0.090873   0.000211  -0.050622
   30  O  5  S   -0.007579  -0.016139  -0.011837   0.024875   0.003976
   31  O  5  S    0.007150   0.015863   0.013417  -0.030696  -0.007922
   32  O  5  X   -0.010169  -0.047622  -0.071823   0.179794   0.068481
   33  O  5  Y   -0.000847  -0.007520  -0.020456   0.050194   0.016019
   34  O  5  Z    0.002627  -0.000282  -0.012329   0.034307   0.007044
   35  O  5  S    0.025835   0.056719   0.037434  -0.070451  -0.000505
   36  O  5  X   -0.007597  -0.044004  -0.073210   0.188771   0.076992
   37  O  5  Y   -0.001071  -0.006554  -0.018822   0.049112   0.013110
   38  O  5  Z    0.003214   0.001511  -0.014768   0.042193   0.013482
   39  O  6  S   -0.013651  -0.013678  -0.013749   0.029132   0.029394
   40  O  6  S    0.010992   0.013399   0.015326  -0.031549  -0.027338
   41  O  6  X   -0.001752   0.023646   0.052026  -0.119780   0.025711
   42  O  6  Y    0.001228   0.021485   0.041842  -0.094475  -0.030060
   43  O  6  Z    0.003092   0.018019   0.026358  -0.048371  -0.016500
   44  O  6  S    0.054734   0.047954   0.044188  -0.098096  -0.120882
   45  O  6  X    0.002032   0.021755   0.048643  -0.126155   0.027117
   46  O  6  Y   -0.001496   0.017848   0.041834  -0.099409  -0.031672
   47  O  6  Z    0.001511   0.016703   0.028361  -0.051107  -0.020370
   48  O  7  S    0.066896  -0.018828  -0.028884  -0.004946  -0.038629
   49  O  7  S   -0.059044   0.015562   0.025792   0.003404   0.035943
   50  O  7  X   -0.004936  -0.039395  -0.002435   0.039264  -0.169989
   51  O  7  Y   -0.031253   0.010791   0.047121  -0.028380   0.052730
   52  O  7  Z   -0.063501   0.030686   0.139796   0.094949  -0.137298
   53  O  7  S   -0.256516   0.084488   0.126519   0.028728   0.155741
   54  O  7  X   -0.012860  -0.034947  -0.001020   0.044555  -0.181046
   55  O  7  Y   -0.007429   0.001518   0.044156  -0.030778   0.056914
   56  O  7  Z   -0.042054   0.017293   0.136647   0.088149  -0.135672
   57  O  8  S    0.050073   0.040486  -0.012665   0.046795   0.024685
   58  O  8  S   -0.042762  -0.032847   0.013656  -0.044861  -0.023531
   59  O  8  X    0.052304   0.114934   0.030955  -0.076116  -0.003392
   60  O  8  Y   -0.016713  -0.066850  -0.057150   0.001993   0.042932
   61  O  8  Z   -0.010144  -0.015547  -0.028237   0.068652   0.047092
   62  O  8  S   -0.195007  -0.177932   0.038895  -0.182279  -0.097743
   63  O  8  X    0.039581   0.107494   0.032867  -0.091212  -0.006014
   64  O  8  Y   -0.009545  -0.063610  -0.058725   0.007115   0.045930
   65  O  8  Z   -0.020934  -0.031391  -0.030896   0.068599   0.046872
   66  H  9  S    0.008215   0.030959   0.045070  -0.110957  -0.041720
   67  H  9  S    0.002269   0.016136   0.026468  -0.067203  -0.019722
   68  H 10  S   -0.002235   0.025469   0.043578  -0.089454   0.023080
   69  H 10  S   -0.011076   0.020245   0.037337  -0.055995   0.025638
   70  C 11  S   -0.150106   0.055095   0.092556   0.039141   0.002342
   71  C 11  S    0.141781  -0.045425  -0.083391  -0.032669  -0.004844
   72  C 11  X    0.016867  -0.145132   0.065368  -0.006174  -0.145598
   73  C 11  Y   -0.079733  -0.023621  -0.081208  -0.087435   0.069491
   74  C 11  Z   -0.037721  -0.018587   0.034051   0.050986  -0.069356
   75  C 11  S    0.438064  -0.213501  -0.363201  -0.174872   0.023966
   76  C 11  X    0.032836  -0.033258   0.007780   0.008406  -0.085257
   77  C 11  Y   -0.061085   0.007062  -0.007875  -0.047910   0.059413
   78  C 11  Z   -0.011153  -0.016389   0.040793   0.046698  -0.044922
   79  C 12  S   -0.072704   0.102426  -0.112268  -0.010925  -0.007112
   80  C 12  S    0.093369  -0.115945   0.125230   0.012222   0.011202
   81  C 12  X   -0.086272   0.050312   0.073104  -0.012625   0.187135
   82  C 12  Y    0.017507  -0.019583  -0.102489  -0.022689  -0.154716
   83  C 12  Z   -0.078967   0.085058  -0.081975  -0.002386  -0.042370
   84  C 12  S    0.122033  -0.280621   0.379552   0.040188   0.028113
   85  C 12  X   -0.001149   0.035077  -0.000751  -0.017772   0.146623
   86  C 12  Y   -0.013989  -0.002659  -0.064999  -0.009887  -0.141266
   87  C 12  Z   -0.032117   0.074783  -0.114930  -0.000149  -0.078747
   88  P 13  S   -0.004957  -0.015528  -0.016426   0.037035   0.011974
   89  P 13  S    0.026233   0.081345   0.085913  -0.193693  -0.063188
   90  P 13  X    0.011020   0.013281  -0.002715   0.017813   0.000648
   91  P 13  Y   -0.004850   0.003862   0.019415  -0.037927  -0.002315
   92  P 13  Z   -0.019737  -0.034524  -0.013964   0.025950   0.013375
   93  P 13  S   -0.030894  -0.116187  -0.133143   0.303561   0.096031
   94  P 13  X   -0.015631  -0.021663   0.004529  -0.034356  -0.003416
   95  P 13  Y    0.007945  -0.007884  -0.036718   0.071228   0.003403
   96  P 13  Z    0.032523   0.061115   0.025383  -0.047655  -0.025008
   97  P 13  S   -0.028258  -0.060928  -0.053394   0.115924   0.044285
   98  P 13  X   -0.013978  -0.011285  -0.001832   0.003156   0.027971
   99  P 13  Y    0.003084   0.000196  -0.009588   0.002365   0.002144
  100  P 13  Z    0.007230   0.014123   0.004748   0.001283   0.000541
  101  H 14  S    0.057313   0.093614   0.033778   0.089721  -0.001560
  102  H 14  S   -0.008506   0.007952   0.020113   0.021300  -0.012310
  103  H 15  S    0.064769   0.100955   0.042242   0.050799  -0.013422
  104  H 15  S   -0.000637   0.031130   0.023357   0.021029   0.001071
  105  H 16  S    0.079341  -0.044542  -0.092829  -0.073873   0.035528
  106  H 16  S   -0.005160  -0.013517  -0.032654  -0.032166   0.018317
  107  H 17  S    0.049805  -0.084168   0.165854   0.015657   0.112768
  108  H 17  S   -0.000980  -0.015953   0.068885   0.012979   0.038441

                     26         27         28         29         30
                   -0.7416    -0.7088    -0.6912    -0.6742    -0.6544
                     A          A          A          A          A   
    1  C  1  S    0.004714   0.002047  -0.012382   0.013622   0.007005
    2  C  1  S   -0.005698  -0.001299   0.012608  -0.005535  -0.006680
    3  C  1  X   -0.007046   0.095611  -0.016995   0.107982  -0.100735
    4  C  1  Y   -0.001602  -0.061821  -0.106861   0.162481  -0.062158
    5  C  1  Z    0.207849   0.007216  -0.064806  -0.014991   0.096076
    6  C  1  S   -0.019630  -0.007562   0.066224  -0.107295  -0.021643
    7  C  1  X   -0.029168   0.065262   0.002122   0.070319  -0.094383
    8  C  1  Y    0.005413  -0.052507  -0.084270   0.114353  -0.048910
    9  C  1  Z    0.163867  -0.000053  -0.066883  -0.056703   0.077798
   10  H  2  S   -0.065329   0.045849  -0.067000   0.022129  -0.043930
   11  H  2  S   -0.059853   0.074247  -0.072228   0.016708  -0.028264
   12  O  3  S    0.010623   0.004033  -0.011769  -0.041917  -0.030507
   13  O  3  S   -0.007905  -0.002960   0.010258   0.035156   0.027329
   14  O  3  X    0.041075   0.012663  -0.027690  -0.032900  -0.012755
   15  O  3  Y   -0.011589  -0.024243  -0.040153  -0.043929  -0.073137
   16  O  3  Z   -0.024640  -0.036181  -0.013417   0.063709   0.028772
   17  O  3  S   -0.048381  -0.019509   0.050355   0.187156   0.132627
   18  O  3  X    0.038640   0.008244  -0.026647  -0.037685  -0.002045
   19  O  3  Y   -0.016982  -0.023400  -0.037045  -0.034814  -0.075452
   20  O  3  Z   -0.020843  -0.032428  -0.013029   0.059945   0.026863
   21  O  4  S    0.022441  -0.055389   0.042007   0.000445  -0.038581
   22  O  4  S   -0.020430   0.051188  -0.038743  -0.001303   0.036868
   23  O  4  X   -0.079147   0.060640  -0.097615  -0.054303   0.120352
   24  O  4  Y   -0.007357   0.045768   0.017604  -0.045518  -0.005920
   25  O  4  Z   -0.057803   0.214033  -0.185368   0.030593   0.187296
   26  O  4  S   -0.094022   0.234378  -0.175937   0.002812   0.156962
   27  O  4  X   -0.074147   0.059620  -0.090354  -0.059525   0.120164
   28  O  4  Y   -0.012364   0.044201   0.014250  -0.051603  -0.000447
   29  O  4  Z   -0.053782   0.208746  -0.187477   0.032063   0.196956
   30  O  5  S   -0.002553  -0.000541  -0.010985  -0.023753  -0.017800
   31  O  5  S    0.002462  -0.001641   0.006151   0.022336   0.020055
   32  O  5  X   -0.085852   0.049576   0.197737   0.123556   0.075686
   33  O  5  Y   -0.055846  -0.042407   0.045183   0.105927   0.069042
   34  O  5  Z   -0.037507  -0.051455  -0.028534  -0.032564  -0.039177
   35  O  5  S    0.011696   0.010173   0.058390   0.100176   0.062524
   36  O  5  X   -0.084973   0.057459   0.213681   0.130202   0.072065
   37  O  5  Y   -0.058806  -0.050067   0.043025   0.110036   0.080227
   38  O  5  Z   -0.039110  -0.055014  -0.027865  -0.036663  -0.049104
   39  O  6  S    0.010482   0.013395  -0.003966  -0.001774  -0.042067
   40  O  6  S   -0.010547  -0.010460   0.007949   0.007732   0.042105
   41  O  6  X    0.116210   0.185716   0.120690   0.029799  -0.071369
   42  O  6  Y    0.017798   0.064360   0.107303   0.056506   0.120438
   43  O  6  Z    0.008568   0.007181   0.009380  -0.019605   0.001230
   44  O  6  S   -0.040466  -0.060642   0.005930  -0.014890   0.173874
   45  O  6  X    0.125831   0.195689   0.121194   0.041264  -0.083794
   46  O  6  Y    0.018520   0.070817   0.119914   0.075931   0.138949
   47  O  6  Z    0.007999   0.009820   0.011498  -0.018528   0.004146
   48  O  7  S    0.012812  -0.001142  -0.009125   0.005249   0.008683
   49  O  7  S   -0.013024   0.004519   0.007778  -0.002775  -0.010058
   50  O  7  X   -0.093465  -0.039141  -0.037248  -0.096689   0.082149
   51  O  7  Y   -0.097908   0.086124   0.072253  -0.112474  -0.090854
   52  O  7  Z   -0.075744   0.123493  -0.103975   0.093711  -0.147002
   53  O  7  S   -0.051374  -0.002157   0.041045  -0.031956  -0.036779
   54  O  7  X   -0.101862  -0.056203  -0.037932  -0.103932   0.099297
   55  O  7  Y   -0.092811   0.096971   0.078978  -0.107867  -0.106775
   56  O  7  Z   -0.076089   0.120361  -0.100194   0.103199  -0.171248
   57  O  8  S    0.018784   0.007521  -0.000154  -0.026393  -0.014692
   58  O  8  S   -0.022268  -0.007059   0.004886   0.029848   0.014595
   59  O  8  X   -0.078950  -0.152447  -0.057699   0.072777  -0.027644
   60  O  8  Y    0.029609   0.036903  -0.075734   0.133099  -0.110762
   61  O  8  Z    0.132857   0.036846  -0.067293  -0.098496  -0.040696
   62  O  8  S   -0.068167  -0.028226  -0.013459   0.098399   0.056638
   63  O  8  X   -0.084093  -0.167925  -0.060929   0.080942  -0.022008
   64  O  8  Y    0.034181   0.042000  -0.078405   0.139401  -0.123428
   65  O  8  Z    0.140372   0.040117  -0.078576  -0.114813  -0.052528
   66  H  9  S    0.057800  -0.017257  -0.116593  -0.096774  -0.059734
   67  H  9  S    0.046778  -0.006526  -0.087530  -0.066259  -0.060932
   68  H 10  S    0.064244   0.113026   0.087936   0.027229  -0.030619
   69  H 10  S    0.031908   0.082204   0.076646   0.008823  -0.027731
   70  C 11  S   -0.002194  -0.012271   0.008334  -0.005479  -0.004340
   71  C 11  S    0.002696   0.008936  -0.005928  -0.000137   0.004738
   72  C 11  X   -0.042413   0.060194   0.045957  -0.110041   0.024753
   73  C 11  Y   -0.068662  -0.072795   0.068425  -0.172170   0.068073
   74  C 11  Z    0.154947  -0.113239   0.018442   0.046764   0.150402
   75  C 11  S   -0.011662   0.071539  -0.042595   0.025187   0.024665
   76  C 11  X   -0.043931   0.052807   0.027333  -0.130703   0.045279
   77  C 11  Y   -0.067446  -0.055442   0.073566  -0.158399   0.014982
   78  C 11  Z    0.128111  -0.090117   0.019252   0.073341   0.100193
   79  C 12  S   -0.014784   0.029952  -0.018103  -0.002861   0.010375
   80  C 12  S    0.022841  -0.046333   0.033637   0.002680  -0.024327
   81  C 12  X   -0.061717  -0.076710   0.006425  -0.056804  -0.018178
   82  C 12  Y    0.028575  -0.013850   0.095834  -0.060013  -0.057579
   83  C 12  Z    0.086103  -0.155551   0.160222   0.022542  -0.170075
   84  C 12  S    0.021281  -0.054509   0.005071   0.014008   0.017968
   85  C 12  X   -0.053813  -0.016344  -0.032934  -0.044758   0.032602
   86  C 12  Y    0.014969  -0.008003   0.066600  -0.046089  -0.045358
   87  C 12  Z    0.033733  -0.037383   0.046872   0.009443  -0.046395
   88  P 13  S   -0.000718   0.002249  -0.004181  -0.013130  -0.016299
   89  P 13  S    0.003769  -0.012433   0.021722   0.068334   0.086331
   90  P 13  X   -0.063340  -0.018781   0.063471   0.044489   0.038802
   91  P 13  Y    0.043774   0.059166   0.034260  -0.030539   0.000827
   92  P 13  Z    0.024150   0.062900   0.055618   0.025899   0.032148
   93  P 13  S   -0.005643   0.012603  -0.040040  -0.122328  -0.138543
   94  P 13  X    0.120741   0.032668  -0.126187  -0.089935  -0.073040
   95  P 13  Y   -0.086558  -0.115690  -0.065986   0.063282   0.000920
   96  P 13  Z   -0.044781  -0.121713  -0.109163  -0.055470  -0.064880
   97  P 13  S   -0.004194   0.020883  -0.006601  -0.023419  -0.057802
   98  P 13  X    0.057169   0.041482  -0.028704  -0.007275  -0.068496
   99  P 13  Y   -0.027668  -0.046898  -0.030991   0.058240   0.002929
  100  P 13  Z   -0.003683  -0.046484  -0.052555  -0.024315  -0.037587
  101  H 14  S    0.096985   0.015106   0.016657  -0.087106   0.075073
  102  H 14  S    0.053119   0.006552   0.013543  -0.034469   0.069844
  103  H 15  S   -0.098863   0.035419   0.076262  -0.043656  -0.049882
  104  H 15  S   -0.057803   0.020770   0.041746  -0.041564  -0.031212
  105  H 16  S   -0.098403   0.048287   0.012050  -0.090513  -0.052086
  106  H 16  S   -0.052050   0.024937   0.008048  -0.045510  -0.034025
  107  H 17  S   -0.043048   0.015182  -0.076819   0.000697   0.075764
  108  H 17  S   -0.034762   0.021092  -0.060373  -0.004041   0.064728

                     31         32         33         34         35
                   -0.6289    -0.6233    -0.6062    -0.5660    -0.5615
                     A          A          A          A          A   
    1  C  1  S   -0.010854  -0.005753  -0.006750   0.003989  -0.012291
    2  C  1  S    0.008689   0.006321   0.005103  -0.005625   0.007440
    3  C  1  X   -0.124793   0.126181   0.051531  -0.016082   0.034222
    4  C  1  Y    0.082487  -0.125638   0.081360  -0.014965  -0.025265
    5  C  1  Z    0.132428  -0.008580   0.083562   0.133135   0.076319
    6  C  1  S    0.037697   0.033163   0.017797   0.004496   0.064778
    7  C  1  X   -0.094152   0.114524   0.014827  -0.027741   0.043968
    8  C  1  Y    0.082249  -0.088330   0.060674  -0.010977  -0.012244
    9  C  1  Z    0.166761  -0.047488   0.069783   0.115938   0.056731
   10  H  2  S    0.068219   0.009419   0.103602  -0.042282  -0.025741
   11  H  2  S    0.062739  -0.011599   0.050360  -0.010663  -0.010858
   12  O  3  S   -0.021783  -0.051362   0.004669  -0.015946  -0.021709
   13  O  3  S    0.016207   0.042481  -0.002917   0.015334   0.020494
   14  O  3  X    0.058895   0.059636  -0.047653  -0.043324  -0.065919
   15  O  3  Y   -0.043316  -0.097408  -0.045520  -0.048224  -0.065254
   16  O  3  Z    0.040945   0.088393  -0.066354   0.040854   0.047666
   17  O  3  S    0.109944   0.239438  -0.025576   0.069613   0.094500
   18  O  3  X    0.068984   0.064120  -0.045384  -0.042591  -0.079730
   19  O  3  Y   -0.044086  -0.090002  -0.053268  -0.056459  -0.071594
   20  O  3  Z    0.033392   0.086484  -0.070568   0.040048   0.047759
   21  O  4  S    0.010132   0.009391   0.017930  -0.002827  -0.002539
   22  O  4  S   -0.009117  -0.008626  -0.015756   0.001864   0.001687
   23  O  4  X    0.008816   0.025100   0.058105  -0.166873   0.122339
   24  O  4  Y    0.073567  -0.061689  -0.117343  -0.110416   0.255813
   25  O  4  Z   -0.060265  -0.076000  -0.123526   0.071985  -0.071466
   26  O  4  S   -0.048174  -0.039467  -0.084559   0.021346   0.016118
   27  O  4  X    0.011660   0.023402   0.050117  -0.177215   0.144278
   28  O  4  Y    0.080854  -0.062493  -0.116607  -0.132420   0.284033
   29  O  4  Z   -0.063079  -0.080143  -0.127031   0.075198  -0.083952
   30  O  5  S   -0.046626  -0.025347   0.028868   0.019494   0.033083
   31  O  5  S    0.042316   0.035490  -0.026221  -0.015534  -0.030739
   32  O  5  X    0.063169  -0.107925   0.044394  -0.040683  -0.009623
   33  O  5  Y    0.176139   0.060745  -0.160002   0.020668  -0.075259
   34  O  5  Z   -0.090586  -0.165982   0.026392   0.156437   0.168580
   35  O  5  S    0.211814   0.075938  -0.136040  -0.100802  -0.154187
   36  O  5  X    0.073302  -0.134190   0.043839  -0.055548  -0.015821
   37  O  5  Y    0.198100   0.079138  -0.180559   0.029811  -0.085987
   38  O  5  Z   -0.094211  -0.203558   0.026468   0.178242   0.197280
   39  O  6  S    0.007809  -0.009290  -0.049164  -0.011372  -0.003529
   40  O  6  S   -0.003351   0.009381   0.045476   0.016306   0.006037
   41  O  6  X    0.038403  -0.083645  -0.056443  -0.127453  -0.045799
   42  O  6  Y    0.003178  -0.020559   0.180611   0.063201   0.056091
   43  O  6  Z   -0.036052  -0.121049   0.023557  -0.033403  -0.103469
   44  O  6  S   -0.048761   0.034451   0.224074   0.028724   0.004743
   45  O  6  X    0.041177  -0.088515  -0.067943  -0.153980  -0.047343
   46  O  6  Y    0.017564  -0.014369   0.198759   0.073710   0.066183
   47  O  6  Z   -0.040755  -0.132643   0.025443  -0.046508  -0.129885
   48  O  7  S    0.010857  -0.003822   0.023646  -0.030475  -0.011429
   49  O  7  S   -0.009071   0.002654  -0.022221   0.035191   0.012965
   50  O  7  X    0.053620   0.075346   0.152750  -0.069601  -0.099053
   51  O  7  Y    0.083568   0.016859  -0.075739   0.272492   0.015454
   52  O  7  Z    0.113476  -0.026019   0.115468  -0.018829   0.008940
[...]
   15             0.000936   0.000248   0.000713  -0.000278  -0.000268
   16            -0.000198  -0.002010   0.000107   0.000023   0.000043
   17            -0.000522  -0.001509  -0.000096   0.000000  -0.000002

                     21         22         23         24         25

                  2.000000   2.000000   2.000000   2.000000   2.000000

    1             0.440303   0.643511   0.083444   0.226891   0.030170
    2             0.027837   0.001888   0.027348   0.028013   0.121958
    3             0.002263   0.008953   0.012398   0.091155   0.011167
    4             0.055353   0.113993   0.211284   0.006176   0.321835
    5             0.002572   0.028481   0.055879   0.345511   0.045667
    6             0.005286   0.017477   0.051636   0.261385   0.040331
    7             0.161738   0.033228   0.216374   0.098341   0.482799
    8             0.099446   0.222721   0.052090   0.155718   0.051290
    9             0.000512   0.007536   0.015161   0.091771   0.011359
   10             0.001043   0.007429   0.018752   0.067043   0.010560
   11             0.857028   0.220890   0.299841   0.138970   0.224865
   12             0.239446   0.398304   0.567571   0.012020   0.502355
   13             0.016740   0.081820   0.072852   0.348707   0.041554
   14             0.015186   0.062103   0.011572   0.057474   0.000100
   15             0.025527   0.085303   0.017323   0.021651   0.000940
   16             0.035673   0.016436   0.067990   0.046619   0.011040
   17             0.014046   0.049928   0.218485   0.002553   0.092010

                     26         27         28         29         30

                  2.000000   2.000000   2.000000   2.000000   2.000000

    1             0.387019   0.094796   0.136479   0.282882   0.179891
    2             0.033215   0.030670   0.038665   0.003678   0.012572
    3             0.024419   0.017164   0.025060   0.108106   0.081930
    4             0.086984   0.464142   0.366289   0.051786   0.387037
    5             0.098749   0.060676   0.342496   0.233171   0.103868
    6             0.126832   0.328560   0.214658   0.041555   0.222736
    7             0.198164   0.196434   0.135073   0.236693   0.303426
    8             0.233768   0.221106   0.113551   0.290904   0.122831
    9             0.025910   0.001714   0.098777   0.065764   0.029934
   10             0.030655   0.106320   0.064513   0.004681   0.012438
   11             0.276832   0.165519   0.057844   0.369163   0.165240
   12             0.078052   0.119338   0.154987   0.066480   0.125045
   13             0.136896   0.157940   0.151006   0.112263   0.109953
   14             0.079352   0.001919   0.002487   0.053627   0.053113
   15             0.082853   0.011054   0.045777   0.018434   0.018686
   16             0.082125   0.018876   0.001175   0.060780   0.022269
   17             0.018175   0.003770   0.051162   0.000034   0.049033

                     31         32         33         34         35

                  2.000000   2.000000   2.000000   2.000000   2.000000

    1             0.323683   0.216284   0.099412   0.118015   0.049138
    2             0.036810   0.001038   0.056656   0.008487   0.003240
    3             0.075993   0.247581   0.073620   0.055695   0.106450
    4             0.075651   0.071527   0.220339   0.352544   0.684625
    5             0.403808   0.389166   0.245692   0.211130   0.293733
    6             0.023817   0.172248   0.364484   0.172685   0.126065
    7             0.167238   0.052331   0.345126   0.609723   0.074613
    8             0.373824   0.394959   0.042001   0.018148   0.170038
    9             0.061412   0.003597   0.005198   0.005274   0.015747
   10             0.001464   0.035665   0.006475   0.007860   0.001609
   11             0.130206   0.011337   0.131731   0.050871   0.015559
   12             0.059709   0.042475   0.153178   0.214015   0.354648
   13             0.066814   0.274912   0.179211   0.058847   0.068329
   14             0.034923   0.020265   0.001288   0.052935   0.022480
   15             0.110455   0.059555   0.033821   0.049870   0.001891
   16             0.054241   0.004221   0.040292   0.007942   0.011767
   17            -0.000048   0.002839   0.001476   0.005957   0.000070

                     36         37         38         39         40

                  2.000000   2.000000   2.000000   2.000000   2.000000

    1             0.045904   0.086860   0.073058   0.103290   0.038911
    2             0.001630   0.009989   0.000617   0.003080   0.014459
    3             0.022371   0.060266   0.049893   0.232446   0.026111
    4             0.073724   0.130880   0.031420   0.053206   0.741278
    5             0.126283   0.633716   0.567656   0.452322   0.026316
    6             0.551857   0.413645   0.480556   0.493230   0.163293
    7             0.501845   0.232884   0.388699   0.131379   0.236422
    8             0.441753   0.238341   0.294341   0.209828   0.123566
    9             0.003035   0.001563   0.002311   0.003055  -0.000056
   10             0.006375   0.031556   0.000625   0.002464  -0.000014
   11             0.070108   0.019085   0.020396   0.046272   0.261140
   12             0.036676   0.018744   0.004911   0.006735   0.075044
   13             0.035244   0.057835   0.019696   0.119036   0.012890
   14             0.012636   0.055109   0.019658   0.055606   0.018016
   15             0.018494   0.002805   0.019461   0.031521   0.029147
   16             0.030169   0.003759   0.024911   0.054822   0.080467
   17             0.021897   0.002963   0.001792   0.001709   0.153011

                     41         42         43         44

                  2.000000   2.000000   2.000000   2.000000

    1             0.061347   0.153858   0.009890   0.012091
    2             0.002422   0.010737   0.000137   0.000095
    3             0.602886   0.041358   1.586675   1.541879
    4             0.053461   0.314610   0.001875   0.003897
    5             0.110050   0.037371   0.083098   0.141925
    6             0.434263   0.159911   0.052711   0.165859
    7             0.014285   0.210799   0.008311   0.009763
    8             0.433600   0.582166   0.160113   0.045637
    9             0.000319  -0.000304  -0.000075  -0.000447
   10            -0.000059   0.001127   0.000637  -0.001796
   11             0.024407   0.259313   0.004529   0.008537
   12             0.006916   0.071707   0.000539   0.001363
   13             0.141512   0.024794   0.074461   0.066180
   14             0.060318   0.015800   0.012540   0.002866
   15             0.023366   0.044791   0.001235   0.000089
   16             0.020637   0.011860   0.003030   0.001584
   17             0.010268   0.060103   0.000295   0.000478

               ----- POPULATIONS IN EACH AO -----
                             MULLIKEN      LOWDIN
              1  C  1  S      1.98862     1.97579
              2  C  1  S      0.35808     0.42530
              3  C  1  X      0.43311     0.42611
              4  C  1  Y      0.52449     0.49911
              5  C  1  Z      0.58697     0.55304
              6  C  1  S      1.03948     0.57738
              7  C  1  X      0.26027     0.43325
              8  C  1  Y      0.37542     0.51754
              9  C  1  Z      0.55989     0.57622
             10  H  2  S      0.37468     0.39388
             11  H  2  S      0.18198     0.31887
             12  O  3  S      1.98657     1.98252
             13  O  3  S      0.42259     0.60421
             14  O  3  X      0.73571     0.74082
             15  O  3  Y      0.62144     0.61985
             16  O  3  Z      0.65517     0.65577
             17  O  3  S      1.56458     1.17884
             18  O  3  X      1.02743     1.04486
             19  O  3  Y      0.88726     0.93073
             20  O  3  Z      0.92310     0.95954
             21  O  4  S      1.98705     1.98184
             22  O  4  S      0.43371     0.59065
             23  O  4  X      0.73298     0.73265
             24  O  4  Y      0.66324     0.65978
             25  O  4  Z      0.65168     0.63990
             26  O  4  S      1.55231     1.05607
             27  O  4  X      0.88685     0.90371
             28  O  4  Y      0.84665     0.85773
             29  O  4  Z      0.76397     0.81069
             30  O  5  S      1.98569     1.98052
             31  O  5  S      0.41310     0.57587
             32  O  5  X      0.57473     0.56439
             33  O  5  Y      0.74452     0.74517
             34  O  5  Z      0.75970     0.76750
             35  O  5  S      1.51018     1.08483
             36  O  5  X      0.81063     0.82314
             37  O  5  Y      0.98868     0.98667
             38  O  5  Z      1.03006     1.02514
             39  O  6  S      1.98590     1.98062
             40  O  6  S      0.41090     0.57829
             41  O  6  X      0.64772     0.63968
             42  O  6  Y      0.62672     0.62906
             43  O  6  Z      0.80358     0.81263
             44  O  6  S      1.52254     1.08718
             45  O  6  X      0.88639     0.86936
             46  O  6  Y      0.91574     0.93714
             47  O  6  Z      1.06180     1.06185
             48  O  7  S      1.98587     1.97979
             49  O  7  S      0.40810     0.56383
             50  O  7  X      0.74243     0.74665
             51  O  7  Y      0.76372     0.77049
             52  O  7  Z      0.58868     0.57381
             53  O  7  S      1.50591     1.02277
             54  O  7  X      0.98065     0.95458
             55  O  7  Y      0.98269     0.99076
             56  O  7  Z      0.76685     0.79057
             57  O  8  S      1.98615     1.98081
             58  O  8  S      0.40981     0.57775
             59  O  8  X      0.60469     0.60268
             60  O  8  Y      0.76645     0.77171
             61  O  8  Z      0.68984     0.69711
             62  O  8  S      1.52564     1.06798
             63  O  8  X      0.84149     0.85567
             64  O  8  Y      0.98649     0.99337
             65  O  8  Z      0.96653     0.97348
             66  H  9  S      0.39063     0.40319
             67  H  9  S      0.17743     0.29871
             68  H 10  S      0.34487     0.35938
             69  H 10  S      0.17334     0.33670
             70  C 11  S      1.98989     1.97572
             71  C 11  S      0.35100     0.42704
             72  C 11  X      0.55113     0.53353
             73  C 11  Y      0.51546     0.49661
             74  C 11  Z      0.50142     0.48300
             75  C 11  S      1.06021     0.56505
             76  C 11  X      0.32107     0.51037
             77  C 11  Y      0.38962     0.51015
             78  C 11  Z      0.38557     0.48493
             79  C 12  S      1.98739     1.97724
             80  C 12  S      0.42365     0.44769
             81  C 12  X      0.51069     0.49032
             82  C 12  Y      0.43593     0.41498
             83  C 12  Z      0.57294     0.55080
             84  C 12  S      0.76654     0.56844
             85  C 12  X      0.33512     0.47048
             86  C 12  Y      0.44249     0.48520
             87  C 12  Z      0.20016     0.42509
             88  P 13  S      1.99833     1.99804
             89  P 13  S      1.96174     1.93641
             90  P 13  X      1.95362     1.92611
             91  P 13  Y      1.95639     1.93051
             92  P 13  Z      1.95558     1.92814
             93  P 13  S      0.86997     0.68954
             94  P 13  X      0.50431     0.50126
             95  P 13  Y      0.57676     0.55115
             96  P 13  Z      0.53421     0.51756
             97  P 13  S      0.15941     0.42959
             98  P 13  X      0.21287     0.35360
             99  P 13  Y      0.14409     0.36203
            100  P 13  Z      0.18455     0.37533
            101  H 14  S      0.46554     0.47317
            102  H 14  S      0.26416     0.41398
            103  H 15  S      0.47564     0.47820
            104  H 15  S      0.28207     0.42077
            105  H 16  S      0.46495     0.47481
            106  H 16  S      0.24891     0.40593
            107  H 17  S      0.47450     0.47230
            108  H 17  S      0.28001     0.43742

          ----- MULLIKEN ATOMIC OVERLAP POPULATIONS -----
          (OFF-DIAGONAL ELEMENTS NEED TO BE MULTIPLIED BY 2)

             1           2           3           4           5

    1    5.2713899
    2    0.0044584   0.3358968
    3   -0.0072688   0.0000071   8.4765391
    4    0.0003845   0.0392253  -0.0000000   8.1353321
    5    0.0001642   0.0000000  -0.0152400  -0.0000000   8.4051771
    6   -0.0004171   0.0003902  -0.0132427  -0.0000000  -0.0174767
    7   -0.0419630   0.2517484  -0.0001075  -0.0083754  -0.0000001
    8    0.2192886  -0.0000546  -0.0158930  -0.0000006  -0.0143056
    9   -0.0000404  -0.0000000  -0.0007080  -0.0000000   0.2598313
   10    0.0006653  -0.0016270  -0.0010892  -0.0000011   0.0002159
   11    0.1497105  -0.0677372  -0.0001318  -0.0752900  -0.0000105
   12   -0.0663773  -0.0105458  -0.0000041   0.4704956   0.0000000
   13   -0.0588110  -0.0002180   0.3825643  -0.0000135   0.1989242
   14    0.3379015   0.0003417   0.0183690   0.0003453   0.0000194
   15    0.3628236  -0.0000733   0.0000513  -0.0000091  -0.0000076
   16   -0.0495316   0.0032101  -0.0000017   0.0008157  -0.0000001
   17    0.0039444   0.0016391  -0.0000000  -0.0444616  -0.0000000

             6           7           8           9          10

    6    8.4775753
    7   -0.0157741   8.3242530
    8   -0.0177520  -0.0003857   8.5306850
    9    0.0003347   0.0000002   0.0001111   0.3294629
   10    0.2330006   0.0534257   0.0008603  -0.0000072   0.2682242
   11    0.0012358   0.2030048  -0.0397423  -0.0000003  -0.0036141
   12   -0.0000107  -0.0310452   0.0015290   0.0000000   0.0003972
   13    0.2135410   0.0141696   0.1679257  -0.0209302  -0.0316500
   14   -0.0001179   0.0007790  -0.0305081  -0.0000000  -0.0001970
   15   -0.0000223   0.0013679  -0.0250065   0.0000023  -0.0000199
   16    0.0000208  -0.0274814   0.0003587   0.0000000  -0.0003726
   17    0.0000000   0.0012999  -0.0000176  -0.0000000  -0.0000052

            11          12          13          14          15

   11    5.6192370
   12    0.1138904   4.8825646
   13   -0.0068273   0.0001376  12.1557085
   14   -0.0502021   0.0029228  -0.0059793   0.4737047
   15   -0.0529593   0.0028016   0.0029435  -0.0207210   0.4850724
   16    0.3606234  -0.0352138   0.0003549   0.0028302   0.0003547
   17   -0.0858160   0.3433660  -0.0000085   0.0002063   0.0011173

            16          17

   16    0.4558366
   17    0.0020486   0.5311925

          TOTAL MULLIKEN AND LOWDIN ATOMIC POPULATIONS
       ATOM         MULL.POP.    CHARGE          LOW.POP.     CHARGE
    1 C             6.126322   -0.126322         5.983728    0.016272
    2 H             0.556661    0.443339         0.712751    0.287249
    3 O             8.823844   -0.823844         8.717145   -0.717145
    4 O             8.518447   -0.518447         8.233035   -0.233035
    5 O             8.817291   -0.817291         8.553223   -0.553223
    6 O             8.861285   -0.861285         8.595827   -0.595827
    7 O             8.724916   -0.724916         8.393250   -0.393250
    8 O             8.777093   -0.777093         8.520568   -0.520568
    9 H             0.568057    0.431943         0.701897    0.298103
   10 H             0.518206    0.481794         0.696075    0.303925
   11 C             6.065371   -0.065371         5.986398    0.013602
   12 C             5.674908    0.325092         5.830235    0.169765
   13 P            13.011831    1.988169        13.499289    1.500711
   14 H             0.729695    0.270305         0.887154    0.112846
   15 H             0.757716    0.242284         0.898975    0.101025
   16 H             0.713853    0.286147         0.880730    0.119270
   17 H             0.754505    0.245495         0.909720    0.090280

          -------------------------------
          BOND ORDER AND VALENCE ANALYSIS     BOND ORDER THRESHOLD=0.050
          -------------------------------

                   BOND                       BOND                       BOND
  ATOM PAIR DIST  ORDER      ATOM PAIR DIST  ORDER      ATOM PAIR DIST  ORDER
    1   8  1.465  0.847        1  11  1.544  0.841        1  14  1.096  0.863
    1  15  1.092  0.894        2   4  1.926  0.074        2   7  1.006  0.710
    3   5  2.728  0.064        3   6  2.770  0.062        3   8  2.697  0.058
    3  13  1.555  1.460        4  12  1.236  1.808        5   9  0.994  0.774
    5  13  1.662  0.795        6  10  1.025  0.640        6  13  1.644  0.879
    7  10  1.644  0.116        7  11  1.456  0.819        8  13  1.702  0.691
   11  12  1.517  0.841       11  16  1.096  0.862       12  17  1.098  0.845

                       TOTAL       BONDED        FREE
      ATOM            VALENCE     VALENCE     VALENCE
    1 C                 3.443       3.443      -0.000
    2 H                 0.798       0.798      -0.000
    3 O                 1.677       1.677      -0.000
    4 O                 1.963       1.963       0.000
    5 O                 1.683       1.683      -0.000
    6 O                 1.664       1.664       0.000
    7 O                 1.759       1.759      -0.000
    8 O                 1.694       1.694      -0.000
    9 H                 0.795       0.795       0.000
   10 H                 0.773       0.773       0.000
   11 C                 3.381       3.381      -0.000
   12 C                 3.500       3.500      -0.000
   13 P                 3.880       3.880       0.000
   14 H                 0.901       0.901      -0.000
   15 H                 0.901       0.901       0.000
   16 H                 0.874       0.874      -0.000
   17 H                 0.886       0.886      -0.000

          ---------------------
          ELECTROSTATIC MOMENTS
          ---------------------

 POINT   1           X           Y           Z (BOHR)    CHARGE
                -0.144120    0.184310    0.373661       -0.00 (A.U.)
         DX          DY          DZ         /D/  (DEBYE)
     4.037486   -2.098191   -2.699513    5.290659
 ...... END OF PROPERTY EVALUATION ......
 CPU     0: STEP CPU TIME=     0.03 TOTAL CPU TIME=          1.2 (      0.0 MIN)
 TOTAL WALL CLOCK TIME=          3.8 SECONDS, CPU UTILIZATION IS    31.66%
               580000  WORDS OF DYNAMIC MEMORY USED
 EXECUTION OF GAMESS TERMINATED NORMALLY Fri May 22 17:18:48 2020
 DDI: 263640 bytes (0.3 MB / 0 MWords) used by master data server.
Note: The following floating-point exceptions are signalling: IEEE_DENORMALNote: The following floating-point exceptions are signalling: IEEE_DENORMALNote: The following floating-point exceptions are signalling: IEEE_DENORMALNote: The following floating-point exceptions are signalling: IEEE_DENORMAL
 ----------------------------------------
 CPU timing information for all processes
 ========================================
 0: 1.99 + 0.115 = 1.215
 1: 1.89 + 0.04 = 1.93
 2: 1.125 + 0.27 = 1.152
 3: 1.46 + 0.23 = 1.70
 4: 1.132 + 0.06 = 1.138
 5: 1.96 + 0.08 = 1.104
 6: 1.59 + 0.28 = 1.87
 7: 1.08 + 0.09 = 1.17
 ----------------------------------------

Note: The following floating-point exceptions are signalling:


Note: The following floating-point exceptions are signalling: IEEE_DENORMALNote: The following floating-point exceptions are signalling: IEEE_DENORMALNote: The following floating-point exceptions are signalling: IEEE_DENORMAL IEEE_DENORMAL



 ddikick.x: exited gracefully.
unset echo
----- accounting info -----
Files used on the master node pietdev were:
-rwxr-xr-x 1 piet piet     1053 mei 22 17:18 /home/piet/scr/GAP_fukui_neu.F05*
-rw-r--r-- 1 piet piet 49152000 mei 22 17:18 /home/piet/scr/GAP_fukui_neu.F10
ls: No match.
ls: No match.
ls: No match.
vr 22 mei 2020 17:18:51 CEST
0.116u 0.028s 0:07.02 1.8%	0+0k 0+8io 0pf+0w
