----- GAMESS execution script 'rungms' -----
This job is running on host pietdev
under operating system Linux at zo 17 mei 2020 13:16:04 CEST
Available scratch disk space (Kbyte units) at beginning of the job is
Filesystem     1K-blocks     Used Available Use% Mounted on
/dev/sda2      244568380 30358720 201716604  14% /
GAMESS temporary binary files will be written to /home/piet/scr
GAMESS supplementary output files will be written to /home/piet/gamess/scr
Copying input file glycine_fukui_base.inp to your run's scratch directory...
cp glycine_fukui_base.inp /home/piet/scr/glycine_fukui_base.F05
unset echo
 
Assuming a single but multicore node.
 
/home/piet/gamess/ddikick.x /home/piet/gamess/gamess.03.x glycine_fukui_base -ddi 1 6 pietdev:cpus=6 -scr /home/piet/scr

 Distributed Data Interface kickoff program.
 Initiating 6 compute processes on 1 nodes to run the following command:
 /home/piet/gamess/gamess.03.x glycine_fukui_base 

          ******************************************************
          *         GAMESS VERSION = 30 SEP 2019 (R2)          *
          *             FROM IOWA STATE UNIVERSITY             *
          * M.W.SCHMIDT, K.K.BALDRIDGE, J.A.BOATZ, S.T.ELBERT, *
          *   M.S.GORDON, J.H.JENSEN, S.KOSEKI, N.MATSUNAGA,   *
          *          K.A.NGUYEN, S.J.SU, T.L.WINDUS,           *
          *       TOGETHER WITH M.DUPUIS, J.A.MONTGOMERY       *
          *         J.COMPUT.CHEM.  14, 1347-1363(1993)        *
          **************** 64 BIT LINUX VERSION ****************

  SINCE 1993, STUDENTS AND POSTDOCS WORKING AT IOWA STATE UNIVERSITY
  AND ALSO IN THEIR VARIOUS JOBS AFTER LEAVING ISU HAVE MADE IMPORTANT
  CONTRIBUTIONS TO THE CODE:
     IVANA ADAMOVIC, CHRISTINE AIKENS, YURI ALEXEEV, POOJA ARORA,
     ANDREY ASADCHEV, ROB BELL, PRADIPTA BANDYOPADHYAY, JONATHAN BENTZ,
     COLLEEN BERTONI, BRETT BODE, KURT BRORSEN, CALEB CARLIN, GALINA CHABAN,
     WEI CHEN, CHEOL HO CHOI, PAUL DAY, ALBERT DEFUSCO, NUWAN DESILVA,
     TIM DUDLEY, DMITRI FEDOROV, ALEX FINDLATER, GRAHAM FLETCHER, 
     MARK FREITAG, KURT GLAESEMANN, EMILIE B GUIDEZ, ANASTASIA GUNINA, 
     DAN KEMP, SAROM SOK LEANG, GRANT MERRILL,
     NORIYUKI MINEZAWA, JONATHAN MULLIN,
     TAKESHI NAGATA, SEAN NEDD, HEATHER NETZLOFF, BOSILJKA NJEGIC, RYAN OLSON,
     MIKE PAK, BUU PHAM, DAVID POOLE,
     SPENCER PRUITT, LUKE ROSKOP, TOSAPORN SATTASATHUCHANA,
     JIM SHOEMAKER, LYUDMILA SLIPCHENKO,
     TONY SMITH, JIE SONG, TETSUYA TAKETSUGU, SIMON WEBB,
     JORGE LUIS GALVEZ VALLEJO, PENG XU, SOOHAENG YOO,
     FEDERICO ZAHARIEV

  ADDITIONAL CODE HAS BEEN PROVIDED BY COLLABORATORS IN OTHER GROUPS:
     IOWA STATE UNIVERSITY:
          JOE IVANIC, AARON WEST, LAIMUTIS BYTAUTAS, KLAUS RUEDENBERG
     UNIVERSITY OF TOKYO: KIMIHIKO HIRAO, TAKAHITO NAKAJIMA,
          TAKAO TSUNEDA, MUNEAKI KAMIYA, SUSUMU YANAGISAWA,
          KIYOSHI YAGI, MAHITO CHIBA, SEIKEN TOKURA, NAOAKI KAWAKAMI
     UNIVERSITY OF AARHUS: FRANK JENSEN
     UNIVERSITY OF IOWA: VISVALDAS KAIRYS, HUI LI
     NATIONAL INST. OF STANDARDS AND TECHNOLOGY: WALT STEVENS, DAVID GARMER
     UNIVERSITY OF PISA: BENEDETTA MENNUCCI, JACOPO TOMASI
     UNIVERSITY OF MEMPHIS: HENRY KURTZ, PRAKASHAN KORAMBATH
     UNIVERSITY OF ALBERTA: TOBY ZENG, MARIUSZ KLOBUKOWSKI
     UNIVERSITY OF NEW ENGLAND: MARK SPACKMAN
     MIE UNIVERSITY: HIROAKI UMEDA
     NAT. INST. OF ADVANCED INDUSTRIAL SCIENCE AND TECHNOLOGY: KAZUO KITAURA
     MICHIGAN STATE UNIVERSITY:
          KAROL KOWALSKI, MARTA WLOCH, JEFFREY GOUR, JESSE LUTZ,
          WEI LI, JUN SHEN, J. EMILIANO DEUSTUA, PIOTR PIECUCH
     UNIVERSITY OF MINNESOTA:
          ANDREW SAND, PRACHI SHARMA, YINAN SHU
     UNIVERSITY OF SILESIA: MONIKA MUSIAL, STANISLAW KUCHARSKI
     FACULTES UNIVERSITAIRES NOTRE-DAME DE LA PAIX:
          OLIVIER QUINET, BENOIT CHAMPAGNE
     UNIVERSITY OF CALIFORNIA - SANTA BARBARA: BERNARD KIRTMAN
     INSTITUTE FOR MOLECULAR SCIENCE:
          KAZUYA ISHIMURA, MICHIO KATOUDA, AND SHIGERU NAGASE
     UNIVERSITY OF NOTRE DAME: ANNA POMOGAEVA, DAN CHIPMAN
     KYUSHU UNIVERSITY:
          HARUYUKI NAKANO,
          FENG LONG GU, JACEK KORCHOWIEC, MARCIN MAKOWSKI, AND YURIKO AOKI,
          HIROTOSHI MORI AND EISAKU MIYOSHI
     PENNSYLVANIA STATE UNIVERSITY:
          TZVETELIN IORDANOV, CHET SWALINA, JONATHAN SKONE,
          SHARON HAMMES-SCHIFFER
     WASEDA UNIVERSITY:
          MASATO KOBAYASHI, TOMOKO AKAMA, TSUGUKI TOUMA,
          TAKESHI YOSHIKAWA, YASUHIRO IKABATA, JUNJI SEINO,
          YUYA NAKAJIMA, HIROMI NAKAI
     NANJING UNIVERSITY: SHUHUA LI
     UNIVERSITY OF NEBRASKA:
          PEIFENG SU, DEJUN SI, NANDUN THELLAMUREGE, YALI WANG, HUI LI
     UNIVERSITY OF ZURICH: ROBERTO PEVERATI, KIM BALDRIDGE
     N. COPERNICUS UNIVERSITY AND JACKSON STATE UNIVERSITY:
          MARIA BARYSZ
     UNIVERSITY OF COPENHAGEN: Jimmy Kromann, CASPER STEINMANN
     TOKYO INSTITUTE OF TECHNOLOGY: HIROYA NAKATA
     NAGOYA UNIVERSITY: YOSHIO NISHIMOTO, STEPHAN IRLE
     MOSCOW STATE UNIVERSITY: VLADIMIR MIRONOV
     A.N.NESMEYANOV INSTITUTE OF ORGANOELEMENT COMPOUNDS OF RUSSIAN ACADEMY OF SCIENCES:
          IGOR S. GERASIMOV
     JOHANNES KEPLER UNIVERSITY LINZ:
          CHRISTIAN FRIEDL


 PARALLEL VERSION RUNNING ON        6 PROCESSORS IN        1 NODES.

 EXECUTION OF GAMESS BEGUN Sun May 17 13:16:04 2020

            ECHO OF THE FIRST FEW INPUT CARDS -
 INPUT CARD> $BASIS GBASIS=N21 NGAUSS=3 $END                                                
 INPUT CARD> $CONTRL SCFTYP=UHF MAXIT=60 MULT=2 ICHARG=1 $END                               
 INPUT CARD> $SYSTEM MEMDDI=1000 MWORDS=30 $END                                             
 INPUT CARD> $SCF DIRSCF=.TRUE. $END                                                        
 INPUT CARD> $STATPT OPTTOL=0.0001 NSTEP=999 $END                                           
 INPUT CARD> $DATA                                                                          
 INPUT CARD>                                                                                
 INPUT CARD>C1                                                                              
 INPUT CARD>C 6.0000000 0.7768804930 -0.8506832387 0.1156484895                             
 INPUT CARD>H 1.0000000 2.1760863871 0.1666447778 -1.0135279030                             
 INPUT CARD>H 1.0000000 2.1688412990 0.6025425501 0.5894630030                              
 INPUT CARD>O 8.0000000 -0.3635225545 1.2150951238 -0.5732592945                            
 INPUT CARD>O 8.0000000 -1.5965475292 -0.6231806922 0.0326933731                            
 INPUT CARD>C 6.0000000 -0.4131728702 0.0537441959 -0.1864022053                            
 INPUT CARD>H 1.0000000 -2.3574447685 -0.0115380560 -0.1774226156                           
 INPUT CARD>N 7.0000000 2.0737126196 -0.1871128237 -0.0569628468                            
 INPUT CARD>H 1.0000000 0.6753066106 -1.2192260255 1.1419168956                             
 INPUT CARD>H 1.0000000 0.7132303132 -1.7260158115 -0.5404268960                            
 INPUT CARD> $END                                                                           
   30000000 WORDS OF MEMORY AVAILABLE

     BASIS OPTIONS
     -------------
     GBASIS=N21          IGAUSS=       3      POLAR=NONE    
     NDFUNC=       0     NFFUNC=       0     DIFFSP=       F
     NPFUNC=       0      DIFFS=       F     BASNAM=        


     RUN TITLE
     ---------
                                                                                 

 THE POINT GROUP OF THE MOLECULE IS C1      
 THE ORDER OF THE PRINCIPAL AXIS IS     0

 ATOM      ATOMIC                      COORDINATES (BOHR)
           CHARGE         X                   Y                   Z
 C           6.0     1.4680912570       -1.6075582235        0.2185439560
 H           1.0     4.1122069972        0.3149129673       -1.9152900176
 H           1.0     4.0985157660        1.1386403156        1.1139235556
 O           8.0    -0.6869580184        2.2961968330       -1.0833029865
 O           8.0    -3.0170373566       -1.1776407491        0.0617815168
 C           6.0    -0.7807835102        0.1015618037       -0.3522490915
 H           1.0    -4.4549246437       -0.0218037643       -0.3352801275
 N           7.0     3.9187486283       -0.3535919656       -0.1076441719
 H           1.0     1.2761444517       -2.3040031053        2.1579100334
 H           1.0     1.3478098581       -3.2616969342       -1.0212587498

          INTERNUCLEAR DISTANCES (ANGS.)
          ------------------------------

                1 C          2 H          3 H          4 O          5 O     

   1 C       0.0000000    2.0658588 *  2.0673462 *  2.4581605 *  2.3857493 *
   2 H       2.0658588 *  0.0000000    1.6612162 *  2.7825704 *  3.9938916  
   3 H       2.0673462 *  1.6612162 *  0.0000000    2.8530704 *  3.9988177  
   4 O       2.4581605 *  2.7825704 *  2.8530704 *  0.0000000    2.2949482 *
   5 O       2.3857493 *  3.9938916    3.9988177    2.2949482 *  0.0000000  
   6 C       1.5249428 *  2.7205049 *  2.7513531 *  1.2250957 *  1.3807990 *
   7 H       3.2579211    4.6134289    4.6316816    2.3742454 *  0.9986091 *
   8 N       1.4669335 *  1.0250081 *  1.0249251 *  2.8588222 *  3.6971615  
   9 H       1.0951566 *  2.9696667 *  2.4196471 *  3.1538730    2.5974927 *
  10 H       1.0957615 *  2.4384291 *  2.9694509 *  3.1321890    2.6229346 *

                6 C          7 H          8 N          9 H         10 H     

   1 C       1.5249428 *  3.2579211    1.4669335 *  1.0951566 *  1.0957615 *
   2 H       2.7205049 *  4.6134289    1.0250081 *  2.9696667 *  2.4384291 *
   3 H       2.7513531 *  4.6316816    1.0249251 *  2.4196471 *  2.9694509 *
   4 O       1.2250957 *  2.3742454 *  2.8588222 *  3.1538730    3.1321890  
   5 O       1.3807990 *  0.9986091 *  3.6971615    2.5974927 *  2.6229346 *
   6 C       0.0000000    1.9453883 *  2.5018725 *  2.1376792 *  2.1358051 *
   7 H       1.9453883 *  0.0000000    4.4362702    3.5209016    3.5355695  
   8 N       2.5018725 *  4.4362702    0.0000000    2.1114236 *  2.1101829 *
   9 H       2.1376792 *  3.5209016    2.1114236 *  0.0000000    1.7574284 *
  10 H       2.1358051 *  3.5355695    2.1101829 *  1.7574284 *  0.0000000  

  * ... LESS THAN  3.000


     ATOMIC BASIS SET
     ----------------
 THE CONTRACTED PRIMITIVE FUNCTIONS HAVE BEEN UNNORMALIZED
 THE CONTRACTED BASIS FUNCTIONS ARE NOW NORMALIZED TO UNITY

  SHELL TYPE  PRIMITIVE        EXPONENT          CONTRACTION COEFFICIENT(S)

 C         

      1   S       1           172.2560000    0.061766907377
      1   S       2            25.9109000    0.358794042852
      1   S       3             5.5333500    0.700713083689

      2   L       4             3.6649800   -0.395895162119    0.236459946619
      2   L       5             0.7705450    1.215834355681    0.860618805716

      3   L       6             0.1958570    1.000000000000    1.000000000000

 H         

      4   S       7             5.4471780    0.156284978695
      4   S       8             0.8245472    0.904690876670

      5   S       9             0.1831916    1.000000000000

 H         

      6   S      10             5.4471780    0.156284978695
      6   S      11             0.8245472    0.904690876670

      7   S      12             0.1831916    1.000000000000

 O         

      8   S      13           322.0370000    0.059239393389
      8   S      14            48.4308000    0.351499960776
      8   S      15            10.4206000    0.707657921031

      9   L      16             7.4029400   -0.404453583190    0.244586106967
      9   L      17             1.5762000    1.221561761397    0.853955373466

     10   L      18             0.3736840    1.000000000000    1.000000000000

 O         

     11   S      19           322.0370000    0.059239393389
     11   S      20            48.4308000    0.351499960776
     11   S      21            10.4206000    0.707657921031

     12   L      22             7.4029400   -0.404453583190    0.244586106967
     12   L      23             1.5762000    1.221561761397    0.853955373466

     13   L      24             0.3736840    1.000000000000    1.000000000000

 C         

     14   S      25           172.2560000    0.061766907377
     14   S      26            25.9109000    0.358794042852
     14   S      27             5.5333500    0.700713083689

     15   L      28             3.6649800   -0.395895162119    0.236459946619
     15   L      29             0.7705450    1.215834355681    0.860618805716

     16   L      30             0.1958570    1.000000000000    1.000000000000

 H         

     17   S      31             5.4471780    0.156284978695
     17   S      32             0.8245472    0.904690876670

     18   S      33             0.1831916    1.000000000000

 N         

     19   S      34           242.7660000    0.059865700508
     19   S      35            36.4851000    0.352955002994
     19   S      36             7.8144900    0.706513005993

     20   L      37             5.4252200   -0.413300077430    0.237972016222
     20   L      38             1.1491500    1.224417266851    0.858953058551

     21   L      39             0.2832050    1.000000000000    1.000000000000

 H         

     22   S      40             5.4471780    0.156284978695
     22   S      41             0.8245472    0.904690876670

     23   S      42             0.1831916    1.000000000000

 H         

     24   S      43             5.4471780    0.156284978695
     24   S      44             0.8245472    0.904690876670

     25   S      45             0.1831916    1.000000000000

 TOTAL NUMBER OF BASIS SET SHELLS             =   25
 NUMBER OF CARTESIAN GAUSSIAN BASIS FUNCTIONS =   55
 NUMBER OF ELECTRONS                          =   39
 CHARGE OF MOLECULE                           =    1
 SPIN MULTIPLICITY                            =    2
 NUMBER OF OCCUPIED ORBITALS (ALPHA)          =   20
 NUMBER OF OCCUPIED ORBITALS (BETA )          =   19
 TOTAL NUMBER OF ATOMS                        =   10
 THE NUCLEAR REPULSION ENERGY IS      177.1409055342

     $CONTRL OPTIONS
     ---------------
 SCFTYP=UHF          RUNTYP=ENERGY       EXETYP=RUN     
 MPLEVL=       0     CITYP =NONE         CCTYP =NONE         VBTYP =NONE    
 DFTTYP=NONE         TDDFT =NONE    
 MULT  =       2     ICHARG=       1     NZVAR =       0     COORD =UNIQUE  
 PP    =NONE         RELWFN=NONE         LOCAL =NONE         NUMGRD=       F
 ISPHER=      -1     NOSYM =       0     MAXIT =      60     UNITS =ANGS    
 PLTORB=       F     MOLPLT=       F     AIMPAC=       F     FRIEND=        
 NPRINT=       7     IREST =       0     GEOM  =INPUT   
 NORMF =       0     NORMP =       0     ITOL  =      20     ICUT  =       9
 INTTYP=BEST         GRDTYP=BEST         QMTTOL= 1.0E-06

     $SYSTEM OPTIONS
     ---------------
  REPLICATED MEMORY=    30000000 WORDS (ON EVERY NODE).
 DISTRIBUTED MEMDDI=        1000 MILLION WORDS IN AGGREGATE,
 MEMDDI DISTRIBUTED OVER   6 PROCESSORS IS   166666666 WORDS/PROCESSOR.
 TOTAL MEMORY REQUESTED ON EACH PROCESSOR=   196666666 WORDS.
 TIMLIM=      525600.00 MINUTES, OR     365.0 DAYS.
 PARALL= T  BALTYP=  DLB     KDIAG=    0  COREFL= F
 MXSEQ2=     300 MXSEQ3=     150  mem10=         0

          ----------------
          PROPERTIES INPUT
          ----------------

     MOMENTS            FIELD           POTENTIAL          DENSITY
 IEMOM =       1   IEFLD =       0   IEPOT =       0   IEDEN =       0
 WHERE =COMASS     WHERE =NUCLEI     WHERE =NUCLEI     WHERE =NUCLEI  
 OUTPUT=BOTH       OUTPUT=BOTH       OUTPUT=BOTH       OUTPUT=BOTH    
 IEMINT=       0   IEFINT=       0                     IEDINT=       0
                                                       MORB  =       0
          EXTRAPOLATION IN EFFECT
          SOSCF IN EFFECT
          DIIS or SOSCF will be reset if energy rises
 ORBITAL PRINTING OPTION: NPREO=     1    55     2     1

     -------------------------------
     INTEGRAL TRANSFORMATION OPTIONS
     -------------------------------
     NWORD  =            0
     CUTOFF = 1.0E-09     MPTRAN =       0
     DIRTRF =       T     AOINTS =DUP     

          ----------------------
          INTEGRAL INPUT OPTIONS
          ----------------------
 NOPK  =       1 NORDER=       0 SCHWRZ=       T

     ------------------------------------------
     THE POINT GROUP IS C1 , NAXIS= 0, ORDER= 1
     ------------------------------------------

     DIMENSIONS OF THE SYMMETRY SUBSPACES ARE
 A   =   55

 ..... DONE SETTING UP THE RUN .....
 CPU     0: STEP CPU TIME=     0.03 TOTAL CPU TIME=          0.0 (      0.0 MIN)
 TOTAL WALL CLOCK TIME=          0.0 SECONDS, CPU UTILIZATION IS   100.00%

          ********************
          1 ELECTRON INTEGRALS
          ********************
 ...... END OF ONE-ELECTRON INTEGRALS ......
 CPU     0: STEP CPU TIME=     0.00 TOTAL CPU TIME=          0.0 (      0.0 MIN)
 TOTAL WALL CLOCK TIME=          0.0 SECONDS, CPU UTILIZATION IS    75.00%

          -------------
          GUESS OPTIONS
          -------------
          GUESS =HUCKEL            NORB  =       0          NORDER=       0
          MIX   =       F          PRTMO =       F          PUNMO =       F
          TOLZ  = 1.0E-08          TOLE  = 1.0E-05
          SYMDEN=       F          PURIFY=       F

 INITIAL GUESS ORBITALS GENERATED BY HUCKEL   ROUTINE.
 HUCKEL GUESS REQUIRES     32985 WORDS.

 SYMMETRIES FOR INITIAL GUESS ORBITALS FOLLOW.  ALPHA SET(S).
    20 ORBITALS ARE OCCUPIED (    5 CORE ORBITALS).
     6=A        7=A        8=A        9=A       10=A       11=A       12=A   
    13=A       14=A       15=A       16=A       17=A       18=A       19=A   
    20=A       21=A       22=A       23=A       24=A       25=A       26=A   
    27=A       28=A       29=A       30=A   

 SYMMETRIES FOR INITIAL GUESS ORBITALS FOLLOW.   BETA SET(S).
    19 ORBITALS ARE OCCUPIED (    5 CORE ORBITALS).
     6=A        7=A        8=A        9=A       10=A       11=A       12=A   
    13=A       14=A       15=A       16=A       17=A       18=A       19=A   
    20=A       21=A       22=A       23=A       24=A       25=A       26=A   
    27=A       28=A       29=A   
 ...... END OF INITIAL ORBITAL SELECTION ......
 CPU     0: STEP CPU TIME=     0.01 TOTAL CPU TIME=          0.0 (      0.0 MIN)
 TOTAL WALL CLOCK TIME=          0.1 SECONDS, CPU UTILIZATION IS    80.00%

                    ----------------------
                    AO INTEGRAL TECHNOLOGY
                    ----------------------
     S,P,L SHELL ROTATED AXIS INTEGRALS, REPROGRAMMED BY
        KAZUYA ISHIMURA (IMS) AND JOSE SIERRA (SYNSTAR).
     S,P,D,L SHELL ROTATED AXIS INTEGRALS PROGRAMMED BY
        KAZUYA ISHIMURA (INSTITUTE FOR MOLECULAR SCIENCE).
     S,P,D,F,G SHELL TO TOTAL QUARTET ANGULAR MOMENTUM SUM 5,
        ERIC PROGRAM BY GRAHAM FLETCHER (ELORET AND NASA ADVANCED
        SUPERCOMPUTING DIVISION, AMES RESEARCH CENTER).
     S,P,D,F,G,L SHELL GENERAL RYS QUADRATURE PROGRAMMED BY
        MICHEL DUPUIS (PACIFIC NORTHWEST NATIONAL LABORATORY).

          --------------------
          2 ELECTRON INTEGRALS
          --------------------

 DIRECT SCF METHOD SKIPS INTEGRAL STORAGE ON DISK.
 DIRECT TRANSFORMATION SKIPS AO INTEGRAL STORAGE ON DISK.
  ...... END OF TWO-ELECTRON INTEGRALS .....
 CPU     0: STEP CPU TIME=     0.01 TOTAL CPU TIME=          0.0 (      0.0 MIN)
 TOTAL WALL CLOCK TIME=          0.1 SECONDS, CPU UTILIZATION IS    83.33%

          ---------------------------
                  UHF SCF CALCULATION
          ---------------------------

     NUCLEAR ENERGY =       177.1409055342
     MAXIT = 60     NPUNCH=  2     MULT=  2
     EXTRAP=T  DAMP=F  SHIFT=F  RSTRCT=F  DIIS=F  SOSCF=T
     DENSITY MATRIX CONV=  2.00E-05
     SOSCF WILL OPTIMIZE     700 ALPHA AND     684 BETA ROTATION ANGLES.
     SOGTOL= 2.500E-01
     MEMORY REQUIRED FOR UHF/ROHF ITERS=     85824 WORDS.

 DIRECT SCF CALCULATION, SCHWRZ=T   FDIFF=T
 SCHWARZ INEQUALITY OVERHEAD:      1523 INTEGRALS, T=        0.00

                                                                                NONZERO     BLOCKS
 ITER EX      TOTAL ENERGY        E CHANGE  DENSITY CHANGE    ORB. GRAD       INTEGRALS    SKIPPED
   1  0     -280.0031905314  -280.0031905314   0.778560637   0.000000000        1007172      12503
          ---------------START SECOND ORDER SCF---------------
   2  1     -280.7649539252    -0.7617633937   0.195715559   0.119567428        1005693      12970
   3  2     -280.7928727413    -0.0279188162   0.114155463   0.122784000        1004455      13477
   4  3     -280.9086358716    -0.1157631303   0.064278889   0.027406533         999564      14249
   5  4     -280.9270431358    -0.0184072642   0.058021726   0.016546680         999604      14265
   6  5     -280.9317371240    -0.0046939882   0.015759727   0.010201257         998640      14398
   7  6     -280.9330419123    -0.0013047883   0.006390587   0.002329177         988143      15639
   8  7     -280.9331825085    -0.0001405962   0.003282204   0.001085705         976213      16685
   9  8     -280.9332131270    -0.0000306184   0.001687197   0.001086713         961437      17435
  10  9     -280.9332246875    -0.0000115605   0.002363106   0.000702513         947003      18115
  11 10     -280.9332341013    -0.0000094139   0.003652973   0.000763658         948819      18143
  12 11     -280.9332441423    -0.0000100410   0.005186158   0.000636461         948427      18169
  13 12     -280.9332550905    -0.0000109482   0.003903605   0.000360354         950047      18187
  14 13     -280.9332618811    -0.0000067906   0.001134572   0.000221968         949050      18098
  15 14     -280.9332641198    -0.0000022386   0.000357551   0.000094112         937406      18662
  16 15     -280.9332644817    -0.0000003619   0.000140272   0.000041963         909236      20282
  17 16     -280.9332645337    -0.0000000520   0.000060516   0.000018183         886183      21693
  18 17     -280.9332645441    -0.0000000104   0.000037211   0.000006568         863107      23058
  19 18     -280.9332645456    -0.0000000015   0.000011313   0.000002401         835641      24493
  20 19     -280.9332645460    -0.0000000004   0.000003395   0.000001140         793843      26366

          -----------------
          DENSITY CONVERGED
          -----------------
     TIME TO FORM FOCK OPERATORS=       0.3 SECONDS (       0.0 SEC/ITER)
     FOCK TIME ON FIRST ITERATION=       0.0, LAST ITERATION=       0.0
     TIME TO SOLVE SCF EQUATIONS=       0.0 SECONDS (       0.0 SEC/ITER)

 FINAL UHF ENERGY IS     -280.9332645460 AFTER  20 ITERATIONS

          --------------------
          SPIN SZ   =    0.500
          S-SQUARED =    0.763
          --------------------

  ----- ALPHA SET ----- 

          ------------
          EIGENVECTORS
          ------------

                      1          2          3          4          5
                  -20.6941   -20.6686   -15.9270   -11.5665   -11.4846
                     A          A          A          A          A   
    1  C  1  S    0.000007   0.000008  -0.000627  -0.002917   0.987792
    2  C  1  S   -0.000414   0.000004  -0.002809  -0.002944   0.102912
    3  C  1  X    0.000128   0.000311   0.001264   0.000193  -0.000018
    4  C  1  Y   -0.000155   0.000240   0.000606  -0.000524   0.000501
    5  C  1  Z    0.000077  -0.000093  -0.000158   0.000148  -0.000171
    6  C  1  S    0.000457   0.004777   0.020446   0.021787  -0.087237
    7  C  1  X    0.003649  -0.009168   0.008735  -0.012674   0.005528
    8  C  1  Y    0.002604  -0.003720   0.006684   0.008715  -0.005705
    9  C  1  Z   -0.001019   0.001293  -0.001777  -0.002819   0.001980
   10  H  2  S   -0.000515   0.000246   0.002175  -0.000391  -0.000772
   11  H  2  S    0.000305   0.000327   0.007342   0.000886   0.002404
   12  H  3  S   -0.000509   0.000316   0.002172  -0.000386  -0.000740
   13  H  3  S    0.000186   0.000291   0.007304   0.000779   0.002446
   14  O  4  S   -0.002463   0.983822  -0.000014   0.000166   0.000052
   15  O  4  S   -0.000365   0.100162  -0.000126   0.001663   0.000177
   16  O  4  X   -0.000744  -0.000190   0.000002  -0.000555   0.000253
   17  O  4  Y    0.000083  -0.004566   0.000030   0.000414   0.000129
   18  O  4  Z   -0.000032   0.001522  -0.000023  -0.000137  -0.000039
   19  O  4  S    0.001430  -0.057469   0.000952  -0.004976  -0.001790
   20  O  4  X    0.004433   0.001076  -0.000032   0.003575  -0.002565
   21  O  4  Y    0.000197   0.015318  -0.000465   0.004856   0.001133
   22  O  4  Z   -0.000044  -0.005102   0.000193  -0.001621  -0.000397
   23  O  5  S    0.983580   0.002447  -0.000017   0.000041  -0.000017
   24  O  5  S    0.098784   0.000042  -0.000346   0.001066  -0.000484
   25  O  5  X    0.001545  -0.000511  -0.000305   0.000124  -0.000619
   26  O  5  Y    0.003533   0.000732   0.000151   0.000993  -0.000008
   27  O  5  Z   -0.001171  -0.000250  -0.000047  -0.000328   0.000005
   28  O  5  S   -0.048638   0.002601   0.000727   0.002446   0.000679
   29  O  5  X   -0.006724   0.003151   0.001281   0.001363   0.001269
   30  O  5  Y   -0.008823  -0.004121  -0.000524  -0.004345   0.000461
   31  O  5  Z    0.002901   0.001402   0.000173   0.001442  -0.000166
   32  C  6  S   -0.000459   0.000213   0.000092   0.986647   0.002137
   33  C  6  S   -0.000920   0.001590  -0.000044   0.094425  -0.002682
   34  C  6  X   -0.001477   0.000005  -0.000768   0.000625  -0.000128
   35  C  6  Y   -0.000421   0.001783   0.000167   0.000079   0.000199
   36  C  6  Z    0.000133  -0.000596  -0.000076  -0.000037  -0.000075
   37  C  6  S    0.014911   0.016559  -0.004270  -0.047263   0.024914
   38  C  6  X   -0.014681  -0.000235  -0.001720  -0.013202   0.015440
   39  C  6  Y   -0.008748   0.026388  -0.000109   0.015907  -0.007094
   40  C  6  Z    0.002859  -0.008798  -0.000009  -0.005291   0.002422
   41  H  7  S    0.003223   0.001432   0.000264   0.001013   0.000142
   42  H  7  S    0.003856  -0.000612   0.000271   0.001120   0.002009
   43  N  8  S   -0.000040  -0.000066   0.985554  -0.000014  -0.000207
   44  N  8  S   -0.000322  -0.000306   0.101157  -0.000572  -0.000958
   45  N  8  X    0.000460  -0.000244  -0.001855   0.000551   0.000007
   46  N  8  Y   -0.000276   0.000414   0.000554   0.000096   0.000208
   47  N  8  Z    0.000074  -0.000109  -0.000164  -0.000025  -0.000044
   48  N  8  S   -0.001178   0.003759  -0.057124   0.000381   0.011612
   49  N  8  X   -0.000419  -0.001155   0.009886  -0.000404  -0.006570
   50  N  8  Y    0.001570  -0.002609  -0.000903  -0.001061  -0.003276
   51  N  8  Z   -0.000372   0.000644   0.000324   0.000339   0.000758
   52  H  9  S    0.000337  -0.000617  -0.001308  -0.001610   0.000719
   53  H  9  S    0.000249  -0.000908  -0.000593   0.002398   0.014868
   54  H 10  S    0.000306  -0.000504  -0.001324  -0.001613   0.000754
   55  H 10  S   -0.000031  -0.000757  -0.000489   0.002537   0.014931

                      6          7          8          9         10
                   -1.6544    -1.5911    -1.5519    -1.2511    -1.0484
                     A          A          A          A          A   
    1  C  1  S   -0.034155  -0.068569  -0.013430  -0.179360  -0.013025
    2  C  1  S    0.035763   0.072916   0.014750   0.169756   0.010673
    3  C  1  X   -0.008129   0.061908   0.005396  -0.055935   0.056675
    4  C  1  Y    0.022031   0.033465  -0.001239   0.008553   0.004350
    5  C  1  Z   -0.006882  -0.008787   0.000805  -0.004237   0.128049
    6  C  1  S    0.028139   0.102438   0.033654   0.561843   0.052323
    7  C  1  X    0.013084  -0.024138  -0.041951  -0.019898   0.013791
    8  C  1  Y   -0.006087  -0.004738  -0.019918   0.022039   0.013370
    9  C  1  Z    0.001629   0.000689   0.006683  -0.007456   0.094618
   10  H  2  S    0.017155   0.089198   0.016144  -0.065243  -0.204370
   11  H  2  S   -0.004000  -0.011974  -0.003666  -0.023775  -0.076127
   12  H  3  S    0.016937   0.089343   0.016368  -0.066080   0.155075
   13  H  3  S   -0.004045  -0.011613  -0.002702  -0.023698   0.060009
   14  O  4  S   -0.149386   0.016906   0.152306   0.038817  -0.015475
   15  O  4  S    0.138412  -0.015275  -0.143771  -0.039365   0.015404
   16  O  4  X   -0.004775   0.007895  -0.008278   0.025092  -0.010340
   17  O  4  Y   -0.092301   0.010026   0.075880  -0.005207   0.019386
   18  O  4  Z    0.030739  -0.003239  -0.025331   0.001696   0.008320
   19  O  4  S    0.469652  -0.057370  -0.493634  -0.126429   0.057074
   20  O  4  X   -0.015541   0.011571  -0.013367   0.017185  -0.005005
   21  O  4  Y   -0.103853   0.012987   0.086751  -0.003007   0.015832
   22  O  4  Z    0.034569  -0.004303  -0.029041   0.001012   0.009144
   23  O  5  S   -0.131098   0.060206  -0.173174   0.034195  -0.009020
   24  O  5  S    0.119879  -0.055287   0.161293  -0.030221   0.009012
   25  O  5  X    0.028874  -0.005860   0.013849   0.059276  -0.051347
   26  O  5  Y    0.049243  -0.021487   0.045640  -0.025462   0.010286
   27  O  5  Z   -0.016312   0.007162  -0.015226   0.008704   0.007786
   28  O  5  S    0.404536  -0.191285   0.569810  -0.131784   0.035419
   29  O  5  X    0.032588  -0.015439   0.036355   0.037138  -0.046033
   30  O  5  Y    0.077496  -0.027464   0.059473  -0.023544   0.007050
   31  O  5  Z   -0.025721   0.009119  -0.019703   0.008082   0.006901
   32  C  6  S   -0.130694   0.016243   0.024104  -0.065385   0.031797
   33  C  6  S    0.153282  -0.016758  -0.023520   0.087973  -0.038347
   34  C  6  X   -0.035291   0.046490  -0.078349   0.108215  -0.013969
   35  C  6  Y    0.071961  -0.007636  -0.162638  -0.109404   0.042421
   36  C  6  Z   -0.024170   0.002968   0.053761   0.036532   0.014751
   37  C  6  S    0.132208  -0.021527  -0.031550   0.100317  -0.095270
   38  C  6  X    0.042250  -0.008175   0.007353   0.016654  -0.027961
   39  C  6  Y   -0.051678   0.013860   0.043611  -0.038935   0.033417
   40  C  6  Z    0.017446  -0.004429  -0.014477   0.012712   0.006171
   41  H  7  S    0.044526  -0.024848   0.072298  -0.045058   0.030326
   42  H  7  S    0.008171  -0.005852   0.007812  -0.021430   0.014693
   43  N  8  S   -0.043390  -0.217004  -0.035405   0.067174  -0.002861
   44  N  8  S    0.042887   0.210123   0.033411  -0.060314   0.003633
   45  N  8  X   -0.013837  -0.028409  -0.001370  -0.141062  -0.026531
   46  N  8  Y    0.001910   0.012404   0.001728  -0.096784   0.024574
   47  N  8  Z   -0.000808  -0.003584  -0.000237   0.024827   0.409607
   48  N  8  S    0.128265   0.691885   0.130438  -0.295330   0.008317
   49  N  8  X   -0.013171  -0.058424  -0.009075  -0.070532  -0.025852
   50  N  8  Y    0.008674   0.020820  -0.008730  -0.068273   0.021381
   51  N  8  Z   -0.002527  -0.006098   0.002139   0.017859   0.377274
   52  H  9  S    0.011466   0.021939   0.003631   0.098666   0.066405
   53  H  9  S   -0.007070  -0.006531  -0.001779  -0.008746   0.022794
   54  H 10  S    0.011360   0.022011   0.003709   0.099048  -0.035420
   55  H 10  S   -0.007384  -0.006738  -0.001093  -0.008505  -0.008055

                     11         12         13         14         15
                   -1.0473    -0.9648    -0.9146    -0.8655    -0.8552
                     A          A          A          A          A   
    1  C  1  S    0.039374   0.012175  -0.049589   0.006855  -0.003065
    2  C  1  S   -0.032303  -0.010704   0.040345  -0.006700   0.002470
    3  C  1  X   -0.187685  -0.021858  -0.152411   0.099040  -0.021089
    4  C  1  Y    0.099690  -0.139244  -0.193606   0.010277   0.072376
    5  C  1  Z    0.008705   0.036383   0.052818   0.048009   0.274645
    6  C  1  S   -0.155995  -0.005863   0.288108  -0.036572   0.019151
    7  C  1  X   -0.048937   0.017106  -0.076931  -0.008365  -0.003217
    8  C  1  Y    0.049629  -0.094591  -0.125070  -0.005158   0.073743
    9  C  1  Z    0.016823   0.024420   0.033474   0.048517   0.258033
   10  H  2  S    0.023890  -0.024788   0.066378   0.015262   0.076023
   11  H  2  S    0.005182  -0.010582   0.047378   0.018245   0.047938
   12  H  3  S    0.135959  -0.025137   0.066401  -0.011740  -0.074321
   13  H  3  S    0.048922  -0.010256   0.045371  -0.000932  -0.049987
   14  O  4  S    0.047018   0.000578  -0.063902  -0.083304   0.013297
   15  O  4  S   -0.047146  -0.001735   0.058629   0.077892  -0.012331
   16  O  4  X    0.025664  -0.091531   0.054485  -0.064234   0.001797
   17  O  4  Y   -0.045727  -0.010917   0.144161   0.257702   0.001962
   18  O  4  Z    0.020338   0.001365  -0.050061  -0.064400   0.146492
   19  O  4  S   -0.171733   0.005930   0.266906   0.343083  -0.055609
   20  O  4  X    0.009726  -0.086214   0.057035  -0.045549  -0.000586
   21  O  4  Y   -0.036046  -0.015193   0.129129   0.244502   0.003518
   22  O  4  Z    0.016987   0.002848  -0.044938  -0.060098   0.144951
   23  O  5  S    0.030454   0.027610  -0.025128  -0.018940   0.004782
   24  O  5  S   -0.029854  -0.024551   0.027879   0.019671  -0.004717
   25  O  5  X    0.170635   0.206878  -0.121559   0.216070  -0.035025
   26  O  5  Y   -0.020416   0.011549  -0.081108  -0.077392   0.077474
   27  O  5  Z    0.011759  -0.004044   0.023412   0.054965   0.167080
   28  O  5  S   -0.121818  -0.124298   0.100193   0.078931  -0.020418
   29  O  5  X    0.151999   0.192473  -0.118234   0.229692  -0.037592
   30  O  5  Y   -0.012999   0.007389  -0.089625  -0.094369   0.082466
   31  O  5  Z    0.008510  -0.002594   0.026331   0.061577   0.173085
   32  C  6  S   -0.101812  -0.038911   0.069572   0.059401  -0.008691
   33  C  6  S    0.123178   0.048079  -0.097528  -0.084764   0.013059
   34  C  6  X    0.035432  -0.162773   0.090339  -0.168217   0.017343
   35  C  6  Y   -0.105072  -0.041156  -0.063408  -0.158604   0.094990
   36  C  6  Z    0.044806   0.009774   0.017485   0.084627   0.184663
   37  C  6  S    0.301859   0.104124  -0.184813  -0.150076   0.019173
   38  C  6  X    0.079549  -0.088350   0.028580  -0.116511   0.010096
   39  C  6  Y   -0.090215  -0.041980   0.004326   0.009610   0.057315
   40  C  6  Z    0.036166   0.011180  -0.004215   0.022660   0.160375
   41  H  7  S   -0.100533  -0.107638   0.046833  -0.128984   0.021739
   42  H  7  S   -0.049768  -0.069936   0.040450  -0.080923   0.013257
   43  N  8  S    0.010190  -0.035386   0.023136   0.003434   0.000196
   44  N  8  S   -0.012422   0.051208  -0.015292  -0.015670   0.001975
   45  N  8  X    0.076344   0.318821   0.218445  -0.221160   0.039062
   46  N  8  Y    0.295246  -0.229419   0.181941   0.066020  -0.043678
   47  N  8  Z    0.049655   0.063480  -0.048503  -0.045351  -0.130788
   48  N  8  S   -0.033299   0.130823  -0.129529   0.012833  -0.006488
   49  N  8  X    0.075984   0.322215   0.234057  -0.256495   0.046395
   50  N  8  Y    0.275850  -0.224779   0.190964   0.055133  -0.045073
   51  N  8  Z    0.044374   0.062346  -0.050261  -0.044548  -0.144163
   52  H  9  S   -0.027800   0.037696   0.114455   0.012788   0.154768
   53  H  9  S   -0.015713   0.019318   0.056417   0.012856   0.086791
   54  H 10  S   -0.062083   0.042073   0.116730  -0.035200  -0.140468
   55  H 10  S   -0.026305   0.021531   0.056961  -0.013343  -0.081115

                     16         17         18         19         20
                   -0.8510    -0.7679    -0.7513    -0.6511    -0.6485
                     A          A          A          A          A   
    1  C  1  S   -0.033477  -0.000387  -0.013989   0.000221   0.024966
    2  C  1  S    0.019822   0.000207   0.007963  -0.000212  -0.013303
    3  C  1  X    0.045300   0.004707  -0.109545   0.000031   0.108842
    4  C  1  Y   -0.169065  -0.072970   0.135672   0.009662  -0.140473
    5  C  1  Z    0.043051  -0.241182  -0.039827   0.034474   0.045128
    6  C  1  S    0.242722   0.003683   0.137382  -0.001687  -0.203653
    7  C  1  X    0.029604   0.004654  -0.091952   0.001954   0.119516
    8  C  1  Y   -0.091849  -0.085041   0.146823   0.007603  -0.185331
    9  C  1  Z    0.020345  -0.283988  -0.040565   0.017834   0.058828
   10  H  2  S    0.053263  -0.044983  -0.014101   0.001248   0.000781
   11  H  2  S    0.016336  -0.046897  -0.012391   0.028010   0.044033
   12  H  3  S    0.053384   0.046873  -0.013569  -0.000474   0.000492
   13  H  3  S    0.019816   0.048183  -0.013296  -0.027311   0.036354
   14  O  4  S    0.030625  -0.000795  -0.031463  -0.000033   0.005193
   15  O  4  S   -0.025045   0.000829   0.036450  -0.000050  -0.003636
   16  O  4  X   -0.207485  -0.002233  -0.007672   0.005941   0.447773
   17  O  4  Y   -0.093862   0.058780   0.238729  -0.108012  -0.020053
   18  O  4  Z    0.024035   0.159533  -0.080599  -0.323855   0.012353
   19  O  4  S   -0.145521   0.002865   0.086862   0.000646  -0.047326
   20  O  4  X   -0.193750  -0.002018  -0.016740   0.007049   0.511550
   21  O  4  Y   -0.087194   0.059153   0.266249  -0.131024  -0.014304
   22  O  4  Z    0.022029   0.159343  -0.089729  -0.392168   0.011522
   23  O  5  S    0.050716   0.000354   0.062334   0.000025  -0.002592
   24  O  5  S   -0.047358  -0.000300  -0.060798  -0.000108  -0.017603
   25  O  5  X    0.016249  -0.000218  -0.053170  -0.001124   0.125473
   26  O  5  Y    0.207629   0.100668   0.319074   0.115111   0.171323
   27  O  5  Z   -0.077461   0.290407  -0.110133   0.337880  -0.059957
   28  O  5  S   -0.226125  -0.001783  -0.269293   0.000137   0.102092
   29  O  5  X    0.008138  -0.000331  -0.050656  -0.001401   0.186009
   30  O  5  Y    0.210472   0.109063   0.351558   0.144985   0.222633
   31  O  5  Z   -0.078770   0.315277  -0.121238   0.425941  -0.077717
   32  C  6  S   -0.002645   0.000387  -0.013634   0.000133   0.005422
   33  C  6  S    0.022142  -0.000648   0.010099  -0.000020  -0.011692
   34  C  6  X   -0.208874  -0.002321   0.034160  -0.000037  -0.106284
   35  C  6  Y    0.104415   0.051690  -0.237446  -0.048126   0.023893
   36  C  6  Z   -0.044784   0.167258   0.078193  -0.144602  -0.006964
   37  C  6  S   -0.075262  -0.001108   0.066254  -0.001233   0.022407
   38  C  6  X   -0.215495  -0.003955  -0.012359   0.000190   0.119897
   39  C  6  Y    0.091996   0.072346   0.029695  -0.047083   0.060146
   40  C  6  Z   -0.039614   0.215244  -0.011973  -0.139970  -0.017908
   41  H  7  S    0.046626   0.000135   0.131053  -0.000012  -0.009596
   42  H  7  S    0.006464  -0.000244   0.089080  -0.000470  -0.039636
   43  N  8  S    0.026231   0.000607  -0.005776   0.000040   0.006196
   44  N  8  S   -0.027257  -0.000645   0.013580   0.000391  -0.011804
   45  N  8  X   -0.122812  -0.001809   0.071277  -0.001308  -0.029328
   46  N  8  Y    0.220284   0.022612  -0.065573   0.001059   0.016072
   47  N  8  Z   -0.060782   0.067784   0.018608   0.002737  -0.003538
   48  N  8  S   -0.140354  -0.003013   0.008413  -0.001991  -0.024071
   49  N  8  X   -0.107807  -0.002035   0.106631  -0.000368  -0.078064
   50  N  8  Y    0.243313   0.027683  -0.079333   0.003271   0.028254
   51  N  8  Z   -0.067207   0.081786   0.023134   0.012962  -0.006216
   52  H  9  S    0.086898  -0.145247  -0.045486   0.026505   0.040972
   53  H  9  S    0.044573  -0.082638  -0.055223   0.059769   0.040487
   54  H 10  S    0.096245   0.146784  -0.049164  -0.026458   0.040823
   55  H 10  S    0.051816   0.084152  -0.054487  -0.057442   0.041104

                     21         22         23         24         25
                   -0.0338    -0.0140     0.0431     0.0765     0.0889
                     A          A          A          A          A   
    1  C  1  S    0.000137  -0.009823  -0.000637  -0.107934  -0.116252
    2  C  1  S   -0.000519   0.005639   0.000346   0.051733   0.060939
    3  C  1  X    0.008604  -0.094860   0.000840   0.096708  -0.015096
    4  C  1  Y    0.010135  -0.067415   0.024485   0.097740  -0.189879
    5  C  1  Z    0.017881   0.023177   0.091659  -0.028731   0.049816
    6  C  1  S   -0.008666   0.228000   0.009621   1.256730   1.589940
    7  C  1  X    0.026410  -0.324263   0.002890   0.450177  -0.192947
    8  C  1  Y    0.127567  -0.279145   0.080509   0.358981  -0.964349
    9  C  1  Z    0.342296   0.111468   0.335353  -0.112142   0.261720
   10  H  2  S   -0.005060  -0.078784   0.123852  -0.027651   0.039971
   11  H  2  S   -0.002104  -0.866617   1.157322  -0.228030   0.304348
   12  H  3  S    0.011227  -0.082016  -0.118106  -0.029213   0.043310
   13  H  3  S    0.082756  -0.908932  -1.105090  -0.254937   0.341974
   14  O  4  S    0.000906  -0.017568   0.001562  -0.003475  -0.010938
   15  O  4  S   -0.000605   0.013413  -0.001634   0.013969   0.003771
   16  O  4  X   -0.001323   0.058061  -0.005510  -0.054531   0.013974
   17  O  4  Y   -0.093973  -0.036255   0.011405   0.015840  -0.043165
   18  O  4  Z   -0.289851  -0.003932   0.033213  -0.003565   0.009735
   19  O  4  S   -0.006867   0.131157  -0.010039  -0.026985   0.095623
   20  O  4  X   -0.000981   0.063411  -0.006661  -0.055404   0.008920
   21  O  4  Y   -0.150467  -0.087565   0.020405   0.024082  -0.087827
   22  O  4  Z   -0.469367   0.003278   0.049774  -0.005235   0.020725
   23  O  5  S   -0.000697   0.007894   0.001138  -0.093751   0.008520
   24  O  5  S    0.000871  -0.009227  -0.000483   0.057296  -0.006233
   25  O  5  X    0.001367  -0.007149  -0.001096  -0.039952   0.001677
   26  O  5  Y   -0.050481   0.003501   0.000989   0.119937  -0.023566
   27  O  5  Z   -0.148442  -0.008574   0.013712  -0.040472   0.006062
   28  O  5  S    0.002645  -0.034604  -0.009776   0.754807  -0.047594
   29  O  5  X    0.000102   0.009310  -0.001816  -0.151338   0.028586
   30  O  5  Y   -0.079101   0.009493   0.002868   0.268608  -0.016541
   31  O  5  Z   -0.232851  -0.015032   0.026795  -0.090173   0.001960
   32  C  6  S   -0.000735   0.008028  -0.002067   0.042884   0.000354
   33  C  6  S   -0.001460   0.017552   0.000922  -0.010917   0.033492
   34  C  6  X   -0.001197  -0.016743   0.000803   0.052440  -0.017826
   35  C  6  Y    0.129863   0.002473  -0.000764   0.095772  -0.042985
   36  C  6  Z    0.388626   0.021967   0.009388  -0.034012   0.019251
   37  C  6  S    0.017387  -0.196653   0.025232  -0.365478  -0.083080
   38  C  6  X   -0.001229  -0.002506   0.005970  -0.106421   0.081748
   39  C  6  Y    0.177454  -0.024096  -0.029758   0.201066  -0.024954
   40  C  6  Z    0.535993   0.038359  -0.084104  -0.072638   0.026747
   41  H  7  S   -0.001735   0.021307   0.000528  -0.123197   0.020831
   42  H  7  S   -0.004721   0.059175   0.009444  -0.951564   0.132461
   43  N  8  S    0.007829  -0.133225   0.003300   0.036936   0.027846
   44  N  8  S   -0.003763   0.066980  -0.002035  -0.013386  -0.018769
   45  N  8  X    0.006040  -0.022799  -0.002902   0.168358  -0.039770
   46  N  8  Y   -0.007962   0.135525   0.072541   0.108924  -0.055894
   47  N  8  Z   -0.012146  -0.031941   0.282536  -0.024493   0.009936
   48  N  8  S   -0.080964   1.385661  -0.033541  -0.407677  -0.255024
   49  N  8  X    0.018213  -0.090655  -0.006023   0.541711  -0.127374
   50  N  8  Y   -0.038629   0.393533   0.202063   0.367521  -0.089716
   51  N  8  Z   -0.090604  -0.097032   0.786786  -0.083971   0.009419
   52  H  9  S   -0.101133  -0.000990  -0.039324   0.029208  -0.047730
   53  H  9  S   -0.458037  -0.288492  -0.417003  -0.238706  -1.319679
   54  H 10  S    0.103734   0.013039   0.034979   0.025759  -0.048056
   55  H 10  S    0.496888  -0.206172   0.381748  -0.265831  -1.363688

                     26         27         28         29         30
                    0.1393     0.1478     0.2027     0.3213     0.4016
                     A          A          A          A          A   
    1  C  1  S   -0.002703  -0.043365   0.114345   0.063595   0.020896
    2  C  1  S    0.000522   0.021246  -0.042509  -0.024356  -0.072889
    3  C  1  X    0.038758   0.314614   0.069955  -0.047499  -0.077891
    4  C  1  Y   -0.086537   0.047443  -0.209569  -0.027485  -0.163957
    5  C  1  Z   -0.307953   0.028827   0.060760   0.010432   0.054987
    6  C  1  S    0.025829   0.454815  -1.434441  -1.084896   0.313036
    7  C  1  X    0.148730   1.215650   0.865420   0.301498  -1.157616
    8  C  1  Y   -0.379620   0.018829  -1.026592  -0.732671  -0.429333
    9  C  1  Z   -1.290428   0.174308   0.317044   0.242831   0.126761
   10  H  2  S   -0.002290  -0.031258   0.038372   0.020803  -0.078068
   11  H  2  S    0.325293  -0.382633  -0.062188   0.013859   0.018173
   12  H  3  S   -0.004341  -0.031878   0.032746   0.016280  -0.073834
   13  H  3  S   -0.417855  -0.282826  -0.041864   0.024402   0.043262
   14  O  4  S    0.003627   0.026615   0.029624  -0.048546   0.122014
   15  O  4  S   -0.002955  -0.018755  -0.018605   0.028432  -0.033544
   16  O  4  X   -0.002503  -0.000155  -0.053520  -0.184099  -0.064648
   17  O  4  Y   -0.019029   0.073225   0.112767  -0.091659   0.140933
   18  O  4  Z   -0.085148  -0.011099  -0.038981   0.029259  -0.049269
   19  O  4  S   -0.028386  -0.223970  -0.265028   0.489213  -1.682551
   20  O  4  X   -0.008260  -0.055700  -0.143286  -0.437175  -0.072480
   21  O  4  Y   -0.041061   0.168504   0.257674  -0.266150   0.693736
   22  O  4  Z   -0.186508  -0.028349  -0.087939   0.086611  -0.233849
   23  O  5  S    0.004457   0.035749   0.013978  -0.072027  -0.048763
   24  O  5  S   -0.001953  -0.011505  -0.012189   0.037851   0.000919
   25  O  5  X    0.018442   0.129797  -0.221555   0.228567   0.083257
   26  O  5  Y   -0.041613  -0.113517   0.000598   0.160608  -0.025405
   27  O  5  Z   -0.084136   0.051058  -0.001788  -0.051341   0.009822
   28  O  5  S   -0.043480  -0.368106  -0.087144   0.713143   0.698892
   29  O  5  X    0.041289   0.277798  -0.532317   0.592415   0.451581
   30  O  5  Y   -0.066197  -0.200625   0.032027   0.400531  -0.039776
   31  O  5  Z   -0.120159   0.087725  -0.014606  -0.129417   0.015088
   32  C  6  S   -0.004664  -0.050454  -0.167887   0.061883  -0.008432
   33  C  6  S    0.001435   0.013551   0.075903   0.000280  -0.107162
   34  C  6  X    0.007567   0.056528   0.136790   0.475945   0.116590
   35  C  6  Y    0.055099  -0.045572  -0.175408  -0.044588   0.212875
   36  C  6  Z    0.175170  -0.012838   0.059044   0.017088  -0.069635
   37  C  6  S    0.068368   0.755710   2.188016  -0.458057   0.398205
   38  C  6  X    0.035579   0.356984   0.652219   1.526448   0.458968
   39  C  6  Y    0.137189  -0.096055  -0.535940  -0.395342   2.154763
   40  C  6  Z    0.418113  -0.030734   0.183916   0.138236  -0.708823
   41  H  7  S    0.004765   0.026458  -0.032189   0.086080  -0.070919
   42  H  7  S    0.099210   0.780581  -0.503971   0.343842   0.096929
   43  N  8  S    0.003398   0.045170  -0.021877  -0.011804  -0.044770
   44  N  8  S   -0.002079  -0.028151   0.015189  -0.008154   0.008260
   45  N  8  X    0.017162   0.169819  -0.113449  -0.036424   0.062815
   46  N  8  Y    0.054873   0.172856   0.027191  -0.018971  -0.130224
   47  N  8  Z    0.118978  -0.063658  -0.011990   0.004236   0.034830
   48  N  8  S   -0.033740  -0.472647   0.210190   0.215933   0.670503
   49  N  8  X    0.056093   0.583137  -0.268352  -0.226796  -0.387806
   50  N  8  Y    0.175520   0.527079   0.084679  -0.036279  -0.185950
   51  N  8  Z    0.396191  -0.196423  -0.033089   0.002829   0.039730
   52  H  9  S    0.041427  -0.009393  -0.042453  -0.028317   0.049358
   53  H  9  S    1.332160  -0.283199  -0.062007   0.000514  -0.220986
   54  H 10  S   -0.040654  -0.002770  -0.044622  -0.028163   0.038260
   55  H 10  S   -1.320662  -0.001987  -0.088544   0.024264  -0.184115

                     31         32         33         34         35
                    0.6777     0.7374     0.7621     0.7890     0.7932
                     A          A          A          A          A   
    1  C  1  S    0.000603  -0.001599   0.012037   0.036432  -0.008625
    2  C  1  S   -0.001962  -0.044080   0.014288  -0.159233   0.035284
    3  C  1  X   -0.000762  -1.052826   0.078063  -0.051379   0.001320
    4  C  1  Y   -0.129473   0.073790   0.182231  -0.875535   0.294984
    5  C  1  Z   -0.426902  -0.039759  -0.039015   0.332817   0.218022
    6  C  1  S   -0.009107  -0.075463  -0.732329   0.000483   0.035025
    7  C  1  X   -0.014358   1.521153  -0.187866   0.342374  -0.057000
    8  C  1  Y    0.192537  -0.154965  -0.953937   1.696850  -0.594899
    9  C  1  Z    0.680466   0.070635   0.257703  -0.676663  -0.564140
   10  H  2  S    0.397779   0.062064  -0.274439  -0.157849  -0.381701
   11  H  2  S   -0.165972  -0.130953   0.097547  -0.000890   0.302949
   12  H  3  S   -0.421454   0.057660  -0.234911   0.046910   0.425343
   13  H  3  S    0.171086  -0.125406   0.088092  -0.150020  -0.271420
   14  O  4  S    0.000711  -0.000217  -0.017757  -0.033008   0.007981
   15  O  4  S    0.000507   0.002970   0.022239  -0.002519  -0.000989
   16  O  4  X    0.001087   0.051919  -0.121006  -0.082880   0.022315
   17  O  4  Y   -0.002292   0.001031  -0.103211  -0.004720  -0.015882
   18  O  4  Z   -0.006940   0.000328   0.029813  -0.009968  -0.055797
   19  O  4  S   -0.013855   0.023581  -0.067618   0.551030  -0.118692
   20  O  4  X   -0.002714  -0.054279  -0.255813   0.012969   0.010496
   21  O  4  Y   -0.004084   0.021552  -0.145376  -0.283438   0.011209
   22  O  4  Z   -0.034534  -0.006303   0.040419   0.055507  -0.179672
   23  O  5  S   -0.000345  -0.014503  -0.000859   0.006766  -0.001182
   24  O  5  S   -0.000252   0.039983  -0.060049   0.007879   0.000353
   25  O  5  X    0.000508   0.065362  -0.131291   0.010506   0.002161
   26  O  5  Y   -0.005437  -0.073636  -0.053839  -0.040343  -0.016865
   27  O  5  Z   -0.017671   0.024258   0.015860  -0.009067  -0.084824
   28  O  5  S    0.008797   0.002539   0.613228  -0.135865   0.000713
   29  O  5  X    0.003520  -0.030700   0.152199  -0.070025   0.007986
   30  O  5  Y   -0.016747   0.022634   0.107082  -0.006354  -0.050657
   31  O  5  Z   -0.056185  -0.006709  -0.040796  -0.030461  -0.129060
   32  C  6  S    0.000371   0.013965  -0.001491  -0.004781   0.001512
   33  C  6  S   -0.005080   0.013509   0.066295   0.066134  -0.019378
   34  C  6  X   -0.004217  -0.237141  -0.839214  -0.076139   0.059689
   35  C  6  Y   -0.191158   0.027559  -0.448007  -0.252842  -0.204274
   36  C  6  Z   -0.592916  -0.005806   0.116223  -0.122250  -0.797854
   37  C  6  S    0.015558   0.566641   0.050052  -0.777675   0.181325
   38  C  6  X    0.021350   0.398216   1.754446  -0.308031  -0.017591
   39  C  6  Y    0.143227  -0.277917   0.359511  -0.443375   0.463582
   40  C  6  Z    0.383965   0.085832  -0.064436   0.417064   1.054495
   41  H  7  S   -0.000194  -0.215412   0.072864   0.022559  -0.008990
   42  H  7  S    0.002562   0.258103   0.215614   0.016936  -0.014299
   43  N  8  S   -0.001558   0.001394  -0.025631  -0.009727   0.003487
   44  N  8  S    0.001413   0.024111  -0.026025   0.087121  -0.021398
   45  N  8  X    0.008620  -0.176076   0.275427  -0.083454   0.003593
   46  N  8  Y   -0.017841   0.090661  -0.134659  -0.006029   0.037540
   47  N  8  Z   -0.032200  -0.026223   0.042916   0.030218   0.092894
   48  N  8  S    0.009514  -0.470104   0.468169  -0.469197   0.094352
   49  N  8  X   -0.008676   0.206850  -0.403211   0.354153  -0.065729
   50  N  8  Y    0.053939   0.090047   0.183099  -0.043736  -0.047429
   51  N  8  Z    0.172054  -0.024317  -0.068151  -0.032886  -0.185150
   52  H  9  S   -0.411953  -0.006555  -0.009311   0.354842   0.116018
   53  H  9  S    0.045601  -0.030308  -0.152361   0.319625  -0.025310
   54  H 10  S    0.414446  -0.015654  -0.035679   0.266971  -0.262810
   55  H 10  S   -0.049853  -0.032044  -0.146852   0.297473  -0.111337

                     36         37         38         39         40
                    0.8753     0.9155     1.0000     1.0111     1.0652
                     A          A          A          A          A   
    1  C  1  S    0.009690   0.003092   0.064185   0.004966   0.000108
    2  C  1  S   -0.054802   0.067139  -0.106687  -0.008801  -0.004220
    3  C  1  X   -0.011835  -0.053094   0.081709   0.019394  -0.015289
    4  C  1  Y    0.141928  -0.004600   0.475983  -0.248267   0.069323
    5  C  1  Z   -0.047598   0.005257  -0.066597  -0.962491   0.222976
    6  C  1  S    1.000537  -0.328543   0.403000   0.027123   0.007053
    7  C  1  X   -0.424656   0.138764   0.081786  -0.010228   0.028333
    8  C  1  Y    0.148792   0.134906  -0.364980   0.526219   0.004928
    9  C  1  Z   -0.040553  -0.044334  -0.034017   1.907418   0.048338
   10  H  2  S   -0.043553   0.752381  -0.010623  -0.505295  -0.546389
   11  H  2  S    0.024989  -0.453816  -0.036612   0.462136   0.734377
   12  H  3  S   -0.052940   0.753348  -0.082731   0.496659   0.522053
   13  H  3  S    0.030966  -0.455646   0.028642  -0.465985  -0.728364
   14  O  4  S   -0.024568  -0.008800   0.005611   0.000854   0.000964
   15  O  4  S    0.040874   0.014132  -0.005024  -0.000981  -0.003510
   16  O  4  X    0.088760   0.031621   0.024468  -0.000673  -0.008414
   17  O  4  Y   -0.257489   0.002865   0.103199   0.021359   0.032019
   18  O  4  Z    0.086310  -0.000755  -0.037868   0.046342   0.097425
   19  O  4  S   -0.332314   0.067580   0.094900   0.001860   0.000324
   20  O  4  X    0.138056  -0.018933  -0.041810  -0.001552   0.006210
   21  O  4  Y   -0.254889  -0.056880   0.030528   0.022244   0.001084
   22  O  4  Z    0.086441   0.018257  -0.013717   0.045127  -0.007937
   23  O  5  S   -0.014037  -0.003049  -0.003784  -0.000452   0.000686
   24  O  5  S    0.027842   0.007335  -0.002121   0.000686  -0.000969
   25  O  5  X   -0.056451   0.004038   0.026392   0.002253  -0.000060
   26  O  5  Y   -0.015118  -0.027127  -0.105690   0.014322   0.000987
   27  O  5  Z    0.004915   0.007996   0.030861   0.067371  -0.003752
   28  O  5  S    0.066026   0.013760   0.130836   0.006576  -0.009977
   29  O  5  X    0.040880  -0.024370   0.054886   0.001864  -0.003371
   30  O  5  Y   -0.122152   0.020888   0.076367   0.011123   0.007311
   31  O  5  Z    0.041243  -0.007180  -0.025885   0.012890   0.033537
   32  C  6  S    0.052449  -0.005274  -0.045383  -0.003132  -0.000272
   33  C  6  S   -0.210949   0.103289   0.629606   0.040971  -0.003478
   34  C  6  X    0.416256  -0.019103   0.002505   0.006407   0.005996
   35  C  6  Y   -0.949868  -0.109451   0.083854   0.017857   0.032178
   36  C  6  Z    0.321750   0.031113  -0.028826   0.019245   0.078957
   37  C  6  S   -0.508648  -0.085731  -0.476269  -0.005461   0.024552
   38  C  6  X   -1.019000   0.037524   0.191075   0.020754  -0.011669
   39  C  6  Y    1.307151  -0.030755  -0.069354  -0.132430  -0.083951
   40  C  6  Z   -0.445137   0.014222   0.051023  -0.369713  -0.211306
   41  H  7  S   -0.194461  -0.089104   0.065196   0.002029   0.004287
   42  H  7  S   -0.097529   0.078459   0.043220   0.003773  -0.006178
   43  N  8  S   -0.006004   0.043763  -0.005404  -0.000495  -0.001102
   44  N  8  S    0.028371  -0.018602   0.047183   0.004101   0.004493
   45  N  8  X   -0.102642   0.479844  -0.390329  -0.023063   0.010515
   46  N  8  Y   -0.000463  -0.383788  -0.242157  -0.049447  -0.164578
   47  N  8  Z   -0.004893   0.105847   0.069517  -0.074350  -0.566484
   48  N  8  S   -0.008043  -0.034827  -0.017383  -0.004269  -0.009147
   49  N  8  X    0.121002  -0.541068   0.428127   0.031402  -0.006603
   50  N  8  Y    0.021154   0.041187   0.315597  -0.074974   0.132855
   51  N  8  Z   -0.000435  -0.012150  -0.053579  -0.401235   0.404384
   52  H  9  S    0.063801   0.150802   0.630888   0.314418  -0.631849
   53  H  9  S   -0.024432   0.056932  -0.469446  -1.182623   0.595206
   54  H 10  S    0.073102   0.160033   0.674233  -0.220895   0.626495
   55  H 10  S   -0.022918   0.043773  -0.634601   1.090313  -0.600681

                     41         42         43         44         45
                    1.0781     1.1745     1.2723     1.3053     1.3652
                     A          A          A          A          A   
    1  C  1  S   -0.014812   0.010748  -0.045214   0.000984   0.043580
    2  C  1  S   -0.044883  -0.059224   0.220571   0.001074  -0.552747
    3  C  1  X   -0.115300  -0.291355   0.094695  -0.000743   0.061048
    4  C  1  Y    0.009636   0.028363  -0.160184  -0.004375   0.172158
    5  C  1  Z   -0.010409   0.001135   0.051150  -0.004272  -0.047692
    6  C  1  S    0.537409   0.111059   0.344287  -0.017612   0.206432
    7  C  1  X   -0.202189   1.255628   0.452910   0.027567   0.674104
    8  C  1  Y    0.222774  -0.129328   0.323607  -0.227844  -0.583055
    9  C  1  Z   -0.054568   0.007765  -0.099639  -0.856658   0.187431
   10  H  2  S    0.157048  -0.472611   0.135102   0.283773   0.143537
   11  H  2  S   -0.063628   0.079324  -0.595511   0.462865  -0.205067
   12  H  3  S    0.157033  -0.482044   0.127715  -0.300736   0.142733
   13  H  3  S   -0.065893   0.115819  -0.601610  -0.448185  -0.186113
   14  O  4  S    0.017174  -0.020699   0.000439  -0.001391  -0.001745
   15  O  4  S   -0.013474   0.030752   0.004043   0.002973   0.007810
   16  O  4  X    0.018952  -0.004353   0.004245  -0.001614  -0.169840
   17  O  4  Y   -0.033189   0.003933  -0.013609  -0.052069  -0.156328
   18  O  4  Z    0.011931  -0.004248   0.001942  -0.149245   0.053913
   19  O  4  S   -0.402231   0.364423  -0.085583   0.021933  -0.135060
   20  O  4  X    0.069409   0.175836  -0.047459   0.005184   0.077493
   21  O  4  Y    0.092024  -0.071681   0.004705   0.006681   0.142491
   22  O  4  Z   -0.030705   0.027818  -0.000713   0.037271  -0.048000
   23  O  5  S    0.030573   0.035505  -0.006019   0.001119   0.030821
   24  O  5  S   -0.053248  -0.031558   0.014939  -0.000858  -0.043273
   25  O  5  X    0.142355   0.086966   0.028545   0.005368   0.037855
   26  O  5  Y   -0.320815  -0.043966  -0.017626  -0.030822   0.242546
   27  O  5  Z    0.107766   0.017408   0.002289  -0.089812  -0.076796
   28  O  5  S    0.098288  -0.637598   0.099619  -0.022910  -0.423240
   29  O  5  X    0.211146  -0.295687   0.033395  -0.014974  -0.286374
   30  O  5  Y   -0.135403  -0.108811   0.007901   0.003302  -0.242944
   31  O  5  Z    0.046916   0.034026  -0.000382   0.015719   0.077452
   32  C  6  S   -0.000774  -0.005902   0.010148   0.000378   0.013624
   33  C  6  S   -0.069288  -0.306934  -0.129309  -0.012774  -1.370108
   34  C  6  X    0.012886   0.354919  -0.145507   0.004452  -0.223408
   35  C  6  Y   -0.148018   0.142520  -0.050336  -0.032742   0.141922
   36  C  6  Z    0.047293  -0.036587   0.013886  -0.117226  -0.045631
   37  C  6  S    0.001272   1.038539   0.082120   0.010937   2.415272
   38  C  6  X   -0.494628  -0.897479   0.230473  -0.034161   0.445023
   39  C  6  Y    0.769104  -1.042626   0.135795   0.087621  -0.711594
   40  C  6  Z   -0.259061   0.335390  -0.040511   0.421621   0.232410
   41  H  7  S    1.254052   0.254582   0.035090   0.001541   0.076242
   42  H  7  S   -1.011241  -0.388151   0.005579  -0.007017  -0.092891
   43  N  8  S    0.014693  -0.042397   0.031790  -0.000812   0.020934
   44  N  8  S   -0.042596   0.226023  -0.222691   0.006082  -0.140419
   45  N  8  X   -0.046114   0.385295  -0.641810   0.016168  -0.150010
   46  N  8  Y    0.155774  -0.575314  -0.682081  -0.243602  -0.005489
   47  N  8  Z   -0.045827   0.187806   0.172487  -0.883381   0.006879
   48  N  8  S   -0.044234  -0.462652   0.190517  -0.012742   0.023334
   49  N  8  X    0.074339  -0.273171   1.120170  -0.021965   0.250923
   50  N  8  Y   -0.262760   1.168143   1.088405   0.466216   0.096410
   51  N  8  Z    0.074324  -0.352474  -0.271419   1.674817  -0.039162
   52  H  9  S   -0.040268   0.046287  -0.394362   0.486484   0.328909
   53  H  9  S    0.036463  -0.091165   0.417914  -0.099804  -0.648465
   54  H 10  S   -0.038189   0.025098  -0.399820  -0.463537   0.334425
   55  H 10  S    0.050074  -0.123102   0.410750   0.106393  -0.661020

                     46         47         48         49         50
                    1.6066     1.6931     1.7525     1.7860     1.8138
                     A          A          A          A          A   
    1  C  1  S   -0.000283  -0.017163  -0.011827  -0.000352  -0.004388
    2  C  1  S   -0.006596  -0.917366  -0.770426  -0.018495  -0.044536
    3  C  1  X   -0.002275   0.044237   0.014728  -0.000251   0.001882
    4  C  1  Y    0.011336   0.016729  -0.087847  -0.024361   0.029281
    5  C  1  Z    0.050077  -0.004705   0.030706  -0.083890  -0.005956
    6  C  1  S    0.016978   1.738505   1.412116   0.039330   0.160858
    7  C  1  X    0.001396  -0.175367  -0.019859  -0.008521   0.043153
    8  C  1  Y   -0.038507  -0.080235   0.090545   0.189501   0.054327
    9  C  1  Z   -0.179997   0.016936  -0.041608   0.621993  -0.035608
   10  H  2  S   -0.026983  -0.004478  -0.023852  -0.119536   0.037656
   11  H  2  S    0.067371  -0.095404  -0.099238  -0.007859  -0.066705
   12  H  3  S    0.029624  -0.002059  -0.021381   0.120907   0.022558
   13  H  3  S   -0.075249  -0.111788  -0.113521   0.000953  -0.045094
   14  O  4  S   -0.000285  -0.045098   0.033986   0.000408   0.003357
   15  O  4  S    0.000493   0.147800  -0.136755  -0.002575  -0.035050
   16  O  4  X    0.003725   0.308802   0.570556  -0.006779  -0.598604
   17  O  4  Y   -0.167402   0.651517  -0.613862  -0.280145  -0.265927
   18  O  4  Z   -0.513779  -0.207114   0.211632  -0.829925   0.102249
   19  O  4  S    0.004288   0.238365  -0.043803   0.000384   0.148771
   20  O  4  X   -0.002113  -0.367636  -0.651767   0.007767   0.678324
   21  O  4  Y    0.142227  -0.901269   0.782152   0.334405   0.276743
   22  O  4  Z    0.445419   0.289285  -0.269063   0.989922  -0.109058
   23  O  5  S   -0.000081  -0.028457  -0.019730  -0.000482  -0.023792
   24  O  5  S   -0.000093   0.080634   0.084786   0.002143   0.130107
   25  O  5  X   -0.007354  -0.343306  -0.316851  -0.010202  -0.453152
   26  O  5  Y    0.276634  -0.298276  -0.005716  -0.173809  -0.595727
   27  O  5  Z    0.834305   0.094938   0.001007  -0.494795   0.205525
   28  O  5  S    0.000579   0.196062   0.154769   0.000110  -0.160811
   29  O  5  X    0.008168   0.511148   0.519719   0.013943   0.487778
   30  O  5  Y   -0.276522   0.430815   0.046230   0.222957   0.705521
   31  O  5  Z   -0.834012  -0.138676  -0.013891   0.638706  -0.245109
   32  C  6  S    0.000156   0.000164   0.030713   0.000387   0.017471
   33  C  6  S    0.004163  -0.278545   0.325309   0.000955  -0.075432
   34  C  6  X    0.001700   0.023853  -0.012146   0.002829   0.160758
   35  C  6  Y   -0.009171  -0.031206   0.199105   0.036067   0.161897
   36  C  6  Z   -0.025540   0.010490  -0.066589   0.098388  -0.054768
   37  C  6  S   -0.021807  -1.007070  -0.560745  -0.014209  -0.208386
   38  C  6  X   -0.011506   0.179387   0.276910  -0.000316  -0.193703
   39  C  6  Y    0.046907   0.013428   0.247465  -0.233896  -0.203566
   40  C  6  Z    0.136937   0.001619  -0.075913  -0.727558   0.082214
   41  H  7  S   -0.000596  -0.081933   0.072852  -0.001739  -0.233919
   42  H  7  S   -0.000292   0.165509   0.151215   0.006337   0.241146
   43  N  8  S    0.000604   0.018237   0.014555   0.000681   0.003200
   44  N  8  S   -0.007884  -0.216426  -0.151806  -0.010022  -0.028585
   45  N  8  X   -0.001377   0.021814   0.040056   0.000296  -0.015069
   46  N  8  Y   -0.005940  -0.023806  -0.065999   0.031180  -0.002722
   47  N  8  Z   -0.024270   0.000881   0.014527   0.107262   0.001527
   48  N  8  S    0.004507   0.065309  -0.041196   0.003905   0.006731
   49  N  8  X    0.005093   0.138743   0.150499   0.006357   0.051551
   50  N  8  Y    0.017612   0.137972   0.198338  -0.096593   0.034720
   51  N  8  Z    0.063479  -0.024921  -0.041838  -0.349602  -0.006630
   52  H  9  S   -0.043913  -0.109532  -0.075333  -0.146947  -0.011902
   53  H  9  S    0.162458  -0.359517  -0.232773  -0.135678   0.003766
   54  H 10  S    0.040345  -0.112002  -0.080535   0.146204  -0.018030
   55  H 10  S   -0.153641  -0.358946  -0.241012   0.116361  -0.007277

                     51         52         53         54         55
                    1.9255     2.0492     2.4722     3.2345     3.4004
                     A          A          A          A          A   
    1  C  1  S   -0.050667  -0.053090  -0.093622  -0.001833   0.004836
    2  C  1  S   -0.660766  -1.332287  -0.916878   0.081009   0.025601
    3  C  1  X   -0.224797   0.103691   0.152597   0.004243  -0.005914
    4  C  1  Y    0.005038   0.001595   0.062885   0.000242  -0.009137
    5  C  1  Z   -0.007330   0.001798  -0.016887  -0.002354   0.004478
    6  C  1  S    2.684273   3.195300   3.351436  -0.192062  -0.477364
    7  C  1  X   -0.380446  -0.774283   0.240036  -0.152755   0.578000
    8  C  1  Y    0.702038   0.272907   0.695019  -0.157969   0.145997
    9  C  1  Z   -0.228555  -0.109562  -0.199880   0.066933  -0.057505
   10  H  2  S    0.006061  -0.016205   0.320647   0.061182  -0.031397
   11  H  2  S   -0.232713  -0.153230   0.193223   0.002487  -0.010429
   12  H  3  S   -0.012677  -0.022409   0.316598   0.062218  -0.038178
   13  H  3  S   -0.217837  -0.149646   0.192848   0.007732  -0.008326
   14  O  4  S    0.022146  -0.004602   0.003579  -0.001321   0.043927
   15  O  4  S   -0.126683   0.027186  -0.047844  -0.020636  -1.785193
   16  O  4  X   -0.415056  -0.239788  -0.090292   0.109817   0.031263
   17  O  4  Y    0.117984  -0.087567   0.016419  -0.015686   0.234312
   18  O  4  Z   -0.033420   0.031370  -0.010161   0.005494  -0.077670
   19  O  4  S   -0.101342   0.068842   0.047290   0.004105   3.075859
   20  O  4  X    0.726524   0.472789   0.204703  -0.386805  -0.103642
   21  O  4  Y   -0.119474   0.049117  -0.069958  -0.022218  -1.016787
   22  O  4  Z    0.033014  -0.019300   0.029835   0.006220   0.337720
   23  O  5  S    0.026527   0.010905  -0.005673   0.056926  -0.002204
   24  O  5  S   -0.150337  -0.148925   0.066199  -1.722355   0.036305
   25  O  5  X   -0.454414   0.687759  -0.037670  -0.153457   0.081265
   26  O  5  Y    0.560545  -0.169286   0.086282  -0.193725  -0.102321
   27  O  5  Z   -0.188213   0.060212  -0.027631   0.063336   0.035204
   28  O  5  S    0.058100   0.163049  -0.013883   2.571007  -0.193266
   29  O  5  X    0.832111  -1.013949   0.158722   0.514561  -0.295927
   30  O  5  Y   -0.890899   0.210218  -0.187810   0.641361   0.344332
   31  O  5  Z    0.299259  -0.076951   0.061764  -0.210276  -0.117792
   32  C  6  S    0.024655   0.029933   0.029470   0.040120  -0.000278
   33  C  6  S    0.683946   0.551476   0.180555   0.014354  -0.223835
   34  C  6  X    0.167486  -0.012478  -0.108835   0.118779  -0.006808
   35  C  6  Y   -0.101377  -0.074498  -0.019810   0.056386  -0.185718
   36  C  6  Z    0.033745   0.025137   0.003845  -0.018368   0.061926
   37  C  6  S   -1.997504  -1.445199  -1.198575  -0.908502  -0.805799
   38  C  6  X   -1.473030  -1.138857  -0.642114   1.077590   0.094830
   39  C  6  Y    1.178040   0.426407   0.461199   0.428543  -1.684300
   40  C  6  Z   -0.390926  -0.139982  -0.156998  -0.139678   0.563408
   41  H  7  S    0.399403  -0.282818   0.077287  -0.308673  -0.145256
   42  H  7  S    0.018765  -0.380205  -0.002410  -0.084166   0.033219
   43  N  8  S    0.022712   0.020458   0.015567   0.001557   0.001510
   44  N  8  S   -0.380158  -0.379168   1.737589   0.132048  -0.008830
   45  N  8  X    0.034870   0.077667  -0.196620  -0.062803   0.031263
   46  N  8  Y   -0.055420  -0.016735  -0.011352   0.027256  -0.036219
   47  N  8  Z    0.012801   0.005198   0.000989  -0.007557   0.009221
   48  N  8  S    0.147645   0.248279  -3.112051  -0.093859  -0.153227
   49  N  8  X    0.245699   0.127356   0.969052   0.076408   0.018483
   50  N  8  Y    0.241334   0.153715   0.085256  -0.128143   0.170192
   51  N  8  Z   -0.052548  -0.036816  -0.012857   0.031220  -0.040315
   52  H  9  S   -0.139366  -0.263817  -0.270955  -0.022447   0.053121
   53  H  9  S   -0.106178  -0.381834  -0.237728   0.016532   0.049265
   54  H 10  S   -0.156259  -0.264835  -0.273778  -0.019145   0.043528
   55  H 10  S   -0.086730  -0.390380  -0.226474   0.035017   0.038919

  ----- BETA SET ----- 

          ------------
          EIGENVECTORS
          ------------

                      1          2          3          4          5
                  -20.6933   -20.6707   -15.8910   -11.5627   -11.4870
                     A          A          A          A          A   
    1  C  1  S    0.000007   0.000008  -0.000645  -0.003425   0.987746
    2  C  1  S   -0.000414   0.000004  -0.002879  -0.002991   0.103069
    3  C  1  X    0.000127   0.000310   0.001310   0.000214   0.000002
    4  C  1  Y   -0.000155   0.000241   0.000648  -0.000537   0.000522
    5  C  1  Z    0.000077  -0.000093  -0.000167   0.000152  -0.000176
    6  C  1  S    0.000456   0.004782   0.020909   0.021792  -0.087250
    7  C  1  X    0.003651  -0.009167   0.008971  -0.012677   0.005461
    8  C  1  Y    0.002606  -0.003720   0.006710   0.008719  -0.005732
    9  C  1  Z   -0.001020   0.001293  -0.001794  -0.002821   0.001988
   10  H  2  S   -0.000515   0.000247   0.002342  -0.000393  -0.000781
   11  H  2  S    0.000305   0.000327   0.007319   0.000883   0.002407
   12  H  3  S   -0.000510   0.000317   0.002337  -0.000388  -0.000749
   13  H  3  S    0.000186   0.000291   0.007281   0.000776   0.002449
   14  O  4  S   -0.002780   0.983786  -0.000017   0.000167   0.000053
   15  O  4  S   -0.000398   0.100276  -0.000161   0.001651   0.000183
   16  O  4  X   -0.000744  -0.000190  -0.000009  -0.000560   0.000253
   17  O  4  Y    0.000084  -0.004567   0.000038   0.000418   0.000130
   18  O  4  Z   -0.000032   0.001523  -0.000026  -0.000138  -0.000039
   19  O  4  S    0.001447  -0.057450   0.001099  -0.004932  -0.001824
   20  O  4  X    0.004433   0.001078   0.000025   0.003577  -0.002566
   21  O  4  Y    0.000193   0.015311  -0.000513   0.004829   0.001143
   22  O  4  Z   -0.000042  -0.005099   0.000209  -0.001612  -0.000401
   23  O  5  S    0.983589   0.002765  -0.000014   0.000039  -0.000018
   24  O  5  S    0.098751   0.000074  -0.000316   0.001041  -0.000489
   25  O  5  X    0.001541  -0.000511  -0.000301   0.000110  -0.000618
   26  O  5  Y    0.003533   0.000733   0.000155   0.000987  -0.000007
   27  O  5  Z   -0.001171  -0.000251  -0.000049  -0.000326   0.000005
   28  O  5  S   -0.048643   0.002586   0.000584   0.002510   0.000714
   29  O  5  X   -0.006726   0.003148   0.001225   0.001412   0.001285
   30  O  5  Y   -0.008822  -0.004124  -0.000558  -0.004329   0.000464
   31  O  5  Z    0.002901   0.001403   0.000183   0.001437  -0.000166
   32  C  6  S   -0.000461   0.000212   0.000092   0.986715   0.002656
   33  C  6  S   -0.000919   0.001585  -0.000016   0.094177  -0.002660
   34  C  6  X   -0.001474   0.000008  -0.000719   0.000583  -0.000160
   35  C  6  Y   -0.000425   0.001772   0.000159   0.000104   0.000224
   36  C  6  Z    0.000134  -0.000592  -0.000072  -0.000046  -0.000084
   37  C  6  S    0.014911   0.016558  -0.004303  -0.047355   0.024875
   38  C  6  X   -0.014685  -0.000244  -0.001946  -0.013176   0.015467
   39  C  6  Y   -0.008756   0.026386  -0.000263   0.015908  -0.007040
   40  C  6  Z    0.002862  -0.008798   0.000042  -0.005291   0.002405
   41  H  7  S    0.003222   0.001434   0.000275   0.001015   0.000141
   42  H  7  S    0.003854  -0.000612   0.000239   0.001134   0.002014
   43  N  8  S   -0.000039  -0.000066   0.986214  -0.000017  -0.000225
   44  N  8  S   -0.000322  -0.000305   0.099114  -0.000584  -0.000979
   45  N  8  X    0.000461  -0.000244  -0.002062   0.000534   0.000048
   46  N  8  Y   -0.000278   0.000413   0.000712   0.000112   0.000168
   47  N  8  Z    0.000075  -0.000109  -0.000208  -0.000029  -0.000033
   48  N  8  S   -0.001177   0.003753  -0.057859   0.000398   0.011739
   49  N  8  X   -0.000416  -0.001154   0.009914  -0.000427  -0.006614
   50  N  8  Y    0.001568  -0.002608  -0.000760  -0.001042  -0.003331
   51  N  8  Z   -0.000371   0.000644   0.000288   0.000334   0.000773
   52  H  9  S    0.000337  -0.000618  -0.001341  -0.001603   0.000707
   53  H  9  S    0.000249  -0.000909  -0.000650   0.002401   0.014867
   54  H 10  S    0.000306  -0.000505  -0.001359  -0.001604   0.000741
   55  H 10  S   -0.000030  -0.000758  -0.000558   0.002540   0.014932

                      6          7          8          9         10
                   -1.6525    -1.5540    -1.4892    -1.2281    -1.0225
                     A          A          A          A          A   
    1  C  1  S   -0.026428   0.004951  -0.102154  -0.169764   0.050396
    2  C  1  S    0.027205  -0.004389   0.103130   0.161255  -0.041178
    3  C  1  X   -0.013914  -0.011260   0.063525  -0.069568  -0.193021
    4  C  1  Y    0.018367  -0.009830   0.045777  -0.005692   0.080080
    5  C  1  Z   -0.005911   0.003015  -0.012184  -0.000368  -0.036409
    6  C  1  S    0.022275  -0.000554   0.228291   0.555161  -0.211528
    7  C  1  X    0.018382  -0.036115  -0.010703  -0.029751  -0.058904
    8  C  1  Y   -0.002953  -0.019502   0.000792   0.021278   0.034269
    9  C  1  Z    0.000693   0.006729  -0.001054  -0.007130  -0.018464
   10  H  2  S    0.007152  -0.007495   0.106429  -0.093925   0.083494
   11  H  2  S   -0.001570  -0.001668  -0.000213  -0.035886   0.035141
   12  H  3  S    0.006908  -0.007314   0.106489  -0.094749   0.058888
   13  H  3  S   -0.001709  -0.000818   0.000301  -0.035920   0.024776
   14  O  4  S   -0.158537   0.141611   0.039815   0.033948   0.052680
   15  O  4  S    0.147226  -0.134082  -0.038749  -0.034245  -0.052619
   16  O  4  X   -0.005417  -0.010292   0.008197   0.022524   0.012657
   17  O  4  Y   -0.095928   0.068963   0.017197  -0.008977  -0.066101
   18  O  4  Z    0.031945  -0.023059  -0.005614   0.002832   0.020917
   19  O  4  S    0.501659  -0.460257  -0.127585  -0.113641  -0.195941
   20  O  4  X   -0.015778  -0.016356   0.010170   0.014921  -0.003112
   21  O  4  Y   -0.109333   0.079515   0.019395  -0.006324  -0.055183
   22  O  4  Z    0.036408  -0.026641  -0.006406   0.002029   0.017271
   23  O  5  S   -0.129374  -0.184682   0.003508   0.033210   0.036728
   24  O  5  S    0.117790   0.171365  -0.001679  -0.030331  -0.036994
   25  O  5  X    0.027339   0.014271   0.004753   0.064129   0.229996
   26  O  5  Y    0.049140   0.050680  -0.005971  -0.024810  -0.020122
   27  O  5  Z   -0.016306  -0.016938   0.002021   0.008481   0.007265
   28  O  5  S    0.399237   0.605960  -0.015177  -0.124302  -0.145138
   29  O  5  X    0.032309   0.039243  -0.002891   0.045659   0.210962
   30  O  5  Y    0.077331   0.065935  -0.006378  -0.022521  -0.011435
   31  O  5  Z   -0.025677  -0.021868   0.002146   0.007765   0.004334
   32  C  6  S   -0.130614   0.016417  -0.001307  -0.064475  -0.118986
   33  C  6  S    0.151504  -0.015205   0.007040   0.083819   0.142527
   34  C  6  X   -0.038349  -0.088076   0.037769   0.091585  -0.004627
   35  C  6  Y    0.079599  -0.152232  -0.048995  -0.098739  -0.110373
   36  C  6  Z   -0.026777   0.050206   0.016751   0.032646   0.034549
   37  C  6  S    0.126271  -0.017919  -0.007454   0.089909   0.343764
   38  C  6  X    0.040181   0.011083  -0.010814   0.016416   0.071801
   39  C  6  Y   -0.055500   0.039417   0.006529  -0.030777  -0.100156
   40  C  6  Z    0.018668  -0.013110  -0.002053   0.009835   0.032479
   41  H  7  S    0.044269   0.077182  -0.003747  -0.047206  -0.131980
   42  H  7  S    0.008758   0.009375  -0.005726  -0.021796  -0.069103
   43  N  8  S   -0.015426   0.017224  -0.197262   0.086532   0.000241
   44  N  8  S    0.015534  -0.017202   0.185261  -0.075267   0.001710
   45  N  8  X   -0.010457   0.006707  -0.073959  -0.084491   0.132091
   46  N  8  Y    0.000702  -0.001930   0.037640  -0.125896   0.161368
   47  N  8  Z   -0.000439   0.000774  -0.010687   0.033122  -0.067618
   48  N  8  S    0.036399  -0.035450   0.597664  -0.344279   0.009874
   49  N  8  X   -0.005033   0.004769  -0.076211  -0.022536   0.123839
   50  N  8  Y    0.006926  -0.013829   0.040117  -0.094083   0.150451
   51  N  8  Z   -0.001952   0.003601  -0.011381   0.025181  -0.062705
   52  H  9  S    0.008983  -0.002258   0.033898   0.098222  -0.052148
   53  H  9  S   -0.006178   0.000042  -0.012902  -0.005287  -0.021695
   54  H 10  S    0.008847  -0.002192   0.033761   0.098316  -0.045750
   55  H 10  S   -0.006548   0.000792  -0.013658  -0.004877  -0.019823

                     11         12         13         14         15
                   -1.0158    -0.9005    -0.8966    -0.8536    -0.8493
                     A          A          A          A          A   
    1  C  1  S    0.002430  -0.024801  -0.020109   0.026757  -0.009285
    2  C  1  S   -0.002001   0.016123   0.020518  -0.017011   0.006049
    3  C  1  X   -0.013720  -0.058770  -0.192437   0.083252  -0.031913
    4  C  1  Y    0.044256  -0.261092   0.029567   0.186130   0.024302
    5  C  1  Z    0.145775   0.075308  -0.010770   0.034016   0.270456
    6  C  1  S   -0.009326   0.185489   0.073847  -0.188875   0.064716
    7  C  1  X   -0.005395  -0.041139  -0.113359  -0.001091  -0.006014
    8  C  1  Y    0.037690  -0.192675   0.020040   0.118186   0.040998
    9  C  1  Z    0.125175   0.054926  -0.006540   0.047838   0.248415
   10  H  2  S   -0.196835   0.057377   0.043686  -0.021692   0.107123
   11  H  2  S   -0.094642   0.047523   0.038274  -0.001444   0.072524
   12  H  3  S    0.205897   0.051771   0.048015  -0.077405  -0.076166
   13  H  3  S    0.099063   0.042542   0.038747  -0.044317  -0.058365
   14  O  4  S    0.002245  -0.077468  -0.026494  -0.065661   0.019819
   15  O  4  S   -0.002352   0.071573   0.023562   0.059940  -0.017994
   16  O  4  X   -0.002468  -0.083379   0.197719   0.082496  -0.028530
   17  O  4  Y    0.003005   0.189807   0.073160   0.229822  -0.019088
   18  O  4  Z    0.020841  -0.066513  -0.023411  -0.027048   0.162205
   19  O  4  S   -0.007880   0.324310   0.112690   0.279230  -0.085155
   20  O  4  X   -0.002928  -0.066822   0.182268   0.086447  -0.029630
   21  O  4  Y    0.003228   0.170426   0.069706   0.220045  -0.016343
   22  O  4  Z    0.020753  -0.059893  -0.022295  -0.024060   0.160799
   23  O  5  S    0.002813  -0.004397  -0.040020  -0.042004   0.013537
   24  O  5  S   -0.002644   0.009382   0.038254   0.039239  -0.012670
   25  O  5  X    0.016856   0.113505  -0.221917   0.141157  -0.045996
   26  O  5  Y    0.004085  -0.049819  -0.121446  -0.152943   0.110301
   27  O  5  Z    0.015767   0.014433   0.038727   0.109877   0.148705
   28  O  5  S   -0.011832   0.003016   0.180602   0.186574  -0.059747
   29  O  5  X    0.015198   0.111442  -0.214017   0.158056  -0.051114
   30  O  5  Y    0.003843  -0.066166  -0.118524  -0.164377   0.116773
   31  O  5  Z    0.014322   0.019916   0.037775   0.116287   0.155308
   32  C  6  S   -0.007121   0.061646   0.033822   0.034673  -0.009848
   33  C  6  S    0.008648  -0.085105  -0.057059  -0.059782   0.017545
   34  C  6  X   -0.004531  -0.143996   0.280000   0.011038  -0.006486
   35  C  6  Y    0.004679  -0.110501  -0.045189  -0.153898   0.114049
   36  C  6  Z    0.036661   0.031961   0.016130   0.115358   0.163066
   37  C  6  S    0.019823  -0.160226  -0.061400  -0.041527   0.009295
   38  C  6  X    0.000555  -0.123416   0.204314   0.048901  -0.017710
   39  C  6  Y   -0.000129  -0.003586  -0.018445  -0.032948   0.069072
   40  C  6  Z    0.020887  -0.002650   0.007200   0.065328   0.147720
   41  H  7  S   -0.009563  -0.067398   0.085971  -0.114225   0.036423
   42  H  7  S   -0.005363  -0.041489   0.076060  -0.060569   0.019625
   43  N  8  S    0.000184   0.002375   0.028176  -0.014983   0.005473
   44  N  8  S    0.000076   0.002034  -0.024364   0.005160  -0.002363
   45  N  8  X    0.006769   0.147809   0.118254  -0.131905   0.041770
   46  N  8  Y    0.110701   0.100209   0.144936  -0.117792  -0.002685
[...]
   23  O  5  S    0.025686   0.011028  -0.005829   0.056932  -0.002267
   24  O  5  S   -0.144111  -0.151045   0.073395  -1.722066   0.038679
   25  O  5  X   -0.474967   0.677036  -0.038882  -0.154301   0.081574
   26  O  5  Y    0.561755  -0.156818   0.082802  -0.193662  -0.102221
   27  O  5  Z   -0.188886   0.056052  -0.026500   0.063297   0.035176
   28  O  5  S    0.058958   0.169257  -0.030164   2.570633  -0.197288
   29  O  5  X    0.864694  -0.990041   0.154445   0.515424  -0.297117
   30  O  5  Y   -0.892693   0.189890  -0.182619   0.641445   0.343724
   31  O  5  Z    0.300288  -0.070088   0.060023  -0.210294  -0.117604
   32  C  6  S    0.024811   0.031120   0.027799   0.040267  -0.000258
   33  C  6  S    0.678142   0.570254   0.164690   0.014057  -0.224202
   34  C  6  X    0.165444  -0.011898  -0.105357   0.118397  -0.007113
   35  C  6  Y   -0.100281  -0.077877  -0.017374   0.056336  -0.185973
   36  C  6  Z    0.033341   0.026195   0.003133  -0.018362   0.062008
   37  C  6  S   -2.007474  -1.518951  -1.122967  -0.912419  -0.805258
   38  C  6  X   -1.455566  -1.177203  -0.610497   1.077059   0.092702
   39  C  6  Y    1.183193   0.464564   0.423256   0.427637  -1.686776
   40  C  6  Z   -0.393068  -0.152863  -0.144250  -0.139389   0.564244
   41  H  7  S    0.405665  -0.273242   0.077103  -0.308607  -0.144991
   42  H  7  S    0.029950  -0.378728   0.000709  -0.083651   0.033289
   43  N  8  S    0.024344   0.022607   0.011951   0.001436   0.001606
   44  N  8  S   -0.350078  -0.352678   1.760896   0.135866  -0.007373
   45  N  8  X    0.022227   0.069117  -0.179499  -0.064218   0.032338
   46  N  8  Y   -0.052438  -0.014420  -0.026375   0.027901  -0.037311
   47  N  8  Z    0.011803   0.004457   0.005152  -0.007742   0.009515
   48  N  8  S    0.085448   0.178888  -3.107796  -0.099285  -0.156737
   49  N  8  X    0.271779   0.160164   0.941538   0.079181   0.017999
   50  N  8  Y    0.240504   0.158508   0.090606  -0.129065   0.172062
   51  N  8  Z   -0.051927  -0.037595  -0.014523   0.031498  -0.040757
   52  H  9  S   -0.141920  -0.274506  -0.260180  -0.022620   0.052942
   53  H  9  S   -0.106065  -0.389306  -0.222820   0.016509   0.048975
   54  H 10  S   -0.158765  -0.275918  -0.263041  -0.019315   0.043308
   55  H 10  S   -0.086157  -0.397026  -0.212277   0.035025   0.038546
 ...... END OF UHF CALCULATION ......
 CPU     0: STEP CPU TIME=     0.33 TOTAL CPU TIME=          0.4 (      0.0 MIN)
 TOTAL WALL CLOCK TIME=          0.4 SECONDS, CPU UTILIZATION IS    97.44%

     ----------------------------------------------------------------
     PROPERTY VALUES FOR THE UHF   SELF-CONSISTENT FIELD WAVEFUNCTION
     ----------------------------------------------------------------

          -----------------
          ENERGY COMPONENTS
          -----------------

         WAVEFUNCTION NORMALIZATION =       1.0000000000

                ONE ELECTRON ENERGY =    -725.7913600452
                TWO ELECTRON ENERGY =     267.7171899649
           NUCLEAR REPULSION ENERGY =     177.1409055342
                                      ------------------
                       TOTAL ENERGY =    -280.9332645460

 ELECTRON-ELECTRON POTENTIAL ENERGY =     267.7171899649
  NUCLEUS-ELECTRON POTENTIAL ENERGY =   -1005.5985100449
   NUCLEUS-NUCLEUS POTENTIAL ENERGY =     177.1409055342
                                      ------------------
             TOTAL POTENTIAL ENERGY =    -560.7404145457
               TOTAL KINETIC ENERGY =     279.8071499997
                 VIRIAL RATIO (V/T) =       2.0040246096

          ---------------------------------------
          MULLIKEN AND LOWDIN POPULATION ANALYSES
          ---------------------------------------

     ATOMIC MULLIKEN POPULATION IN EACH MOLECULAR ORBITAL
        ALPHA ORBITALS

                      1          2          3          4          5

                  1.000000   1.000000   1.000000   1.000000   1.000000

    1            -0.000038   0.000019   0.001912   0.002761   0.992694
    2            -0.000000   0.000000   0.000694   0.000002   0.000036
    3            -0.000000   0.000000   0.000691   0.000001   0.000036
    4             0.000002   0.996195   0.000000  -0.000992  -0.000004
    5             0.997549   0.000005  -0.000000  -0.000029   0.000003
    6             0.002127   0.003783  -0.000029   0.998174   0.003065
    7             0.000360  -0.000002  -0.000000   0.000022   0.000001
    8            -0.000000   0.000000   0.996742   0.000001   0.001177
    9             0.000000  -0.000000  -0.000006   0.000029   0.001494
   10            -0.000000  -0.000000  -0.000005   0.000031   0.001500

                      6          7          8          9         10

                  1.000000   1.000000   1.000000   1.000000   1.000000

    1             0.011833   0.071319   0.006040   0.541013   0.092108
    2             0.000655   0.025403   0.000651   0.017452   0.138091
    3             0.000635   0.025674   0.000734   0.017775   0.079854
    4             0.434132   0.006128   0.391178   0.022042   0.005488
    5             0.318844   0.061644   0.491153   0.033542   0.012859
    6             0.186792   0.004568   0.063970   0.137646   0.023585
    7             0.013288   0.003601   0.024274   0.009204   0.003402
    8             0.034884   0.801085   0.022028   0.167727   0.623052
    9            -0.000510   0.000308  -0.000039   0.026641   0.017182
   10            -0.000553   0.000271   0.000012   0.026960   0.004380

                     11         12         13         14         15

                  1.000000   1.000000   1.000000   1.000000   1.000000

    1             0.156278   0.083435   0.261126   0.029224   0.324576
    2             0.001769   0.002279   0.016899   0.000614   0.016608
    3             0.060910   0.002293   0.016509   0.000242   0.015920
    4             0.041681   0.034933   0.159718   0.374150   0.090743
    5             0.136513   0.178352   0.097622   0.217121   0.137601
    6             0.192991   0.096779   0.063718   0.147913   0.193004
    7             0.037565   0.043244   0.008743   0.058084   0.001632
    8             0.352875   0.544710   0.268428   0.167773   0.056154
    9             0.003498   0.006245   0.052737   0.000898   0.089329
   10             0.015921   0.007730   0.054501   0.003982   0.074433

                     16         17         18         19         20

                  1.000000   1.000000   1.000000   1.000000   1.000000

    1             0.116017   0.233485   0.098333   0.002579   0.104446
    2             0.007119   0.006621   0.000628   0.000507   0.001821
    3             0.007426   0.007161   0.000609   0.000460   0.001276
    4             0.202924   0.113933   0.226510   0.469097   0.678233
    5             0.226743   0.343189   0.473056   0.447162   0.166067
    6             0.177537   0.141187   0.097163   0.070790   0.026410
    7             0.005806   0.000000   0.054443   0.000000   0.004438
    8             0.195903   0.011434   0.027210   0.000067   0.005172
    9             0.026923   0.070712   0.010551   0.004746   0.006044
   10             0.033603   0.072278   0.011499   0.004591   0.006093

     ATOMIC MULLIKEN POPULATION IN EACH MOLECULAR ORBITAL
         BETA ORBITALS

                      1          2          3          4          5

                  1.000000   1.000000   1.000000   1.000000   1.000000

    1            -0.000038   0.000019   0.001935   0.002759   0.992676
    2            -0.000000   0.000000   0.000690   0.000002   0.000036
    3            -0.000000   0.000000   0.000687   0.000001   0.000036
    4             0.000004   0.996192   0.000000  -0.000985  -0.000004
    5             0.997547   0.000007  -0.000000  -0.000023   0.000003
    6             0.002128   0.003784  -0.000031   0.998162   0.003068
    7             0.000359  -0.000002   0.000000   0.000023   0.000001
    8            -0.000000   0.000000   0.996731   0.000001   0.001190
    9             0.000000  -0.000000  -0.000007   0.000029   0.001495
   10            -0.000000  -0.000000  -0.000006   0.000030   0.001501

                      6          7          8          9         10

                  1.000000   1.000000   1.000000   1.000000   1.000000

    1             0.005550   0.008484   0.192255   0.493377   0.163359
    2             0.000082   0.000381   0.039216   0.035029   0.022657
    3             0.000065   0.000304   0.039549   0.035492   0.011326
    4             0.483962   0.336409   0.024624   0.017347   0.057600
    5             0.311202   0.561490   0.000405   0.035724   0.240115
    6             0.181600   0.059788   0.004655   0.115303   0.229145
    7             0.013391   0.028327   0.000204   0.009742   0.064515
    8             0.004985   0.004818   0.698556   0.201443   0.191183
    9            -0.000398  -0.000007   0.000389   0.028130   0.011278
   10            -0.000440   0.000006   0.000146   0.028413   0.008821

                     11         12         13         14         15

                  1.000000   1.000000   1.000000   1.000000   1.000000

    1             0.119201   0.297828   0.118966   0.143901   0.289858
    2             0.128581   0.011534   0.008662   0.000908   0.033201
    3             0.140708   0.009366   0.009709   0.017010   0.016909
    4             0.002200   0.262123   0.177715   0.284823   0.114456
    5             0.002407   0.062313   0.272320   0.240858   0.145117
    6             0.007629   0.121025   0.244973   0.085098   0.176695
    7             0.000343   0.015978   0.028886   0.043781   0.004458
    8             0.569596   0.112790   0.136947   0.113036   0.074246
    9             0.014163   0.052832   0.001066   0.007206   0.101960
   10             0.015173   0.054210   0.000758   0.063379   0.043101

                     16         17         18         19

                  1.000000   1.000000   1.000000   1.000000

    1             0.239937   0.100944   0.001223   0.105929
    2             0.009959  -0.000011   0.000341   0.001141
    3             0.010325   0.000010   0.000336   0.000730
    4             0.145552   0.242268   0.467940   0.687051
    5             0.303142   0.501550   0.481458   0.170891
    6             0.135821   0.082219   0.042715   0.016530
    7             0.000026   0.052123  -0.000000   0.003132
    8             0.014224   0.006740   0.000124   0.006702
    9             0.068886   0.008112   0.002912   0.004161
   10             0.072129   0.006045   0.002952   0.003734

     ATOMIC SPIN POPULATION (ALPHA MINUS BETA)
       ATOM         MULL.POP.                    LOW.POP.
    1 C            -0.149001                    -0.077594
    2 H            -0.054557                    -0.037238
    3 H            -0.054354                    -0.037074
    4 O            -0.053185                    -0.047643
    5 O             0.012473                     0.013348
    6 C             0.120858                     0.093792
    7 H             0.002814                     0.002532
    8 N             1.143105                     1.065304
    9 H             0.014575                     0.011168
   10 H             0.017272                     0.013405


          ********* ALL ELECTRONS ********

               ----- POPULATIONS IN EACH AO -----
                             MULLIKEN      LOWDIN
              1  C  1  S      1.98902     1.97609
              2  C  1  S      0.35673     0.42506
              3  C  1  X      0.43969     0.42354
              4  C  1  Y      0.56804     0.54310
              5  C  1  Z      0.61665     0.59080
              6  C  1  S      1.12238     0.57778
              7  C  1  X      0.17453     0.43227
              8  C  1  Y      0.46182     0.55381
              9  C  1  Z      0.67847     0.61939
             10  H  2  S      0.41248     0.41782
             11  H  2  S      0.11777     0.29014
             12  H  3  S      0.41298     0.41830
             13  H  3  S      0.11779     0.28978
             14  O  4  S      1.98738     1.98195
             15  O  4  S      0.43219     0.59257
             16  O  4  X      0.82974     0.83050
             17  O  4  Y      0.63949     0.62862
             18  O  4  Z      0.58518     0.57861
             19  O  4  S      1.56058     1.05044
             20  O  4  X      0.96782     1.00288
             21  O  4  Y      0.74825     0.80082
             22  O  4  Z      0.79472     0.80798
             23  O  5  S      1.98623     1.98030
             24  O  5  S      0.41647     0.57376
             25  O  5  X      0.55160     0.53215
             26  O  5  Y      0.73102     0.72825
             27  O  5  Z      0.80595     0.81318
             28  O  5  S      1.52101     1.01977
             29  O  5  X      0.69475     0.73183
             30  O  5  Y      0.93929     0.94060
             31  O  5  Z      1.01920     1.00752
             32  C  6  S      1.98668     1.97572
             33  C  6  S      0.43584     0.43432
             34  C  6  X      0.51479     0.49147
             35  C  6  Y      0.59247     0.56126
             36  C  6  Z      0.37555     0.35880
             37  C  6  S      0.51071     0.50636
             38  C  6  X      0.24989     0.44368
             39  C  6  Y      0.07934     0.42008
             40  C  6  Z      0.39622     0.46313
             41  H  7  S      0.37779     0.39140
             42  H  7  S      0.15560     0.28212
             43  N  8  S      1.98802     1.97903
             44  N  8  S      0.38822     0.50119
             45  N  8  X      0.55147     0.54268
             46  N  8  Y      0.57727     0.56133
             47  N  8  Z      0.64710     0.62000
             48  N  8  S      1.34564     0.78413
             49  N  8  X      0.57566     0.59635
             50  N  8  Y      0.62417     0.60930
             51  N  8  Z      0.71220     0.68450
             52  H  9  S      0.44496     0.44792
             53  H  9  S      0.17403     0.36956
             54  H 10  S      0.44404     0.44701
             55  H 10  S      0.17313     0.36906

          ----- MULLIKEN ATOMIC OVERLAP POPULATIONS -----
          (OFF-DIAGONAL ELEMENTS NEED TO BE MULTIPLIED BY 2)

             1           2           3           4           5

    1    5.7741430
    2   -0.0360638   0.2864693
    3   -0.0349701  -0.0158706   0.2864796
    4   -0.0900156   0.0036223   0.0025693   8.1583826
    5   -0.0826216   0.0000381   0.0000262  -0.0522676   8.2877068
    6    0.1023837   0.0020880   0.0019715   0.5204829   0.2453604
    7    0.0052929  -0.0000019  -0.0000014   0.0009045   0.2617883
    8    0.0791848   0.2897765   0.2906579   0.0006204   0.0005151
    9    0.3447224   0.0019478  -0.0019942   0.0005817   0.0026285
   10    0.3452694  -0.0017514   0.0019016   0.0004846   0.0023428

             6           7           8           9          10

    6    4.3888086
    7   -0.0296060   0.2952778
    8   -0.0346254  -0.0000427   6.8313129
    9   -0.0275007  -0.0001132  -0.0237995   0.3328792
   10   -0.0278847  -0.0001081  -0.0238647  -0.0103640   0.3311515

          TOTAL MULLIKEN AND LOWDIN ATOMIC POPULATIONS
       ATOM         MULL.POP.    CHARGE          LOW.POP.     CHARGE
    1 C             6.407325   -0.407325         6.141830   -0.141830
    2 H             0.530254    0.469746         0.707959    0.292041
    3 H             0.530770    0.469230         0.708080    0.291920
    4 O             8.545365   -0.545365         8.274368   -0.274368
    5 O             8.665517   -0.665517         8.327363   -0.327363
    6 C             5.141478    0.858522         5.654822    0.345178
    7 H             0.533390    0.466610         0.673515    0.326485
    8 N             7.409735   -0.409735         6.878511    0.121489
    9 H             0.618988    0.381012         0.817483    0.182517
   10 H             0.617177    0.382823         0.816069    0.183931

          -------------------------------
          BOND ORDER AND VALENCE ANALYSIS     BOND ORDER THRESHOLD=0.050
          -------------------------------

                   BOND                       BOND                       BOND
  ATOM PAIR DIST  ORDER      ATOM PAIR DIST  ORDER      ATOM PAIR DIST  ORDER
    1   6  1.525  0.812        1   8  1.467  0.726        1   9  1.095  0.827
    1  10  1.096  0.825        2   8  1.025  0.746        3   8  1.025  0.748
    4   5  2.295  0.095        4   6  1.225  1.825        5   6  1.381  0.977
    5   7  0.999  0.738

                       TOTAL       BONDED        FREE
      ATOM            VALENCE     VALENCE     VALENCE
    1 C                 3.215       3.206       0.009
    2 H                 0.756       0.753       0.003
    3 H                 0.755       0.752       0.003
    4 O                 1.977       1.975       0.002
    5 O                 1.829       1.829       0.000
    6 C                 3.635       3.628       0.007
    7 H                 0.771       0.771       0.000
    8 N                 3.152       2.246       0.906
    9 H                 0.826       0.825       0.000
   10 H                 0.824       0.824       0.000

          -----------------------------------------
          ATOMIC SPIN DENSITY AT THE NUCLEUS (A.U.)
          -----------------------------------------
                            SPIN DENS    ALPHA DENS     BETA DENS
    1  C            6.0    -0.0394450      47.01823      47.05767
    2  H            1.0    -0.0187206       0.15282       0.17154
    3  H            1.0    -0.0185495       0.15309       0.17164
    4  O            8.0    -0.0141148     116.96525     116.97937
    5  O            8.0     0.0190377     116.77146     116.75242
    6  C            6.0     0.0639124      46.98247      46.91856
    7  H            1.0     0.0012598       0.15231       0.15105
    8  N            7.0     0.4967704      76.94410      76.44733
    9  H            1.0     0.0056870       0.17638       0.17069
   10  H            1.0     0.0069682       0.17664       0.16967

          ---------------------
          ELECTROSTATIC MOMENTS
          ---------------------

 POINT   1           X           Y           Z (BOHR)    CHARGE
                 0.137365   -0.123926   -0.259235        1.00 (A.U.)
         DX          DY          DZ         /D/  (DEBYE)
     6.006951   -1.332493    0.611992    6.183327
 ...... END OF PROPERTY EVALUATION ......
 CPU     0: STEP CPU TIME=     0.02 TOTAL CPU TIME=          0.4 (      0.0 MIN)
 TOTAL WALL CLOCK TIME=          0.4 SECONDS, CPU UTILIZATION IS    95.24%
               580000  WORDS OF DYNAMIC MEMORY USED
 EXECUTION OF GAMESS TERMINATED NORMALLY Sun May 17 13:16:05 2020
 DDI: 263640 bytes (0.3 MB / 0 MWords) used by master data server.
Note: The following floating-point exceptions are signalling: IEEE_DENORMALNote: The following floating-point exceptions are signalling: IEEE_DENORMALNote: The following floating-point exceptions are signalling:Note: The following floating-point exceptions are signalling: IEEE_DENORMAL
 ----------------------------------------
 CPU timing information for all processes
 ========================================
 0: 0.320 + 0.91 = 0.411
 1: 0.289 + 0.16 = 0.306
 2: 0.286 + 0.16 = 0.302
 3: 0.291 + 0.12 = 0.303
 4: 0.282 + 0.20 = 0.302
 5: 0.281 + 0.16 = 0.297
 ----------------------------------------

Note: The following floating-point exceptions are signalling:
 IEEE_DENORMAL

Note: The following floating-point exceptions are signalling: IEEE_DENORMAL IEEE_DENORMAL

 ddikick.x: exited gracefully.
unset echo
----- accounting info -----
Files used on the master node pietdev were:
-rwxr-xr-x 1 piet piet      725 mei 17 13:16 /home/piet/scr/glycine_fukui_base.F05*
-rw-r--r-- 1 piet piet 68812800 mei 17 13:16 /home/piet/scr/glycine_fukui_base.F10
ls: No match.
ls: No match.
ls: No match.
zo 17 mei 2020 13:16:08 CEST
0.100u 0.029s 0:03.57 3.3%	0+0k 0+8io 0pf+0w
