----- GAMESS execution script 'rungms' -----
This job is running on host pietdev
under operating system Linux at zo 17 mei 2020 13:15:41 CEST
Available scratch disk space (Kbyte units) at beginning of the job is
Filesystem     1K-blocks     Used Available Use% Mounted on
/dev/sda2      244568380 30358720 201716604  14% /
GAMESS temporary binary files will be written to /home/piet/scr
GAMESS supplementary output files will be written to /home/piet/gamess/scr
Copying input file glycine_fukui_neu.inp to your run's scratch directory...
cp glycine_fukui_neu.inp /home/piet/scr/glycine_fukui_neu.F05
unset echo
 
Assuming a single but multicore node.
 
/home/piet/gamess/ddikick.x /home/piet/gamess/gamess.03.x glycine_fukui_neu -ddi 1 6 pietdev:cpus=6 -scr /home/piet/scr

 Distributed Data Interface kickoff program.
 Initiating 6 compute processes on 1 nodes to run the following command:
 /home/piet/gamess/gamess.03.x glycine_fukui_neu 

          ******************************************************
          *         GAMESS VERSION = 30 SEP 2019 (R2)          *
          *             FROM IOWA STATE UNIVERSITY             *
          * M.W.SCHMIDT, K.K.BALDRIDGE, J.A.BOATZ, S.T.ELBERT, *
          *   M.S.GORDON, J.H.JENSEN, S.KOSEKI, N.MATSUNAGA,   *
          *          K.A.NGUYEN, S.J.SU, T.L.WINDUS,           *
          *       TOGETHER WITH M.DUPUIS, J.A.MONTGOMERY       *
          *         J.COMPUT.CHEM.  14, 1347-1363(1993)        *
          **************** 64 BIT LINUX VERSION ****************

  SINCE 1993, STUDENTS AND POSTDOCS WORKING AT IOWA STATE UNIVERSITY
  AND ALSO IN THEIR VARIOUS JOBS AFTER LEAVING ISU HAVE MADE IMPORTANT
  CONTRIBUTIONS TO THE CODE:
     IVANA ADAMOVIC, CHRISTINE AIKENS, YURI ALEXEEV, POOJA ARORA,
     ANDREY ASADCHEV, ROB BELL, PRADIPTA BANDYOPADHYAY, JONATHAN BENTZ,
     COLLEEN BERTONI, BRETT BODE, KURT BRORSEN, CALEB CARLIN, GALINA CHABAN,
     WEI CHEN, CHEOL HO CHOI, PAUL DAY, ALBERT DEFUSCO, NUWAN DESILVA,
     TIM DUDLEY, DMITRI FEDOROV, ALEX FINDLATER, GRAHAM FLETCHER, 
     MARK FREITAG, KURT GLAESEMANN, EMILIE B GUIDEZ, ANASTASIA GUNINA, 
     DAN KEMP, SAROM SOK LEANG, GRANT MERRILL,
     NORIYUKI MINEZAWA, JONATHAN MULLIN,
     TAKESHI NAGATA, SEAN NEDD, HEATHER NETZLOFF, BOSILJKA NJEGIC, RYAN OLSON,
     MIKE PAK, BUU PHAM, DAVID POOLE,
     SPENCER PRUITT, LUKE ROSKOP, TOSAPORN SATTASATHUCHANA,
     JIM SHOEMAKER, LYUDMILA SLIPCHENKO,
     TONY SMITH, JIE SONG, TETSUYA TAKETSUGU, SIMON WEBB,
     JORGE LUIS GALVEZ VALLEJO, PENG XU, SOOHAENG YOO,
     FEDERICO ZAHARIEV

  ADDITIONAL CODE HAS BEEN PROVIDED BY COLLABORATORS IN OTHER GROUPS:
     IOWA STATE UNIVERSITY:
          JOE IVANIC, AARON WEST, LAIMUTIS BYTAUTAS, KLAUS RUEDENBERG
     UNIVERSITY OF TOKYO: KIMIHIKO HIRAO, TAKAHITO NAKAJIMA,
          TAKAO TSUNEDA, MUNEAKI KAMIYA, SUSUMU YANAGISAWA,
          KIYOSHI YAGI, MAHITO CHIBA, SEIKEN TOKURA, NAOAKI KAWAKAMI
     UNIVERSITY OF AARHUS: FRANK JENSEN
     UNIVERSITY OF IOWA: VISVALDAS KAIRYS, HUI LI
     NATIONAL INST. OF STANDARDS AND TECHNOLOGY: WALT STEVENS, DAVID GARMER
     UNIVERSITY OF PISA: BENEDETTA MENNUCCI, JACOPO TOMASI
     UNIVERSITY OF MEMPHIS: HENRY KURTZ, PRAKASHAN KORAMBATH
     UNIVERSITY OF ALBERTA: TOBY ZENG, MARIUSZ KLOBUKOWSKI
     UNIVERSITY OF NEW ENGLAND: MARK SPACKMAN
     MIE UNIVERSITY: HIROAKI UMEDA
     NAT. INST. OF ADVANCED INDUSTRIAL SCIENCE AND TECHNOLOGY: KAZUO KITAURA
     MICHIGAN STATE UNIVERSITY:
          KAROL KOWALSKI, MARTA WLOCH, JEFFREY GOUR, JESSE LUTZ,
          WEI LI, JUN SHEN, J. EMILIANO DEUSTUA, PIOTR PIECUCH
     UNIVERSITY OF MINNESOTA:
          ANDREW SAND, PRACHI SHARMA, YINAN SHU
     UNIVERSITY OF SILESIA: MONIKA MUSIAL, STANISLAW KUCHARSKI
     FACULTES UNIVERSITAIRES NOTRE-DAME DE LA PAIX:
          OLIVIER QUINET, BENOIT CHAMPAGNE
     UNIVERSITY OF CALIFORNIA - SANTA BARBARA: BERNARD KIRTMAN
     INSTITUTE FOR MOLECULAR SCIENCE:
          KAZUYA ISHIMURA, MICHIO KATOUDA, AND SHIGERU NAGASE
     UNIVERSITY OF NOTRE DAME: ANNA POMOGAEVA, DAN CHIPMAN
     KYUSHU UNIVERSITY:
          HARUYUKI NAKANO,
          FENG LONG GU, JACEK KORCHOWIEC, MARCIN MAKOWSKI, AND YURIKO AOKI,
          HIROTOSHI MORI AND EISAKU MIYOSHI
     PENNSYLVANIA STATE UNIVERSITY:
          TZVETELIN IORDANOV, CHET SWALINA, JONATHAN SKONE,
          SHARON HAMMES-SCHIFFER
     WASEDA UNIVERSITY:
          MASATO KOBAYASHI, TOMOKO AKAMA, TSUGUKI TOUMA,
          TAKESHI YOSHIKAWA, YASUHIRO IKABATA, JUNJI SEINO,
          YUYA NAKAJIMA, HIROMI NAKAI
     NANJING UNIVERSITY: SHUHUA LI
     UNIVERSITY OF NEBRASKA:
          PEIFENG SU, DEJUN SI, NANDUN THELLAMUREGE, YALI WANG, HUI LI
     UNIVERSITY OF ZURICH: ROBERTO PEVERATI, KIM BALDRIDGE
     N. COPERNICUS UNIVERSITY AND JACKSON STATE UNIVERSITY:
          MARIA BARYSZ
     UNIVERSITY OF COPENHAGEN: Jimmy Kromann, CASPER STEINMANN
     TOKYO INSTITUTE OF TECHNOLOGY: HIROYA NAKATA
     NAGOYA UNIVERSITY: YOSHIO NISHIMOTO, STEPHAN IRLE
     MOSCOW STATE UNIVERSITY: VLADIMIR MIRONOV
     A.N.NESMEYANOV INSTITUTE OF ORGANOELEMENT COMPOUNDS OF RUSSIAN ACADEMY OF SCIENCES:
          IGOR S. GERASIMOV
     JOHANNES KEPLER UNIVERSITY LINZ:
          CHRISTIAN FRIEDL


 PARALLEL VERSION RUNNING ON        6 PROCESSORS IN        1 NODES.

 EXECUTION OF GAMESS BEGUN Sun May 17 13:15:41 2020

            ECHO OF THE FIRST FEW INPUT CARDS -
 INPUT CARD> $BASIS GBASIS=N21 NGAUSS=3 $END                                                
 INPUT CARD> $CONTRL SCFTYP=RHF MAXIT=60 MULT=1 ICHARG=0 $END                               
 INPUT CARD> $SYSTEM MEMDDI=1000 MWORDS=30 $END                                             
 INPUT CARD> $SCF DIRSCF=.TRUE. $END                                                        
 INPUT CARD> $DATA                                                                          
 INPUT CARD>                                                                                
 INPUT CARD>C1                                                                              
 INPUT CARD>C 6.0000000 0.7768804930 -0.8506832387 0.1156484895                             
 INPUT CARD>H 1.0000000 2.1760863871 0.1666447778 -1.0135279030                             
 INPUT CARD>H 1.0000000 2.1688412990 0.6025425501 0.5894630030                              
 INPUT CARD>O 8.0000000 -0.3635225545 1.2150951238 -0.5732592945                            
 INPUT CARD>O 8.0000000 -1.5965475292 -0.6231806922 0.0326933731                            
 INPUT CARD>C 6.0000000 -0.4131728702 0.0537441959 -0.1864022053                            
 INPUT CARD>H 1.0000000 -2.3574447685 -0.0115380560 -0.1774226156                           
 INPUT CARD>N 7.0000000 2.0737126196 -0.1871128237 -0.0569628468                            
 INPUT CARD>H 1.0000000 0.6753066106 -1.2192260255 1.1419168956                             
 INPUT CARD>H 1.0000000 0.7132303132 -1.7260158115 -0.5404268960                            
 INPUT CARD> $END                                                                           
   30000000 WORDS OF MEMORY AVAILABLE

     BASIS OPTIONS
     -------------
     GBASIS=N21          IGAUSS=       3      POLAR=NONE    
     NDFUNC=       0     NFFUNC=       0     DIFFSP=       F
     NPFUNC=       0      DIFFS=       F     BASNAM=        


     RUN TITLE
     ---------
                                                                                 

 THE POINT GROUP OF THE MOLECULE IS C1      
 THE ORDER OF THE PRINCIPAL AXIS IS     0

 ATOM      ATOMIC                      COORDINATES (BOHR)
           CHARGE         X                   Y                   Z
 C           6.0     1.4680912570       -1.6075582235        0.2185439560
 H           1.0     4.1122069972        0.3149129673       -1.9152900176
 H           1.0     4.0985157660        1.1386403156        1.1139235556
 O           8.0    -0.6869580184        2.2961968330       -1.0833029865
 O           8.0    -3.0170373566       -1.1776407491        0.0617815168
 C           6.0    -0.7807835102        0.1015618037       -0.3522490915
 H           1.0    -4.4549246437       -0.0218037643       -0.3352801275
 N           7.0     3.9187486283       -0.3535919656       -0.1076441719
 H           1.0     1.2761444517       -2.3040031053        2.1579100334
 H           1.0     1.3478098581       -3.2616969342       -1.0212587498

          INTERNUCLEAR DISTANCES (ANGS.)
          ------------------------------

                1 C          2 H          3 H          4 O          5 O     

   1 C       0.0000000    2.0658588 *  2.0673462 *  2.4581605 *  2.3857493 *
   2 H       2.0658588 *  0.0000000    1.6612162 *  2.7825704 *  3.9938916  
   3 H       2.0673462 *  1.6612162 *  0.0000000    2.8530704 *  3.9988177  
   4 O       2.4581605 *  2.7825704 *  2.8530704 *  0.0000000    2.2949482 *
   5 O       2.3857493 *  3.9938916    3.9988177    2.2949482 *  0.0000000  
   6 C       1.5249428 *  2.7205049 *  2.7513531 *  1.2250957 *  1.3807990 *
   7 H       3.2579211    4.6134289    4.6316816    2.3742454 *  0.9986091 *
   8 N       1.4669335 *  1.0250081 *  1.0249251 *  2.8588222 *  3.6971615  
   9 H       1.0951566 *  2.9696667 *  2.4196471 *  3.1538730    2.5974927 *
  10 H       1.0957615 *  2.4384291 *  2.9694509 *  3.1321890    2.6229346 *

                6 C          7 H          8 N          9 H         10 H     

   1 C       1.5249428 *  3.2579211    1.4669335 *  1.0951566 *  1.0957615 *
   2 H       2.7205049 *  4.6134289    1.0250081 *  2.9696667 *  2.4384291 *
   3 H       2.7513531 *  4.6316816    1.0249251 *  2.4196471 *  2.9694509 *
   4 O       1.2250957 *  2.3742454 *  2.8588222 *  3.1538730    3.1321890  
   5 O       1.3807990 *  0.9986091 *  3.6971615    2.5974927 *  2.6229346 *
   6 C       0.0000000    1.9453883 *  2.5018725 *  2.1376792 *  2.1358051 *
   7 H       1.9453883 *  0.0000000    4.4362702    3.5209016    3.5355695  
   8 N       2.5018725 *  4.4362702    0.0000000    2.1114236 *  2.1101829 *
   9 H       2.1376792 *  3.5209016    2.1114236 *  0.0000000    1.7574284 *
  10 H       2.1358051 *  3.5355695    2.1101829 *  1.7574284 *  0.0000000  

  * ... LESS THAN  3.000


     ATOMIC BASIS SET
     ----------------
 THE CONTRACTED PRIMITIVE FUNCTIONS HAVE BEEN UNNORMALIZED
 THE CONTRACTED BASIS FUNCTIONS ARE NOW NORMALIZED TO UNITY

  SHELL TYPE  PRIMITIVE        EXPONENT          CONTRACTION COEFFICIENT(S)

 C         

      1   S       1           172.2560000    0.061766907377
      1   S       2            25.9109000    0.358794042852
      1   S       3             5.5333500    0.700713083689

      2   L       4             3.6649800   -0.395895162119    0.236459946619
      2   L       5             0.7705450    1.215834355681    0.860618805716

      3   L       6             0.1958570    1.000000000000    1.000000000000

 H         

      4   S       7             5.4471780    0.156284978695
      4   S       8             0.8245472    0.904690876670

      5   S       9             0.1831916    1.000000000000

 H         

      6   S      10             5.4471780    0.156284978695
      6   S      11             0.8245472    0.904690876670

      7   S      12             0.1831916    1.000000000000

 O         

      8   S      13           322.0370000    0.059239393389
      8   S      14            48.4308000    0.351499960776
      8   S      15            10.4206000    0.707657921031

      9   L      16             7.4029400   -0.404453583190    0.244586106967
      9   L      17             1.5762000    1.221561761397    0.853955373466

     10   L      18             0.3736840    1.000000000000    1.000000000000

 O         

     11   S      19           322.0370000    0.059239393389
     11   S      20            48.4308000    0.351499960776
     11   S      21            10.4206000    0.707657921031

     12   L      22             7.4029400   -0.404453583190    0.244586106967
     12   L      23             1.5762000    1.221561761397    0.853955373466

     13   L      24             0.3736840    1.000000000000    1.000000000000

 C         

     14   S      25           172.2560000    0.061766907377
     14   S      26            25.9109000    0.358794042852
     14   S      27             5.5333500    0.700713083689

     15   L      28             3.6649800   -0.395895162119    0.236459946619
     15   L      29             0.7705450    1.215834355681    0.860618805716

     16   L      30             0.1958570    1.000000000000    1.000000000000

 H         

     17   S      31             5.4471780    0.156284978695
     17   S      32             0.8245472    0.904690876670

     18   S      33             0.1831916    1.000000000000

 N         

     19   S      34           242.7660000    0.059865700508
     19   S      35            36.4851000    0.352955002994
     19   S      36             7.8144900    0.706513005993

     20   L      37             5.4252200   -0.413300077430    0.237972016222
     20   L      38             1.1491500    1.224417266851    0.858953058551

     21   L      39             0.2832050    1.000000000000    1.000000000000

 H         

     22   S      40             5.4471780    0.156284978695
     22   S      41             0.8245472    0.904690876670

     23   S      42             0.1831916    1.000000000000

 H         

     24   S      43             5.4471780    0.156284978695
     24   S      44             0.8245472    0.904690876670

     25   S      45             0.1831916    1.000000000000

 TOTAL NUMBER OF BASIS SET SHELLS             =   25
 NUMBER OF CARTESIAN GAUSSIAN BASIS FUNCTIONS =   55
 NUMBER OF ELECTRONS                          =   40
 CHARGE OF MOLECULE                           =    0
 SPIN MULTIPLICITY                            =    1
 NUMBER OF OCCUPIED ORBITALS (ALPHA)          =   20
 NUMBER OF OCCUPIED ORBITALS (BETA )          =   20
 TOTAL NUMBER OF ATOMS                        =   10
 THE NUCLEAR REPULSION ENERGY IS      177.1409055342

     $CONTRL OPTIONS
     ---------------
 SCFTYP=RHF          RUNTYP=ENERGY       EXETYP=RUN     
 MPLEVL=       0     CITYP =NONE         CCTYP =NONE         VBTYP =NONE    
 DFTTYP=NONE         TDDFT =NONE    
 MULT  =       1     ICHARG=       0     NZVAR =       0     COORD =UNIQUE  
 PP    =NONE         RELWFN=NONE         LOCAL =NONE         NUMGRD=       F
 ISPHER=      -1     NOSYM =       0     MAXIT =      60     UNITS =ANGS    
 PLTORB=       F     MOLPLT=       F     AIMPAC=       F     FRIEND=        
 NPRINT=       7     IREST =       0     GEOM  =INPUT   
 NORMF =       0     NORMP =       0     ITOL  =      20     ICUT  =       9
 INTTYP=BEST         GRDTYP=BEST         QMTTOL= 1.0E-06

     $SYSTEM OPTIONS
     ---------------
  REPLICATED MEMORY=    30000000 WORDS (ON EVERY NODE).
 DISTRIBUTED MEMDDI=        1000 MILLION WORDS IN AGGREGATE,
 MEMDDI DISTRIBUTED OVER   6 PROCESSORS IS   166666666 WORDS/PROCESSOR.
 TOTAL MEMORY REQUESTED ON EACH PROCESSOR=   196666666 WORDS.
 TIMLIM=      525600.00 MINUTES, OR     365.0 DAYS.
 PARALL= T  BALTYP=  DLB     KDIAG=    0  COREFL= F
 MXSEQ2=     300 MXSEQ3=     150  mem10=         0

          ----------------
          PROPERTIES INPUT
          ----------------

     MOMENTS            FIELD           POTENTIAL          DENSITY
 IEMOM =       1   IEFLD =       0   IEPOT =       0   IEDEN =       0
 WHERE =COMASS     WHERE =NUCLEI     WHERE =NUCLEI     WHERE =NUCLEI  
 OUTPUT=BOTH       OUTPUT=BOTH       OUTPUT=BOTH       OUTPUT=BOTH    
 IEMINT=       0   IEFINT=       0                     IEDINT=       0
                                                       MORB  =       0
          EXTRAPOLATION IN EFFECT
          SOSCF IN EFFECT
 ORBITAL PRINTING OPTION: NPREO=     1    55     2     1

     -------------------------------
     INTEGRAL TRANSFORMATION OPTIONS
     -------------------------------
     NWORD  =            0
     CUTOFF = 1.0E-09     MPTRAN =       0
     DIRTRF =       T     AOINTS =DUP     

          ----------------------
          INTEGRAL INPUT OPTIONS
          ----------------------
 NOPK  =       1 NORDER=       0 SCHWRZ=       T

     ------------------------------------------
     THE POINT GROUP IS C1 , NAXIS= 0, ORDER= 1
     ------------------------------------------

     DIMENSIONS OF THE SYMMETRY SUBSPACES ARE
 A   =   55

 ..... DONE SETTING UP THE RUN .....
 CPU     0: STEP CPU TIME=     0.03 TOTAL CPU TIME=          0.0 (      0.0 MIN)
 TOTAL WALL CLOCK TIME=          0.0 SECONDS, CPU UTILIZATION IS   100.00%

          ********************
          1 ELECTRON INTEGRALS
          ********************
 ...... END OF ONE-ELECTRON INTEGRALS ......
 CPU     0: STEP CPU TIME=     0.00 TOTAL CPU TIME=          0.0 (      0.0 MIN)
 TOTAL WALL CLOCK TIME=          0.0 SECONDS, CPU UTILIZATION IS    75.00%

          -------------
          GUESS OPTIONS
          -------------
          GUESS =HUCKEL            NORB  =       0          NORDER=       0
          MIX   =       F          PRTMO =       F          PUNMO =       F
          TOLZ  = 1.0E-08          TOLE  = 1.0E-05
          SYMDEN=       F          PURIFY=       F

 INITIAL GUESS ORBITALS GENERATED BY HUCKEL   ROUTINE.
 HUCKEL GUESS REQUIRES     32985 WORDS.

 SYMMETRIES FOR INITIAL GUESS ORBITALS FOLLOW.   BOTH SET(S).
    20 ORBITALS ARE OCCUPIED (    5 CORE ORBITALS).
     6=A        7=A        8=A        9=A       10=A       11=A       12=A   
    13=A       14=A       15=A       16=A       17=A       18=A       19=A   
    20=A       21=A       22=A       23=A       24=A       25=A       26=A   
    27=A       28=A       29=A       30=A   
 ...... END OF INITIAL ORBITAL SELECTION ......
 CPU     0: STEP CPU TIME=     0.02 TOTAL CPU TIME=          0.0 (      0.0 MIN)
 TOTAL WALL CLOCK TIME=          0.1 SECONDS, CPU UTILIZATION IS    83.33%

                    ----------------------
                    AO INTEGRAL TECHNOLOGY
                    ----------------------
     S,P,L SHELL ROTATED AXIS INTEGRALS, REPROGRAMMED BY
        KAZUYA ISHIMURA (IMS) AND JOSE SIERRA (SYNSTAR).
     S,P,D,L SHELL ROTATED AXIS INTEGRALS PROGRAMMED BY
        KAZUYA ISHIMURA (INSTITUTE FOR MOLECULAR SCIENCE).
     S,P,D,F,G SHELL TO TOTAL QUARTET ANGULAR MOMENTUM SUM 5,
        ERIC PROGRAM BY GRAHAM FLETCHER (ELORET AND NASA ADVANCED
        SUPERCOMPUTING DIVISION, AMES RESEARCH CENTER).
     S,P,D,F,G,L SHELL GENERAL RYS QUADRATURE PROGRAMMED BY
        MICHEL DUPUIS (PACIFIC NORTHWEST NATIONAL LABORATORY).

          --------------------
          2 ELECTRON INTEGRALS
          --------------------

 DIRECT SCF METHOD SKIPS INTEGRAL STORAGE ON DISK.
 DIRECT TRANSFORMATION SKIPS AO INTEGRAL STORAGE ON DISK.
  ...... END OF TWO-ELECTRON INTEGRALS .....
 CPU     0: STEP CPU TIME=     0.01 TOTAL CPU TIME=          0.1 (      0.0 MIN)
 TOTAL WALL CLOCK TIME=          0.1 SECONDS, CPU UTILIZATION IS   100.00%

          --------------------------
                 RHF SCF CALCULATION
          --------------------------

     NUCLEAR ENERGY =       177.1409055342
     MAXIT =   60     NPUNCH=    2
     EXTRAP=T  DAMP=F  SHIFT=F  RSTRCT=F  DIIS=F  DEM=F  SOSCF=T
     DENSITY MATRIX CONV=  2.00E-05
     SOSCF WILL OPTIMIZE     700 ORBITAL ROTATIONS, SOGTOL=   0.250
     MEMORY REQUIRED FOR RHF ITERS=     69751 WORDS.

 DIRECT SCF CALCULATION, SCHWRZ=T   FDIFF=T,  DIRTHR=  0.00E+00 NITDIR=10
 SCHWARZ INEQUALITY OVERHEAD:      1523 INTEGRALS, T=        0.00

                                                                                   NONZERO     BLOCKS
 ITER EX DEM     TOTAL ENERGY        E CHANGE  DENSITY CHANGE     ORB. GRAD      INTEGRALS    SKIPPED
   1  0  0     -280.4397769300  -280.4397769300   0.713037128   0.000000000        1007753      12079
          ---------------START SECOND ORDER SCF---------------
   2  1  0     -281.1478756485    -0.7080987185   0.172094250   0.105571879        1007033      12552
   3  2  0     -281.1818307669    -0.0339551184   0.085678817   0.091708027        1004633      13338
   4  3  0     -281.2422839395    -0.0604531725   0.026435423   0.008128348        1001139      14058
   5  4  0     -281.2434471688    -0.0011632293   0.008004306   0.002757586         991822      15093
   6  5  0     -281.2435469647    -0.0000997959   0.002144667   0.000834434         977250      16150
   7  6  0     -281.2435591762    -0.0000122115   0.000549342   0.000301256         962171      17206
   8  7  0     -281.2435604650    -0.0000012888   0.000252439   0.000086037         932372      18864
   9  8  0     -281.2435605802    -0.0000001152   0.000067428   0.000022820         911203      20246
  10  9  0     -281.2435605902    -0.0000000100   0.000020182   0.000005542         879209      22162
  11 10  0     -281.2435605915    -0.0000000012   0.000003922   0.000002156         847184      23788
  12 11  0     -281.2435605915    -0.0000000000   0.000002172   0.000000643         793621      26281

          -----------------
          DENSITY CONVERGED
          -----------------
     TIME TO FORM FOCK OPERATORS=       0.1 SECONDS (       0.0 SEC/ITER)
     FOCK TIME ON FIRST ITERATION=       0.0, LAST ITERATION=       0.0
     TIME TO SOLVE SCF EQUATIONS=       0.0 SECONDS (       0.0 SEC/ITER)

 FINAL RHF ENERGY IS     -281.2435605915 AFTER  12 ITERATIONS

          ------------
          EIGENVECTORS
          ------------

                      1          2          3          4          5
                  -20.5111   -20.4653   -15.4721   -11.3450   -11.2263
                     A          A          A          A          A   
    1  C  1  S    0.000007   0.000006  -0.000635  -0.002104   0.987815
    2  C  1  S   -0.000407  -0.000002  -0.002814  -0.002884   0.102941
    3  C  1  X    0.000124   0.000307   0.001304   0.000181  -0.000833
    4  C  1  Y   -0.000153   0.000245   0.000615  -0.000513   0.000102
    5  C  1  Z    0.000076  -0.000095  -0.000161   0.000145  -0.000061
    6  C  1  S    0.000459   0.004837   0.020710   0.021582  -0.087646
    7  C  1  X    0.003637  -0.009173   0.008632  -0.012608   0.005843
    8  C  1  Y    0.002602  -0.003704   0.006838   0.008600  -0.005497
    9  C  1  Z   -0.001017   0.001288  -0.001812  -0.002783   0.001916
   10  H  2  S   -0.000511   0.000248   0.002232  -0.000373  -0.000804
   11  H  2  S    0.000302   0.000322   0.007441   0.000874   0.002365
   12  H  3  S   -0.000505   0.000318   0.002228  -0.000368  -0.000772
   13  H  3  S    0.000184   0.000288   0.007406   0.000768   0.002406
   14  O  4  S   -0.001317   0.983794  -0.000011   0.000171   0.000051
   15  O  4  S   -0.000242   0.100252  -0.000096   0.001680   0.000164
   16  O  4  X   -0.000744  -0.000342   0.000001  -0.000532   0.000252
   17  O  4  Y    0.000077  -0.004483   0.000029   0.000415   0.000129
   18  O  4  Z   -0.000030   0.001492  -0.000023  -0.000138  -0.000039
   19  O  4  S    0.001336  -0.057434   0.000803  -0.004998  -0.001721
   20  O  4  X    0.004426   0.001144  -0.000051   0.003505  -0.002544
   21  O  4  Y    0.000221   0.015275  -0.000428   0.004944   0.001113
   22  O  4  Z   -0.000052  -0.005087   0.000181  -0.001650  -0.000390
   23  O  5  S    0.983580   0.001303  -0.000021   0.000043  -0.000015
   24  O  5  S    0.098772  -0.000066  -0.000382   0.001099  -0.000484
   25  O  5  X    0.001351  -0.000514  -0.000315   0.000125  -0.000637
   26  O  5  Y    0.003499   0.000729   0.000152   0.000993   0.000002
   27  O  5  Z   -0.001161  -0.000249  -0.000048  -0.000328   0.000002
   28  O  5  S   -0.048590   0.002627   0.000885   0.002432   0.000620
   29  O  5  X   -0.006607   0.003153   0.001364   0.001315   0.001303
   30  O  5  Y   -0.008810  -0.004123  -0.000513  -0.004343   0.000415
   31  O  5  Z    0.002898   0.001402   0.000169   0.001441  -0.000150
   32  C  6  S   -0.000458   0.000212   0.000093   0.986675   0.001322
   33  C  6  S   -0.000924   0.001585  -0.000056   0.094301  -0.002741
   34  C  6  X   -0.001474   0.000009  -0.000809  -0.000079  -0.000125
   35  C  6  Y   -0.000411   0.001773   0.000167   0.000425   0.000206
   36  C  6  Z    0.000130  -0.000592  -0.000077  -0.000158  -0.000077
   37  C  6  S    0.014886   0.016505  -0.004403  -0.047053   0.024996
   38  C  6  X   -0.014631  -0.000291  -0.001604  -0.012730   0.015360
   39  C  6  Y   -0.008670   0.026397   0.000121   0.015695  -0.007213
   40  C  6  Z    0.002834  -0.008802  -0.000085  -0.005217   0.002460
   41  H  7  S    0.003222   0.001431   0.000263   0.001004   0.000166
   42  H  7  S    0.003900  -0.000621   0.000297   0.001214   0.002014
   43  N  8  S   -0.000040  -0.000064   0.985855  -0.000010  -0.000226
   44  N  8  S   -0.000320  -0.000302   0.100225  -0.000547  -0.001074
   45  N  8  X    0.000456  -0.000244  -0.003189   0.000532   0.000024
   46  N  8  Y   -0.000274   0.000413   0.001582   0.000099   0.000202
   47  N  8  Z    0.000074  -0.000109  -0.000450  -0.000026  -0.000043
   48  N  8  S   -0.001178   0.003745  -0.057516   0.000361   0.011813
   49  N  8  X   -0.000410  -0.001147   0.010422  -0.000366  -0.006748
   50  N  8  Y    0.001561  -0.002602  -0.001345  -0.001084  -0.003303
   51  N  8  Z   -0.000369   0.000642   0.000445   0.000347   0.000766
   52  H  9  S    0.000337  -0.000620  -0.001313  -0.001611   0.000693
   53  H  9  S    0.000251  -0.000910  -0.000596   0.002356   0.015038
   54  H 10  S    0.000307  -0.000508  -0.001325  -0.001613   0.000728
   55  H 10  S   -0.000028  -0.000758  -0.000484   0.002494   0.015095

                      6          7          8          9         10
                   -1.4586    -1.3627    -1.1872    -0.9740    -0.7965
                     A          A          A          A          A   
    1  C  1  S   -0.019239   0.003818  -0.115651  -0.144224  -0.090051
    2  C  1  S    0.019905  -0.003359   0.115834   0.137125   0.078334
    3  C  1  X   -0.015733  -0.004136   0.055726  -0.114355   0.083916
    4  C  1  Y    0.013215  -0.008751   0.044211  -0.012029  -0.090945
    5  C  1  Z   -0.004343   0.002803  -0.011958   0.000924   0.027788
    6  C  1  S    0.009237   0.004554   0.261307   0.454807   0.357270
    7  C  1  X    0.012598  -0.037214  -0.015702  -0.044291  -0.001598
    8  C  1  Y   -0.006009  -0.017660   0.006012   0.006080  -0.029349
    9  C  1  Z    0.001767   0.006049  -0.002272  -0.002924   0.007757
   10  H  2  S    0.003027  -0.001965   0.093671  -0.076201  -0.057204
   11  H  2  S   -0.001039  -0.001765   0.009106  -0.037839  -0.029436
   12  H  3  S    0.002846  -0.001809   0.093691  -0.076796  -0.057011
   13  H  3  S   -0.001071  -0.000935   0.009689  -0.037844  -0.030753
   14  O  4  S   -0.138607   0.164542   0.028463   0.038467  -0.050851
   15  O  4  S    0.127722  -0.154093  -0.027551  -0.039182   0.049289
   16  O  4  X   -0.009467  -0.005183   0.013095   0.024840   0.026123
   17  O  4  Y   -0.084305   0.081417   0.007118  -0.019078   0.077114
   18  O  4  Z    0.028014  -0.027138  -0.002243   0.006173  -0.026057
   19  O  4  S    0.436670  -0.534272  -0.095251  -0.127583   0.195902
   20  O  4  X   -0.021833  -0.007227   0.013612   0.016004   0.031915
   21  O  4  Y   -0.094281   0.092052   0.009263  -0.017482   0.068540
   22  O  4  Z    0.031286  -0.030699  -0.002972   0.005735  -0.023221
   23  O  5  S   -0.155219  -0.165425   0.009581   0.034567  -0.029806
   24  O  5  S    0.141975   0.152713  -0.008078  -0.030633   0.030439
   25  O  5  X    0.027912   0.006708   0.011593   0.108285  -0.286188
   26  O  5  Y    0.056556   0.041545  -0.008963  -0.028005  -0.011323
   27  O  5  Z   -0.018788  -0.013912   0.003060   0.009730   0.001444
   28  O  5  S    0.481859   0.550118  -0.034266  -0.139079   0.119369
   29  O  5  X    0.033197   0.029557   0.003303   0.083664  -0.273259
   30  O  5  Y    0.084947   0.053293  -0.007774  -0.024297  -0.020782
   31  O  5  Z   -0.028218  -0.017710   0.002658   0.008533   0.004714
   32  C  6  S   -0.124632   0.036982  -0.015507  -0.088212   0.108184
   33  C  6  S    0.143875  -0.039220   0.023483   0.111817  -0.129288
   34  C  6  X   -0.052299  -0.073626   0.049604   0.090627   0.097395
   35  C  6  Y    0.061316  -0.158825  -0.047728  -0.122929   0.073254
   36  C  6  Z   -0.020788   0.052527   0.016319   0.040569  -0.024687
   37  C  6  S    0.120490  -0.043331   0.012566   0.171006  -0.329675
   38  C  6  X    0.033853   0.010914   0.000655   0.028468  -0.012829
   39  C  6  Y   -0.045830   0.048556   0.001818  -0.063581   0.083618
   40  C  6  Z    0.015351  -0.016083  -0.000471   0.020600  -0.028331
   41  H  7  S    0.056949   0.072405  -0.010591  -0.071723   0.154792
   42  H  7  S    0.012324   0.012407  -0.007599  -0.040686   0.106554
   43  N  8  S   -0.006561   0.007243  -0.190724   0.100905   0.028114
   44  N  8  S    0.006798  -0.007673   0.170864  -0.084111  -0.023682
   45  N  8  X   -0.005944   0.003959  -0.066113  -0.045080  -0.064730
   46  N  8  Y    0.000540  -0.000374   0.025845  -0.069255  -0.099888
   47  N  8  Z   -0.000289   0.000283  -0.007465   0.018198   0.027140
   48  N  8  S    0.013179  -0.003985   0.570273  -0.372378  -0.120048
   49  N  8  X   -0.001447   0.000837  -0.069041   0.010171  -0.043844
   50  N  8  Y    0.003861  -0.012101   0.031149  -0.045987  -0.080593
   51  N  8  Z   -0.001072   0.003052  -0.008933   0.012554   0.022418
   52  H  9  S    0.006530  -0.002339   0.044416   0.091241   0.086467
   53  H  9  S   -0.004741   0.000922  -0.007327   0.004901   0.039766
   54  H 10  S    0.006401  -0.002238   0.044276   0.091150   0.087668
   55  H 10  S   -0.004954   0.001574  -0.007628   0.005024   0.040121

                     11         12         13         14         15
                   -0.6943    -0.6896    -0.6811    -0.6165    -0.5800
                     A          A          A          A          A   
    1  C  1  S   -0.014582   0.003691   0.020478  -0.000944   0.004255
    2  C  1  S    0.006440  -0.001270  -0.011176   0.000740   0.001594
    3  C  1  X    0.077403  -0.027762  -0.103390   0.008714   0.257168
    4  C  1  Y   -0.147148   0.119808   0.058969   0.011346   0.153412
    5  C  1  Z    0.124838   0.203626  -0.011855   0.020349  -0.043262
    6  C  1  S    0.130289  -0.037283  -0.144190   0.005073  -0.085672
    7  C  1  X   -0.003631  -0.000864  -0.075178   0.004278   0.170141
    8  C  1  Y   -0.084846   0.090789   0.000497  -0.002697   0.119556
    9  C  1  Z    0.093298   0.177211   0.004774  -0.025573  -0.033362
   10  H  2  S   -0.051751  -0.133667   0.027550   0.119205  -0.108289
   11  H  2  S   -0.030328  -0.097274   0.037499   0.094620  -0.097472
   12  H  3  S    0.039987   0.135984   0.030791  -0.127152  -0.100460
   13  H  3  S    0.033404   0.094894   0.036770  -0.102075  -0.091292
   14  O  4  S   -0.065124   0.022789  -0.074572  -0.000636   0.005243
   15  O  4  S    0.061942  -0.021652   0.065645   0.000716  -0.006487
   16  O  4  X   -0.154924   0.046013   0.160464  -0.004047   0.017425
   17  O  4  Y    0.187698  -0.038538   0.213694   0.061121  -0.054652
   18  O  4  Z   -0.036711   0.102324  -0.067123   0.169984   0.013889
   19  O  4  S    0.255162  -0.089676   0.326760   0.001819  -0.006952
   20  O  4  X   -0.137110   0.040468   0.154064  -0.003610   0.025384
   21  O  4  Y    0.181963  -0.036887   0.204924   0.061428  -0.063931
   22  O  4  Z   -0.034746   0.101868  -0.064317   0.169848   0.016919
   23  O  5  S    0.000534   0.001330  -0.058793   0.000142  -0.041910
   24  O  5  S    0.001484  -0.001816   0.057140  -0.000267   0.037804
   25  O  5  X    0.192754  -0.065608   0.016252   0.002756   0.095263
   26  O  5  Y    0.011085   0.037033  -0.249848   0.101749  -0.162002
   27  O  5  Z    0.029814   0.096323   0.087598   0.294292   0.045527
   28  O  5  S   -0.003120  -0.005988   0.255488  -0.000063   0.190852
   29  O  5  X    0.203769  -0.069855   0.020626   0.003480   0.102513
   30  O  5  Y   -0.002671   0.043337  -0.266465   0.111834  -0.179197
   31  O  5  Z    0.035791   0.099162   0.093337   0.324127   0.050083
   32  C  6  S    0.058460  -0.020220   0.044082   0.000990   0.008153
   33  C  6  S   -0.074827   0.026496  -0.076239  -0.000958  -0.006165
   34  C  6  X   -0.239426   0.074846   0.154182  -0.006551  -0.034160
   35  C  6  Y   -0.075863   0.070720  -0.169529   0.063390   0.065248
   36  C  6  Z    0.061461   0.100418   0.061642   0.196617  -0.026139
   37  C  6  S   -0.185062   0.060866  -0.028377  -0.004657  -0.033590
   38  C  6  X   -0.194372   0.059179   0.159526  -0.006297  -0.011694
   39  C  6  Y    0.064568   0.014630  -0.085557   0.074454  -0.015948
   40  C  6  Z    0.008719   0.099691   0.033560   0.213672  -0.000297
   41  H  7  S   -0.098122   0.034248  -0.076488  -0.001515  -0.104092
   42  H  7  S   -0.078075   0.026668  -0.029546  -0.001637  -0.087116
   43  N  8  S   -0.017475   0.006502   0.005213  -0.000147  -0.016482
   44  N  8  S    0.017004  -0.006172  -0.009554  -0.000065   0.007639
   45  N  8  X    0.036621  -0.016345   0.032942  -0.007002  -0.206379
   46  N  8  Y   -0.036703   0.083073   0.087437  -0.062365  -0.222171
   47  N  8  Z    0.096285   0.230406  -0.020653  -0.199314   0.066161
   48  N  8  S    0.065128  -0.025380   0.003855   0.001075   0.081423
   49  N  8  X    0.034396  -0.014500   0.002488  -0.006466  -0.209561
   50  N  8  Y   -0.042033   0.074600   0.070322  -0.057537  -0.219071
   51  N  8  Z    0.085083   0.195498  -0.016345  -0.183523   0.064983
   52  H  9  S    0.104487   0.092121  -0.028351   0.012578  -0.083521
   53  H  9  S    0.072597   0.054242  -0.011970   0.030800  -0.054771
   54  H 10  S    0.030741  -0.133751  -0.036239  -0.015949  -0.080494
   55  H 10  S    0.028199  -0.085719  -0.018748  -0.033351  -0.052421

                     16         17         18         19         20
                   -0.5692    -0.5320    -0.4707    -0.4577    -0.3932
                     A          A          A          A          A   
    1  C  1  S   -0.015582  -0.000404  -0.000156   0.027638   0.009757
    2  C  1  S    0.011613   0.000218   0.000172  -0.015460  -0.011303
    3  C  1  X    0.004707  -0.003559   0.000447   0.068701  -0.121373
    4  C  1  Y    0.199457   0.082688  -0.018012  -0.115589   0.085124
    5  C  1  Z   -0.055382   0.284795  -0.057634   0.040079  -0.023379
    6  C  1  S    0.102896   0.001921   0.001184  -0.197897  -0.018662
    7  C  1  X   -0.028653  -0.004809  -0.001654   0.114539   0.013877
    8  C  1  Y    0.177853   0.084411  -0.018389  -0.152726   0.057322
    9  C  1  Z   -0.046260   0.286579  -0.049283   0.051233  -0.014360
   10  H  2  S   -0.031101   0.128383  -0.006169  -0.023396  -0.043474
   11  H  2  S   -0.032423   0.129525  -0.029408   0.015161  -0.051304
   12  H  3  S   -0.029169  -0.128204   0.006407  -0.024030  -0.044704
   13  H  3  S   -0.032061  -0.130349   0.030198   0.007768  -0.052377
   14  O  4  S   -0.033445   0.000859   0.000004  -0.002790  -0.003330
   15  O  4  S    0.037082  -0.000890   0.000084   0.004739  -0.001850
   16  O  4  X    0.004208  -0.003572  -0.004189   0.440904  -0.108138
   17  O  4  Y    0.250530  -0.022100   0.115462  -0.009351   0.040673
   18  O  4  Z   -0.087175  -0.045621   0.346425   0.007698  -0.013126
   19  O  4  S    0.095853  -0.003190  -0.000560   0.001061   0.050412
   20  O  4  X   -0.000716  -0.003461  -0.005009   0.498959  -0.151600
   21  O  4  Y    0.283234  -0.022911   0.140026  -0.008602   0.038919
   22  O  4  Z   -0.098026  -0.045204   0.419450   0.008164  -0.012636
   23  O  5  S    0.046442  -0.000362  -0.000038  -0.003531   0.018184
   24  O  5  S   -0.047203   0.000352   0.000039  -0.013144  -0.004783
   25  O  5  X    0.008148   0.000572   0.001520   0.099471  -0.080958
   26  O  5  Y    0.268297  -0.070299  -0.101848   0.159094  -0.028254
   27  O  5  Z   -0.099873  -0.197133  -0.300830  -0.055432   0.007505
   28  O  5  S   -0.192058   0.001718   0.000291   0.091300  -0.151847
   29  O  5  X    0.029132   0.000793   0.002027   0.148516  -0.129139
   30  O  5  Y    0.300545  -0.081762  -0.130932   0.213246  -0.042215
   31  O  5  Z   -0.111934  -0.229074  -0.387185  -0.073966   0.011784
   32  C  6  S   -0.003143   0.000738  -0.000011   0.000876  -0.041899
   33  C  6  S   -0.003777  -0.000379  -0.000028  -0.004007   0.040051
   34  C  6  X    0.009325  -0.002954  -0.000603  -0.056025   0.139866
   35  C  6  Y   -0.230099  -0.004177   0.047397   0.009122  -0.094428
   36  C  6  Z    0.073161  -0.033162   0.141942  -0.002018   0.033073
   37  C  6  S    0.040889  -0.005097   0.000362   0.032891   0.233904
   38  C  6  X   -0.006652  -0.002124  -0.000316   0.132200   0.057645
   39  C  6  Y    0.039258  -0.022487   0.049613   0.009037  -0.162773
   40  C  6  Z   -0.018428  -0.074520   0.146217  -0.001583   0.054250
   41  H  7  S    0.091907  -0.001044  -0.000086   0.002822   0.037546
   42  H  7  S    0.070034  -0.000609   0.000244  -0.036479   0.063200
   43  N  8  S    0.010005   0.000459   0.000197  -0.019507  -0.058465
   44  N  8  S   -0.009823  -0.000599  -0.000607   0.017793   0.064156
   45  N  8  X   -0.139983  -0.002158   0.000533   0.111127   0.298212
   46  N  8  Y   -0.015946  -0.048845   0.003032  -0.119270  -0.280644
   47  N  8  Z    0.005232  -0.188632   0.006265   0.033374   0.076966
   48  N  8  S   -0.043872  -0.001428   0.000961   0.080532   0.230084
   49  N  8  X   -0.132661  -0.002347  -0.000887   0.110581   0.420212
   50  N  8  Y   -0.019246  -0.053158   0.002747  -0.130182  -0.350086
   51  N  8  Z    0.006248  -0.203813   0.002651   0.036973   0.096607
   52  H  9  S   -0.074826   0.182542  -0.040566   0.028817  -0.055153
   53  H  9  S   -0.081260   0.150391  -0.068717   0.032433  -0.073671
   54  H 10  S   -0.079285  -0.179214   0.041537   0.023877  -0.062762
   55  H 10  S   -0.080714  -0.147407   0.067498   0.027300  -0.083576

                     21         22         23         24         25
                    0.1708     0.2493     0.2623     0.3100     0.3186
                     A          A          A          A          A   
    1  C  1  S    0.000378   0.031927  -0.074702  -0.119508  -0.000598
    2  C  1  S   -0.000324  -0.016891   0.021607   0.045495  -0.000241
    3  C  1  X    0.002064   0.011123  -0.113645   0.039222   0.000106
    4  C  1  Y    0.004416  -0.065829  -0.095986  -0.142367  -0.070817
    5  C  1  Z    0.014180   0.021967   0.032963   0.035873  -0.238018
    6  C  1  S   -0.005758  -0.320393   1.077595   1.594888   0.009300
    7  C  1  X    0.006189  -0.175881  -0.365163   0.006197   0.000409
    8  C  1  Y    0.096061  -0.329778  -0.470703  -0.739738  -0.291224
    9  C  1  Z    0.297741   0.109069   0.160581   0.191049  -0.986803
   10  H  2  S   -0.002791  -0.011873  -0.029822   0.036806  -0.056301
   11  H  2  S   -0.001468  -0.192541  -0.680106   0.603698  -0.841222
   12  H  3  S    0.002915  -0.013045  -0.031471   0.036879   0.053459
   13  H  3  S    0.014104  -0.214627  -0.722841   0.611134   0.777399
   14  O  4  S    0.000188  -0.000645  -0.026206  -0.000659  -0.001681
   15  O  4  S   -0.000167  -0.008990   0.021338  -0.001725   0.001308
   16  O  4  X    0.001117   0.079270   0.029493  -0.006755   0.003928
   17  O  4  Y   -0.091380  -0.022830  -0.046630  -0.025402  -0.024220
   18  O  4  Z   -0.276285   0.007097   0.013189   0.006184  -0.067988
   19  O  4  S   -0.001058   0.052720   0.195538  -0.002155   0.013959
   20  O  4  X    0.001827   0.077909   0.035339  -0.012647   0.004137
   21  O  4  Y   -0.151285  -0.047328  -0.124393  -0.037209  -0.051700
   22  O  4  Z   -0.458478   0.014787   0.038087   0.007250  -0.132346
   23  O  5  S   -0.000015   0.090749  -0.027234   0.002376  -0.000333
   24  O  5  S    0.000210  -0.050215   0.009614  -0.000395  -0.000116
   25  O  5  X    0.000556   0.132108  -0.045305   0.030144   0.004676
   26  O  5  Y   -0.050594  -0.145478   0.056744  -0.031061  -0.016389
   27  O  5  Z   -0.149330   0.049925  -0.019060   0.009150  -0.057168
   28  O  5  S   -0.001049  -0.761037   0.266748  -0.010182   0.003958
   29  O  5  X   -0.000165   0.358998  -0.088437   0.087245   0.011636
   30  O  5  Y   -0.080797  -0.309447   0.134535  -0.030278  -0.026304
   31  O  5  Z   -0.238769   0.106075  -0.045901   0.007922  -0.091069
   32  C  6  S   -0.000622  -0.018347   0.028696   0.004944   0.002939
   33  C  6  S   -0.000341   0.012716   0.021564   0.019786  -0.000122
   34  C  6  X   -0.001732  -0.072453  -0.011971  -0.017533  -0.000121
   35  C  6  Y    0.130811  -0.061541   0.014840  -0.024318   0.027119
   36  C  6  Z    0.393868   0.021624  -0.001523   0.010330   0.071277
   37  C  6  S    0.009331   0.088193  -0.423456  -0.073192  -0.040604
   38  C  6  X   -0.001729   0.122742  -0.048078   0.085721  -0.003882
   39  C  6  Y    0.190589  -0.120879   0.006786   0.069994   0.103824
   40  C  6  Z    0.581745   0.042804   0.001506  -0.008781   0.308653
   41  H  7  S   -0.000314   0.106798  -0.012480   0.006113   0.001770
   42  H  7  S   -0.000757   1.232749  -0.359910   0.170258   0.008944
   43  N  8  S    0.001968  -0.053768  -0.105644   0.085457  -0.004569
   44  N  8  S   -0.000386   0.007797   0.028758  -0.028626   0.001387
   45  N  8  X    0.003904  -0.071021  -0.012284   0.001218   0.000886
   46  N  8  Y   -0.001891   0.017781   0.108631  -0.073718  -0.041563
   47  N  8  Z   -0.006392  -0.002820  -0.024880   0.019778  -0.171478
   48  N  8  S   -0.019632   0.586159   1.103585  -0.857936   0.048898
   49  N  8  X    0.010016  -0.233112  -0.036178  -0.015590  -0.000022
   50  N  8  Y   -0.018412   0.035734   0.373845  -0.178515  -0.118807
   51  N  8  Z   -0.064086  -0.004890  -0.089123   0.047530  -0.498119
   52  H  9  S   -0.091978  -0.025432  -0.000174  -0.024406   0.034328
   53  H  9  S   -0.439109  -0.096614  -0.771729  -1.156115   1.055442
   54  H 10  S    0.094914  -0.021609   0.004083  -0.025217  -0.031300
   55  H 10  S    0.457099  -0.067783  -0.712089  -1.215165  -1.051398

                     26         27         28         29         30
                    0.3853     0.4282     0.4407     0.5254     0.6303
                     A          A          A          A          A   
    1  C  1  S   -0.001260   0.009171   0.108888  -0.098641   0.038112
    2  C  1  S    0.000969   0.004536  -0.039091   0.020374  -0.083635
    3  C  1  X   -0.009612   0.262626  -0.040137   0.006238  -0.118926
    4  C  1  Y    0.062873  -0.091696  -0.195829   0.079299  -0.134044
    5  C  1  Z    0.214029   0.036856   0.051160  -0.024972   0.045404
    6  C  1  S    0.014628  -0.104774  -1.292005   1.629494   0.098594
    7  C  1  X   -0.051249   1.485936  -0.161451  -0.458496  -1.307909
    8  C  1  Y    0.291970  -0.486453  -0.805336   1.002660  -0.579552
    9  C  1  Z    0.982881   0.198876   0.214569  -0.323190   0.169955
   10  H  2  S   -0.011593   0.002063   0.031229  -0.029243  -0.061588
   11  H  2  S   -0.926013  -0.456249   0.232771  -0.073524   0.052439
   12  H  3  S    0.010955  -0.001495   0.028551  -0.023700  -0.058871
   13  H  3  S    0.966953  -0.388348   0.237413  -0.084351   0.081962
   14  O  4  S   -0.002361   0.049709   0.018711   0.055347   0.116279
   15  O  4  S    0.001954  -0.025281  -0.016216  -0.024594  -0.032755
   16  O  4  X    0.006329  -0.031901   0.038041   0.181060  -0.063515
   17  O  4  Y    0.009937   0.133839   0.061063   0.084052   0.113690
   18  O  4  Z    0.042211  -0.042559  -0.022831  -0.026459  -0.040430
   19  O  4  S    0.019337  -0.498467  -0.147856  -0.626987  -1.632245
   20  O  4  X    0.008286  -0.116861   0.079883   0.442802  -0.095152
   21  O  4  Y    0.026678   0.348372   0.148437   0.292014   0.660263
   22  O  4  Z    0.115463  -0.111006  -0.054023  -0.094809  -0.223274
   23  O  5  S    0.000487   0.010911   0.054796   0.052404  -0.055233
   24  O  5  S   -0.000203  -0.001941  -0.044253  -0.025876   0.009392
   25  O  5  X   -0.002146  -0.033762  -0.277226  -0.134859   0.087126
   26  O  5  Y    0.021039  -0.069301  -0.034430  -0.148793   0.000412
   27  O  5  Z    0.063482   0.025085   0.008493   0.048012   0.001211
   28  O  5  S   -0.004189  -0.119253  -0.421192  -0.545502   0.752070
   29  O  5  X   -0.004788  -0.117282  -0.650860  -0.365144   0.480494
   30  O  5  Y    0.028886  -0.089494  -0.102534  -0.383252   0.000051
   31  O  5  Z    0.086467   0.032895   0.027291   0.125255   0.001761
   32  C  6  S    0.001986  -0.127620  -0.135482  -0.014934  -0.000938
   33  C  6  S   -0.001129   0.048814   0.053459  -0.039330  -0.109329
   34  C  6  X   -0.006729   0.115974  -0.118170  -0.427067   0.204625
   35  C  6  Y   -0.044799  -0.078193  -0.152544   0.118400   0.207879
   36  C  6  Z   -0.135378   0.018726   0.053769  -0.041391  -0.065445
   37  C  6  S   -0.028469   1.802614   1.550574  -0.058054   0.331441
   38  C  6  X   -0.011262   0.593172  -0.088664  -1.612536   0.526957
   39  C  6  Y   -0.108707  -0.125499  -0.416368   0.794667   2.141692
   40  C  6  Z   -0.301878   0.028321   0.151665  -0.273012  -0.703036
   41  H  7  S    0.001030  -0.048497   0.002422  -0.104569  -0.057409
   42  H  7  S   -0.002349   0.077349  -0.480478  -0.213024   0.079153
   43  N  8  S    0.000182   0.025837  -0.044475   0.018826  -0.058570
   44  N  8  S    0.000042  -0.008371   0.017868   0.005868  -0.003400
   45  N  8  X   -0.002249   0.109925  -0.214887   0.099528  -0.000921
   46  N  8  Y   -0.072059   0.172232  -0.089834   0.028452  -0.124021
   47  N  8  Z   -0.239574  -0.055653   0.021883  -0.006055   0.032552
   48  N  8  S   -0.004234  -0.263693   0.449282  -0.279872   0.839004
   49  N  8  X   -0.008166   0.451557  -0.680247   0.397612  -0.488685
   50  N  8  Y   -0.252412   0.641065  -0.315932   0.078859  -0.336206
   51  N  8  Z   -0.838954  -0.203942   0.080866  -0.011855   0.078255
   52  H  9  S    0.001896   0.015154  -0.058130   0.052134   0.016363
   53  H  9  S   -0.981022  -0.212922  -0.023273  -0.010250  -0.194583
   54  H 10  S   -0.003579   0.012068  -0.057262   0.051223   0.003470
   55  H 10  S    0.951515  -0.187014  -0.068025  -0.025609  -0.154958

                     31         32         33         34         35
                    0.9197     0.9814     1.0096     1.0357     1.0379
                     A          A          A          A          A   
    1  C  1  S   -0.000669   0.012866   0.001557   0.040129  -0.012412
    2  C  1  S    0.002689  -0.013041  -0.034607  -0.141329   0.042394
    3  C  1  X    0.005272  -0.740743  -0.754767   0.090934  -0.063043
    4  C  1  Y    0.095982   0.097755  -0.237069  -0.832161   0.400751
    5  C  1  Z    0.312572  -0.037044   0.037313   0.398687   0.343354
    6  C  1  S    0.003032  -0.633124   0.281325  -0.099827   0.071478
    7  C  1  X    0.010795   0.964894   1.280270   0.035066   0.055104
    8  C  1  Y   -0.135947  -0.579259   0.810487   1.539318  -0.781243
    9  C  1  Z   -0.476908   0.183549  -0.181993  -0.807682  -0.854473
   10  H  2  S   -0.233703  -0.089665   0.247717  -0.171556  -0.387469
   11  H  2  S    0.027739  -0.061895  -0.149017   0.022888   0.269368
   12  H  3  S    0.250851  -0.081347   0.209537   0.104851   0.439837
   13  H  3  S   -0.030550  -0.054063  -0.138856  -0.151705  -0.240569
   14  O  4  S   -0.000975  -0.010038  -0.002988  -0.025422   0.006502
   15  O  4  S    0.000273   0.012739  -0.005477  -0.006049   0.002010
   16  O  4  X   -0.000835  -0.046221   0.112446  -0.099702   0.036827
   17  O  4  Y    0.005606  -0.046977   0.059009   0.010010  -0.028074
   18  O  4  Z    0.018723   0.014099  -0.014015  -0.022654  -0.058914
   19  O  4  S    0.013399  -0.009148   0.279096   0.449312  -0.117521
   20  O  4  X    0.000418  -0.222607   0.162888   0.009284   0.013326
   21  O  4  Y    0.018119  -0.071180   0.018874  -0.243147   0.013726
   22  O  4  Z    0.078905   0.021690   0.003210   0.033933  -0.158635
   23  O  5  S    0.000389  -0.015044  -0.005761   0.007638  -0.002211
   24  O  5  S   -0.000313  -0.003561   0.074093  -0.002176   0.004330
   25  O  5  X   -0.001532  -0.034632   0.130700   0.004571   0.003219
   26  O  5  Y    0.012715  -0.089746   0.012543  -0.042680  -0.014760
   27  O  5  Z    0.040663   0.029293  -0.001348  -0.015450  -0.084399
   28  O  5  S   -0.004519   0.440706  -0.563468  -0.073140  -0.016990
   29  O  5  X   -0.003053   0.081200  -0.222252  -0.037511  -0.003226
   30  O  5  Y    0.029238   0.113536  -0.051026  -0.003829  -0.044070
   31  O  5  Z    0.090045  -0.038240   0.023019  -0.033421  -0.100598
   32  C  6  S   -0.000462   0.004903   0.010494  -0.010725   0.004919
   33  C  6  S    0.004968   0.123648  -0.067808   0.074636  -0.030307
   34  C  6  X   -0.003686  -0.756120   0.535517  -0.095890   0.077876
   35  C  6  Y    0.261902  -0.247751   0.283115  -0.223874  -0.149526
   36  C  6  Z    0.812141   0.075206  -0.057172  -0.130140  -0.587251
   37  C  6  S   -0.013051   0.321807   0.318362  -0.789085   0.243805
   38  C  6  X   -0.005364   1.505459  -1.170728  -0.220323  -0.044092
   39  C  6  Y   -0.240778   0.016171  -0.744626  -0.285850   0.407019
   40  C  6  Z   -0.680755   0.008556   0.181234   0.418062   0.920414
   41  H  7  S    0.000772  -0.156269  -0.274972   0.080268  -0.042127
   42  H  7  S   -0.001061   0.375745   0.029436  -0.020365   0.001471
   43  N  8  S    0.001410  -0.017940   0.016046  -0.014085   0.006200
   44  N  8  S   -0.000583   0.006728   0.077137   0.076915  -0.022150
   45  N  8  X   -0.003536   0.006583  -0.241489  -0.031173  -0.006631
   46  N  8  Y    0.005600  -0.032666   0.073028  -0.031642   0.039199
   47  N  8  Z    0.000923   0.010403  -0.025364   0.036899   0.067706
   48  N  8  S   -0.008608  -0.034323  -0.752716  -0.298941   0.057757
   49  N  8  X    0.003762  -0.080510   0.287369   0.232188  -0.058574
   50  N  8  Y   -0.031740   0.129698   0.002011  -0.105603  -0.001727
   51  N  8  Z   -0.111425  -0.042448   0.011461  -0.009384  -0.132085
   52  H  9  S    0.355404   0.023424   0.026302   0.433849   0.245870
   53  H  9  S   -0.047890  -0.069678   0.172005   0.306063  -0.023966
   54  H 10  S   -0.356752   0.004471   0.056227   0.214379  -0.446697
   55  H 10  S    0.048214  -0.065218   0.166592   0.268835  -0.139306

                     36         37         38         39         40
                    1.0755     1.2411     1.2446     1.2637     1.2856
                     A          A          A          A          A   
    1  C  1  S    0.009660   0.035464  -0.048273   0.003159  -0.044976
    2  C  1  S   -0.056310  -0.089858   0.001423  -0.004837   0.161122
    3  C  1  X    0.001115  -0.112995  -0.212388   0.021816   0.007348
    4  C  1  Y    0.074797   0.338516  -0.261996  -0.268772  -0.249413
    5  C  1  Z   -0.036293  -0.079043   0.045237  -0.974708   0.061043
    6  C  1  S    0.858254   0.538451   0.361252   0.004908  -0.479644
    7  C  1  X   -0.422295  -0.026945   0.232100  -0.031103  -0.170911
    8  C  1  Y    0.186954  -0.056582   0.312718   0.475663   0.254846
    9  C  1  Z   -0.030396  -0.021338  -0.040488   1.681572  -0.050038
   10  H  2  S   -0.008627   0.303471  -0.306835  -0.312014   0.730521
   11  H  2  S   -0.002419  -0.132055   0.113754   0.248232  -0.421853
   12  H  3  S   -0.029946   0.282951  -0.279031   0.328427   0.732894
   13  H  3  S    0.013601  -0.117725   0.092364  -0.250856  -0.421417
   14  O  4  S   -0.031255   0.011734   0.006673   0.000237   0.000333
   15  O  4  S    0.046200  -0.004573  -0.006093   0.000303   0.005141
   16  O  4  X    0.078118   0.059979  -0.014833   0.001338   0.002190
   17  O  4  Y   -0.266475   0.040402  -0.081959   0.005400  -0.043147
   18  O  4  Z    0.090560  -0.013102   0.028338   0.010567   0.014380
   19  O  4  S   -0.272415  -0.192137  -0.256099   0.000225  -0.152185
   20  O  4  X    0.115827   0.037550   0.107419  -0.001739  -0.038351
   21  O  4  Y   -0.298439   0.057539   0.050895   0.014086   0.000770
   22  O  4  Z    0.103182  -0.019887  -0.015412   0.032067  -0.000803
   23  O  5  S   -0.013642   0.019108   0.031468  -0.000655  -0.000933
   24  O  5  S    0.025199  -0.032999  -0.040090   0.001195  -0.002177
   25  O  5  X   -0.072502   0.124671   0.108287   0.000347  -0.000019
   26  O  5  Y   -0.005044  -0.308121  -0.161880   0.016466  -0.001441
   27  O  5  Z    0.003072   0.102023   0.056365   0.062117  -0.000002
   28  O  5  S    0.086561   0.096838  -0.155605   0.005800   0.101588
   29  O  5  X    0.040588   0.159044   0.062464   0.000949   0.048266
   30  O  5  Y   -0.107485  -0.049016  -0.175625   0.002238  -0.018844
   31  O  5  Z    0.037988   0.018114   0.059110  -0.011468   0.006484
   32  C  6  S    0.055437  -0.028952   0.025980  -0.001457   0.017913
   33  C  6  S   -0.245807   0.393637  -0.511154   0.023588  -0.240661
   34  C  6  X    0.354132   0.092332   0.052354   0.005411  -0.148503
   35  C  6  Y   -0.996590  -0.093546  -0.075210  -0.006868  -0.107416
   36  C  6  Z    0.345595   0.031207   0.025956  -0.033773   0.029623
   37  C  6  S   -0.517986  -0.324626   0.573379  -0.007685   0.122518
   38  C  6  X   -0.891600  -0.392204  -0.586410   0.014182   0.195997
   39  C  6  Y    1.242652   0.473827   0.302049  -0.071166   0.274666
   40  C  6  Z   -0.439583  -0.155059  -0.112661  -0.214058  -0.089056
   41  H  7  S   -0.212469   0.878852   0.898608  -0.005965   0.084185
   42  H  7  S   -0.060730  -0.673810  -0.786808   0.007037  -0.048601
   43  N  8  S   -0.005632   0.016969  -0.012295   0.000286   0.054533
   44  N  8  S    0.021244   0.018100  -0.001231   0.001156  -0.119782
   45  N  8  X   -0.026012  -0.070915  -0.046726  -0.005444   0.492443
   46  N  8  Y   -0.011109  -0.153555   0.256265   0.000334  -0.149675
   47  N  8  Z   -0.001158   0.039608  -0.070246   0.048662   0.043464
   48  N  8  S    0.017651  -0.099666  -0.162412   0.001278   0.103305
   49  N  8  X    0.031423   0.028693   0.173468   0.004272  -0.507992
   50  N  8  Y    0.004990  -0.017850   0.011213  -0.112377  -0.259194
   51  N  8  Z    0.001939   0.016794  -0.016052  -0.415647   0.063958
   52  H  9  S    0.032425   0.432503  -0.441100   0.511312  -0.300999
   53  H  9  S    0.019017  -0.289560   0.274952  -1.259386   0.363267
   54  H 10  S    0.053634   0.461315  -0.471211  -0.453600  -0.309195
   55  H 10  S    0.025046  -0.346791   0.343631   1.205878   0.397395

                     41         42         43         44         45
                    1.3701     1.5348     1.6066     1.6499     1.6642
                     A          A          A          A          A   
    1  C  1  S   -0.000472   0.043736   0.037561  -0.013850   0.000376
    2  C  1  S    0.005347  -0.311254  -0.451774   0.043639   0.013412
    3  C  1  X    0.007416  -0.177067   0.111771   0.131368  -0.004827
    4  C  1  Y    0.002604   0.145921   0.162376  -0.029004  -0.004150
    5  C  1  Z    0.031386  -0.036100  -0.049461   0.011280   0.002150
    6  C  1  S   -0.004357  -0.172648   0.074079   0.348683  -0.036394
    7  C  1  X   -0.007892   1.209429  -0.191574   0.586235  -0.004494
    8  C  1  Y   -0.184382  -0.581066  -0.403046   0.068542  -0.178583
    9  C  1  Z   -0.699988   0.151106   0.128745  -0.033300  -0.701850
   10  H  2  S    0.753946  -0.234601   0.292236   0.189410   0.190408
   11  H  2  S   -0.704995  -0.019842   0.042394  -0.546801   0.549019
   12  H  3  S   -0.749997  -0.245517   0.285824   0.172962  -0.218354
   13  H  3  S    0.708912   0.003510   0.033844  -0.578675  -0.505194
   14  O  4  S   -0.001316  -0.019218   0.012976   0.002216  -0.001002
   15  O  4  S    0.004283   0.042535  -0.027671   0.001809   0.002352
   16  O  4  X    0.010536  -0.136660  -0.112141  -0.050121  -0.000818
   17  O  4  Y   -0.045997  -0.070428  -0.146675  -0.068019  -0.054797
   18  O  4  Z   -0.142633   0.018217   0.052443   0.017062  -0.168683
   19  O  4  S    0.006389   0.207334  -0.278976  -0.132482   0.020998
   20  O  4  X   -0.005883   0.174655  -0.000829  -0.023107   0.006035
   21  O  4  Y    0.003182   0.002857   0.191043   0.078496   0.026956
   22  O  4  Z    0.028533   0.004160  -0.067808  -0.022894   0.103460
   23  O  5  S   -0.000196   0.041710   0.011238   0.003460   0.000339
   24  O  5  S    0.000730  -0.065692  -0.017367   0.004895  -0.000639
   25  O  5  X    0.002163   0.073720   0.003850   0.072085   0.003637
   26  O  5  Y   -0.012435   0.138732   0.211219   0.071619  -0.056306
   27  O  5  Z   -0.025587  -0.040470  -0.071498  -0.033841  -0.145530
   28  O  5  S    0.001584  -0.658679  -0.076046  -0.039059  -0.009941
   29  O  5  X   -0.000199  -0.406617  -0.079515  -0.104717  -0.007725
   30  O  5  Y   -0.005910  -0.196399  -0.187043  -0.076433   0.039793
   31  O  5  Z   -0.025709   0.059563   0.062656   0.033284   0.100487
   32  C  6  S    0.000368   0.000816   0.011831   0.007801  -0.000077
   33  C  6  S    0.000575  -0.959034  -0.839198  -0.503371   0.024091
   34  C  6  X   -0.002521   0.091965  -0.272582  -0.208962   0.011544
   35  C  6  Y   -0.027829   0.169682   0.062224   0.004949  -0.019900
   36  C  6  Z   -0.073552  -0.049913  -0.025072  -0.005676  -0.065159
   37  C  6  S   -0.025684   2.146131   1.314943   0.859578  -0.048238
   38  C  6  X   -0.007443  -0.232640   0.578302   0.392875  -0.042763
   39  C  6  Y    0.105154  -1.215714  -0.023497  -0.102048   0.057191
   40  C  6  Z    0.319533   0.399230   0.014980   0.042130   0.248841
   41  H  7  S    0.001546   0.089532   0.039649   0.033363  -0.002621
   42  H  7  S   -0.001291  -0.212184   0.021095  -0.008796  -0.003669
   43  N  8  S    0.000485  -0.028519   0.030143   0.039216  -0.002205
   44  N  8  S   -0.001244   0.098542  -0.101888  -0.223330   0.011676
   45  N  8  X   -0.010492   0.460967  -0.181419  -0.787122   0.039694
   46  N  8  Y    0.123418  -0.478596   0.624801  -0.620204  -0.259100
   47  N  8  Z    0.411533   0.146479  -0.190172   0.125907  -0.991449
   48  N  8  S    0.000775  -0.197450   0.031852   0.128927  -0.008470
   49  N  8  X    0.006272  -0.423874   0.062587   1.202074  -0.056747
   50  N  8  Y    0.019506   0.844402  -0.938936   0.951380   0.436560
   51  N  8  Z    0.120407  -0.244407   0.280597  -0.189513   1.661926
   52  H  9  S    0.550603   0.296995   0.328585  -0.127013   0.324699
   53  H  9  S   -0.206213  -0.467790  -0.540422   0.084851  -0.000841
   54  H 10  S   -0.550915   0.278264   0.330334  -0.145959  -0.311987
   55  H 10  S    0.223925  -0.496015  -0.532520   0.079985   0.029035

                     46         47         48         49         50
                    1.7848     1.8895     1.9513     1.9759     1.9950
                     A          A          A          A          A   
    1  C  1  S    0.000293  -0.009903  -0.007543  -0.000197   0.001003
    2  C  1  S    0.002751  -0.685451  -0.782972  -0.013590   0.182794
    3  C  1  X    0.001310   0.050897   0.023569   0.000291   0.006423
    4  C  1  Y   -0.013298   0.040715  -0.082367  -0.025271   0.044220
    5  C  1  Z   -0.057692  -0.012285   0.030024  -0.090139  -0.010043
    6  C  1  S   -0.010809   1.208161   1.294065   0.027492  -0.309910
    7  C  1  X   -0.002763  -0.069111   0.128954  -0.006830   0.061753
    8  C  1  Y    0.050403  -0.142078   0.027453   0.206691   0.014971
    9  C  1  Z    0.226897   0.038997  -0.024308   0.690783  -0.025926
   10  H  2  S    0.021298   0.024399  -0.017376  -0.147930   0.050325
   11  H  2  S   -0.091380  -0.071946  -0.105329  -0.030861  -0.041332
   12  H  3  S   -0.028116   0.026081  -0.015393   0.152849   0.031277
   13  H  3  S    0.100752  -0.087474  -0.122338   0.025718  -0.014865
   14  O  4  S    0.000163  -0.050762   0.023723   0.000441   0.002187
   15  O  4  S   -0.000207   0.171740  -0.111366  -0.002555  -0.020336
   16  O  4  X   -0.002463   0.162611   0.548900  -0.011396  -0.694417
   17  O  4  Y    0.162389   0.733757  -0.521947  -0.281903  -0.243108
   18  O  4  Z    0.493412  -0.237015   0.181599  -0.831861   0.099169
   19  O  4  S   -0.002811   0.237881   0.053244  -0.000493   0.113853
   20  O  4  X    0.001426  -0.228725  -0.663203   0.011851   0.778615
   21  O  4  Y   -0.135437  -0.999483   0.632328   0.337885   0.257154
   22  O  4  Z   -0.417806   0.324465  -0.220177   0.995707  -0.107973
   23  O  5  S    0.000059  -0.026607  -0.029358  -0.000685  -0.018692
   24  O  5  S   -0.000014   0.086640   0.139238   0.003541   0.114076
   25  O  5  X    0.005986  -0.315036  -0.466330  -0.012890  -0.348062
   26  O  5  Y   -0.281102  -0.333834  -0.172040  -0.166951  -0.568553
   27  O  5  Z   -0.845217   0.109158   0.056501  -0.461356   0.199818
   28  O  5  S   -0.000383   0.125524   0.111386  -0.001289  -0.202523
   29  O  5  X   -0.006456   0.434982   0.684570   0.016477   0.322619
   30  O  5  Y    0.282090   0.471195   0.267588   0.217641   0.663295
   31  O  5  Z    0.847750  -0.154853  -0.087884   0.606718  -0.235640
   32  C  6  S   -0.000177  -0.006443   0.028725   0.000336   0.012178
   33  C  6  S   -0.002145  -0.458316   0.117754  -0.003557  -0.125989
   34  C  6  X   -0.000056   0.007947   0.003781   0.002828   0.147953
   35  C  6  Y    0.011577  -0.041640   0.230993   0.038290   0.135625
   36  C  6  Z    0.032482   0.013532  -0.077266   0.102503  -0.046827
   37  C  6  S    0.016274  -0.629663  -0.432125  -0.004578   0.064338
   38  C  6  X    0.008988   0.257606   0.447848   0.004777  -0.196608
   39  C  6  Y   -0.057786  -0.135729   0.030257  -0.242431  -0.258613
   40  C  6  Z   -0.169387   0.051476  -0.001538  -0.744881   0.104669
   41  H  7  S    0.000497  -0.107103   0.018907  -0.003282  -0.240473
   42  H  7  S    0.000409   0.165425   0.238089   0.008235   0.193464
   43  N  8  S   -0.000835   0.016985   0.015836   0.000750  -0.000595
   44  N  8  S    0.006273  -0.135562  -0.112476  -0.006572   0.014591
   45  N  8  X    0.005661  -0.026505   0.028721  -0.002038  -0.035775
   46  N  8  Y    0.016601  -0.002895  -0.097869   0.051565   0.017420
   47  N  8  Z    0.066879  -0.007297   0.020367   0.173756  -0.003381
   48  N  8  S   -0.001674   0.001747  -0.119508  -0.000441   0.022766
   49  N  8  X   -0.009945   0.148573   0.182432   0.008444   0.015059
   50  N  8  Y   -0.034538   0.079951   0.252182  -0.134676  -0.026535
   51  N  8  Z   -0.132763  -0.007673  -0.051958  -0.473985   0.009891
   52  H  9  S    0.033366  -0.071589  -0.062609  -0.172273   0.017852
   53  H  9  S   -0.173460  -0.300235  -0.253407  -0.138510   0.073239
   54  H 10  S   -0.030222  -0.072965  -0.068968   0.173126   0.010707
   55  H 10  S    0.160614  -0.300115  -0.265226   0.120439   0.061058

                     51         52         53         54         55
                    2.1272     2.2723     2.8478     3.4180     3.5995
                     A          A          A          A          A   
    1  C  1  S   -0.044954  -0.070319   0.084596  -0.002977   0.004429
    2  C  1  S   -0.469776  -1.618373   0.762055   0.077610   0.021307
    3  C  1  X   -0.235779   0.073071  -0.149330   0.007149  -0.007462
    4  C  1  Y    0.003992  -0.002448  -0.062144   0.000995  -0.007838
    5  C  1  Z   -0.007121   0.002205   0.016346  -0.002569   0.004161
    6  C  1  S    2.242007   4.098341  -2.917075  -0.169273  -0.456043
    7  C  1  X   -0.174892  -0.798332  -0.317933  -0.133332   0.583927
    8  C  1  Y    0.677280   0.465077  -0.632343  -0.143595   0.152271
    9  C  1  Z   -0.216018  -0.169021   0.180876   0.063029  -0.060220
   10  H  2  S    0.032343   0.013725  -0.308533   0.069155  -0.033163
   11  H  2  S   -0.207468  -0.201773  -0.212371   0.006752  -0.011198
   12  H  3  S    0.013021   0.003880  -0.305239   0.070037  -0.040352
   13  H  3  S   -0.194072  -0.196567  -0.211192   0.012077  -0.008950
   14  O  4  S    0.021843  -0.000595  -0.002332  -0.000004   0.044099
   15  O  4  S   -0.122536  -0.001151   0.037946  -0.060572  -1.784680
   16  O  4  X   -0.353657  -0.270182   0.069201   0.110021   0.023387
   17  O  4  Y    0.122993  -0.074097  -0.013462  -0.009217   0.235998
   18  O  4  Z   -0.036896   0.026346   0.008321   0.003264  -0.078299
   19  O  4  S   -0.111564   0.064477  -0.049330   0.067095   3.074977
   20  O  4  X    0.611961   0.549716  -0.166226  -0.389268  -0.083909
   21  O  4  Y   -0.117908   0.027704   0.060566  -0.045699  -1.018725
   22  O  4  Z    0.034533  -0.011456  -0.025776   0.014155   0.338494
   23  O  5  S    0.020245   0.012347   0.007453   0.056520  -0.003045
   24  O  5  S   -0.099425  -0.169175  -0.115928  -1.717444   0.072699
   25  O  5  X   -0.625606   0.517929   0.032656  -0.157940   0.083006
   26  O  5  Y    0.553127  -0.084159  -0.073776  -0.194466  -0.096495
   27  O  5  Z   -0.186785   0.030769   0.023566   0.063583   0.033266
   28  O  5  S    0.027013   0.208346   0.099505   2.566248  -0.253186
   29  O  5  X    1.080567  -0.718717  -0.128070   0.523486  -0.305219
   30  O  5  Y   -0.878155   0.070305   0.173226   0.645521   0.325300
   31  O  5  Z    0.296784  -0.028465  -0.056848  -0.211650  -0.111496
   32  C  6  S    0.021081   0.039425  -0.023835   0.040408  -0.001015
   33  C  6  S    0.557290   0.668504  -0.123196   0.006934  -0.222982
   34  C  6  X    0.163236   0.013219   0.106373   0.115816  -0.007484
   35  C  6  Y   -0.071831  -0.076046   0.012975   0.052537  -0.187788
   36  C  6  Z    0.023721   0.025656  -0.001773  -0.017159   0.062636
   37  C  6  S   -1.752636  -1.976089   0.944507  -0.937007  -0.791355
   38  C  6  X   -1.218500  -1.388068   0.548275   1.084408   0.055097
   39  C  6  Y    1.083356   0.685885  -0.338844   0.403267  -1.690321
   40  C  6  Z   -0.359950  -0.227300   0.115990  -0.131291   0.565293
   41  H  7  S    0.441610  -0.195864  -0.076471  -0.308366  -0.136305
   42  H  7  S    0.117440  -0.336176  -0.007936  -0.076414   0.033378
   43  N  8  S    0.022817   0.031211  -0.005851   0.001426   0.001574
   44  N  8  S   -0.232656  -0.353701  -1.791707   0.172418  -0.009952
   45  N  8  X   -0.009121   0.063990   0.179349  -0.070834   0.034914
   46  N  8  Y   -0.067238  -0.032978   0.028820   0.028156  -0.039563
   47  N  8  Z    0.014562   0.008767  -0.005837  -0.007881   0.010095
   48  N  8  S   -0.066098   0.033185   3.093372  -0.160846  -0.156690
   49  N  8  X    0.304816   0.283200  -0.901390   0.098411   0.017041
   50  N  8  Y    0.242587   0.230000  -0.087538  -0.129136   0.179044
   51  N  8  Z   -0.050584  -0.053426   0.014147   0.031726  -0.042406
   52  H  9  S   -0.104953  -0.320603   0.236962  -0.024070   0.052711
   53  H  9  S   -0.047666  -0.444639   0.194218   0.017106   0.048101
   54  H 10  S   -0.122488  -0.324925   0.239629  -0.020862   0.042809
   55  H 10  S   -0.027224  -0.448753   0.185169   0.035794   0.037266
 ...... END OF RHF CALCULATION ......
 CPU     0: STEP CPU TIME=     0.18 TOTAL CPU TIME=          0.2 (      0.0 MIN)
 TOTAL WALL CLOCK TIME=          0.3 SECONDS, CPU UTILIZATION IS    75.00%

     ----------------------------------------------------------------
     PROPERTY VALUES FOR THE RHF   SELF-CONSISTENT FIELD WAVEFUNCTION
     ----------------------------------------------------------------

          -----------------
          ENERGY COMPONENTS
          -----------------

         WAVEFUNCTION NORMALIZATION =       1.0000000000

                ONE ELECTRON ENERGY =    -735.8027213774
                TWO ELECTRON ENERGY =     277.4182552517
           NUCLEAR REPULSION ENERGY =     177.1409055342
                                      ------------------
                       TOTAL ENERGY =    -281.2435605915

 ELECTRON-ELECTRON POTENTIAL ENERGY =     277.4182552517
  NUCLEUS-ELECTRON POTENTIAL ENERGY =   -1016.0292819064
   NUCLEUS-NUCLEUS POTENTIAL ENERGY =     177.1409055342
                                      ------------------
             TOTAL POTENTIAL ENERGY =    -561.4701211205
               TOTAL KINETIC ENERGY =     280.2265605290
                 VIRIAL RATIO (V/T) =       2.0036292065

          ---------------------------------------
          MULLIKEN AND LOWDIN POPULATION ANALYSES
          ---------------------------------------

     ATOMIC MULLIKEN POPULATION IN EACH MOLECULAR ORBITAL

                      1          2          3          4          5

                  2.000000   2.000000   2.000000   2.000000   2.000000

    1            -0.000075   0.000039   0.003832   0.005469   1.985280
    2            -0.000000   0.000001   0.001404   0.000004   0.000070
    3            -0.000000   0.000000   0.001398   0.000003   0.000071
    4            -0.000005   1.992400   0.000000  -0.002011  -0.000008
    5             1.995118   0.000000  -0.000000  -0.000067   0.000006
    6             0.004236   0.007566  -0.000057   1.996436   0.006128
    7             0.000726  -0.000005   0.000000   0.000049   0.000001
    8            -0.000000   0.000000   1.993446   0.000002   0.002401
    9             0.000001  -0.000000  -0.000012   0.000057   0.003020
   10            -0.000000  -0.000000  -0.000010   0.000060   0.003031

                      6          7          8          9         10

                  2.000000   2.000000   2.000000   2.000000   2.000000

    1             0.001615   0.011314   0.475516   0.787684   0.327377
    2            -0.000023   0.000232   0.076218   0.058728   0.025801
    3            -0.000026   0.000137   0.076912   0.059303   0.026080
    4             0.748822   0.921478   0.024326   0.047211   0.133735
    5             0.870683   0.887905   0.004079   0.140793   0.687436
    6             0.335572   0.126713   0.030918   0.396908   0.329981
    7             0.042547   0.050797   0.001390   0.043847   0.184176
    8             0.002007   0.001388   1.293526   0.352304   0.152982
    9            -0.000579   0.000011   0.008696   0.056579   0.065359
   10            -0.000619   0.000025   0.008418   0.056642   0.067073

                     11         12         13         14         15

                  2.000000   2.000000   2.000000   2.000000   2.000000

    1             0.327707   0.519195   0.110762  -0.000448   0.542469
    2             0.021030   0.145896   0.010309   0.106170   0.095619
    3             0.013282   0.149727   0.011401   0.121827   0.083190
    4             0.576632   0.127790   0.740555   0.260430   0.025453
    5             0.286365   0.117693   0.669577   0.737342   0.307138
    6             0.468353   0.192205   0.335622   0.428088   0.020625
    7             0.070845   0.008570   0.036041   0.000020   0.076021
    8             0.122087   0.511536   0.070680   0.340049   0.744755
    9             0.102613   0.070181   0.005386   0.002644   0.054233
   10             0.011085   0.157206   0.009668   0.003879   0.050496

                     16         17         18         19         20

                  2.000000   2.000000   2.000000   2.000000   2.000000

    1             0.303991   0.631469   0.021166   0.172736   0.075636
    2             0.008672   0.124913   0.001588   0.002396   0.014075
    3             0.007990   0.124997   0.001687   0.002290   0.014640
    4             0.513145   0.019907   1.069023   1.307727   0.100092
    5             0.659896   0.311265   0.716880   0.258185   0.050113
    6             0.179093   0.007844   0.151034   0.020490   0.160465
    7             0.052833   0.000005   0.000000   0.006532   0.016445
    8             0.155567   0.275234   0.000203   0.217193   1.514099
    9             0.057156   0.256737   0.019002   0.007251   0.023802
   10             0.061658   0.247630   0.019417   0.005201   0.030634

               ----- POPULATIONS IN EACH AO -----
                             MULLIKEN      LOWDIN
              1  C  1  S      1.98888     1.97595
              2  C  1  S      0.35370     0.41594
              3  C  1  X      0.49277     0.47460
              4  C  1  Y      0.54049     0.51464
              5  C  1  Z      0.57160     0.54120
              6  C  1  S      1.08109     0.57020
              7  C  1  X      0.23373     0.46963
              8  C  1  Y      0.43452     0.54971
              9  C  1  Z      0.60594     0.60210
             10  H  2  S      0.44488     0.45506
             11  H  2  S      0.24822     0.36447
             12  H  3  S      0.44541     0.45563
             13  H  3  S      0.24950     0.36483
             14  O  4  S      1.98722     1.98172
             15  O  4  S      0.42769     0.58695
             16  O  4  X      0.82720     0.82931
             17  O  4  Y      0.64357     0.63482
             18  O  4  Z      0.59495     0.58979
             19  O  4  S      1.55525     1.05008
             20  O  4  X      0.97839     1.00824
             21  O  4  Y      0.77195     0.81459
             22  O  4  Z      0.82047     0.82939
             23  O  5  S      1.98629     1.98039
             24  O  5  S      0.41439     0.57539
             25  O  5  X      0.56004     0.54247
             26  O  5  Y      0.72605     0.72455
             27  O  5  Z      0.80502     0.81378
             28  O  5  S      1.52138     1.02491
             29  O  5  X      0.70731     0.73806
             30  O  5  Y      0.94631     0.94564
             31  O  5  Z      1.03362     1.01868
             32  C  6  S      1.98709     1.97644
             33  C  6  S      0.43657     0.44606
             34  C  6  X      0.52760     0.51038
             35  C  6  Y      0.59521     0.56861
             36  C  6  Z      0.35002     0.33557
             37  C  6  S      0.56151     0.52443
             38  C  6  X      0.24854     0.43860
             39  C  6  Y      0.10077     0.42948
             40  C  6  Z      0.39091     0.45267
             41  H  7  S      0.39472     0.40976
             42  H  7  S      0.19612     0.30857
             43  N  8  S      1.98752     1.97871
             44  N  8  S      0.36473     0.48054
             45  N  8  X      0.62324     0.62475
             46  N  8  Y      0.63308     0.62104
             47  N  8  Z      0.54954     0.52070
             48  N  8  S      1.33983     0.80832
             49  N  8  X      0.81504     0.85974
             50  N  8  Y      0.78884     0.81816
             51  N  8  Z      0.64763     0.68191
             52  H  9  S      0.46314     0.46961
             53  H  9  S      0.26900     0.41187
             54  H 10  S      0.46277     0.46957
             55  H 10  S      0.26873     0.41178

          ----- MULLIKEN ATOMIC OVERLAP POPULATIONS -----
          (OFF-DIAGONAL ELEMENTS NEED TO BE MULTIPLIED BY 2)

             1           2           3           4           5

    1    5.4533723
    2   -0.0557487   0.4402137
    3   -0.0550868  -0.0315832   0.4423006
    4   -0.0814111   0.0028735   0.0020840   8.2130370
    5   -0.0713941   0.0000355   0.0000257  -0.0549258   8.3891900
    6    0.0999101   0.0004419   0.0006237   0.5204469   0.1743585
    7    0.0052637  -0.0000016  -0.0000011   0.0029684   0.2547044
    8    0.2639124   0.3358789   0.3360212   0.0001307   0.0007182
    9    0.3713742   0.0035103  -0.0029773   0.0008007   0.0039165
   10    0.3725397  -0.0025177   0.0035039   0.0006996   0.0037749

             6           7           8           9          10

    6    4.5994920
    7   -0.0279192   0.3563838
    8   -0.0657148  -0.0000706   6.9352779
    9   -0.0507212  -0.0002416  -0.0280148   0.4505853
   10   -0.0526989  -0.0002446  -0.0286811  -0.0160958   0.4512128

          TOTAL MULLIKEN AND LOWDIN ATOMIC POPULATIONS
       ATOM         MULL.POP.    CHARGE          LOW.POP.     CHARGE
    1 C             6.302732   -0.302732         6.113975   -0.113975
    2 H             0.693103    0.306897         0.819535    0.180465
    3 H             0.694911    0.305089         0.820459    0.179541
    4 O             8.606704   -0.606704         8.324906   -0.324906
    5 O             8.700404   -0.700404         8.363863   -0.363863
    6 C             5.198219    0.801781         5.682235    0.317765
    7 H             0.590842    0.409158         0.718331    0.281669
    8 N             7.749458   -0.749458         7.393873   -0.393873
    9 H             0.732136    0.267864         0.881473    0.118527
   10 H             0.731493    0.268507         0.881349    0.118651

          -------------------------------
          BOND ORDER AND VALENCE ANALYSIS     BOND ORDER THRESHOLD=0.050
          -------------------------------

                   BOND                       BOND                       BOND
  ATOM PAIR DIST  ORDER      ATOM PAIR DIST  ORDER      ATOM PAIR DIST  ORDER
    1   6  1.525  0.808        1   8  1.467  0.941        1   9  1.095  0.889
    1  10  1.096  0.888        2   8  1.025  0.861        3   8  1.025  0.862
    4   5  2.295  0.084        4   6  1.225  1.797        5   6  1.381  0.891
    5   7  0.999  0.785

                       TOTAL       BONDED        FREE
      ATOM            VALENCE     VALENCE     VALENCE
    1 C                 3.548       3.548      -0.000
    2 H                 0.872       0.872       0.000
    3 H                 0.872       0.872       0.000
    4 O                 1.934       1.934      -0.000
    5 O                 1.773       1.773      -0.000
    6 C                 3.515       3.515      -0.000
    7 H                 0.820       0.820      -0.000
    8 N                 2.690       2.690      -0.000
    9 H                 0.889       0.889       0.000
   10 H                 0.888       0.888       0.000

          ---------------------
          ELECTROSTATIC MOMENTS
          ---------------------

 POINT   1           X           Y           Z (BOHR)    CHARGE
                 0.137365   -0.123926   -0.259235       -0.00 (A.U.)
         DX          DY          DZ         /D/  (DEBYE)
    -1.199426   -0.321010    0.161566    1.252107
 ...... END OF PROPERTY EVALUATION ......
 CPU     0: STEP CPU TIME=     0.02 TOTAL CPU TIME=          0.3 (      0.0 MIN)
 TOTAL WALL CLOCK TIME=          0.3 SECONDS, CPU UTILIZATION IS    76.47%
               580000  WORDS OF DYNAMIC MEMORY USED
 EXECUTION OF GAMESS TERMINATED NORMALLY Sun May 17 13:15:42 2020
 DDI: 263640 bytes (0.3 MB / 0 MWords) used by master data server.
Note: The following floating-point exceptions are signalling: IEEE_DENORMALNote: The following floating-point exceptions are signalling: IEEE_DENORMALNote: The following floating-point exceptions are signalling:

 ----------------------------------------
 CPU timing information for all processes
 ========================================
 0: 0.165 + 0.106 = 0.271
 1: 0.186 + 0.05 = 0.191
 2: 0.173 + 0.15 = 0.189
 3: 0.187 + 0.15 = 0.202
 4: 0.175 + 0.12 = 0.188
 5: 0.167 + 0.08 = 0.175
 ----------------------------------------

 IEEE_DENORMALNote: The following floating-point exceptions are signalling:Note: The following floating-point exceptions are signalling:
Note: The following floating-point exceptions are signalling: IEEE_DENORMAL IEEE_DENORMAL
 IEEE_DENORMAL

 ddikick.x: exited gracefully.
unset echo
----- accounting info -----
Files used on the master node pietdev were:
-rwxr-xr-x 1 piet piet      687 mei 17 13:15 /home/piet/scr/glycine_fukui_neu.F05*
-rw-r--r-- 1 piet piet 49152000 mei 17 13:15 /home/piet/scr/glycine_fukui_neu.F10
ls: No match.
ls: No match.
ls: No match.
zo 17 mei 2020 13:15:45 CEST
0.123u 0.026s 0:03.52 3.9%	0+0k 0+8io 0pf+0w
