----- GAMESS execution script 'rungms' -----
This job is running on host pietdev
under operating system Linux at zo 17 mei 2020 13:06:29 CEST
Available scratch disk space (Kbyte units) at beginning of the job is
Filesystem     1K-blocks     Used Available Use% Mounted on
/dev/sda2      244568380 30358408 201716916  14% /
GAMESS temporary binary files will be written to /home/piet/scr
GAMESS supplementary output files will be written to /home/piet/gamess/scr
Copying input file glycine_geoopt.inp to your run's scratch directory...
cp glycine_geoopt.inp /home/piet/scr/glycine_geoopt.F05
unset echo
 
Assuming a single but multicore node.
 
/home/piet/gamess/ddikick.x /home/piet/gamess/gamess.03.x glycine_geoopt -ddi 1 6 pietdev:cpus=6 -scr /home/piet/scr

 Distributed Data Interface kickoff program.
 Initiating 6 compute processes on 1 nodes to run the following command:
 /home/piet/gamess/gamess.03.x glycine_geoopt 

          ******************************************************
          *         GAMESS VERSION = 30 SEP 2019 (R2)          *
          *             FROM IOWA STATE UNIVERSITY             *
          * M.W.SCHMIDT, K.K.BALDRIDGE, J.A.BOATZ, S.T.ELBERT, *
          *   M.S.GORDON, J.H.JENSEN, S.KOSEKI, N.MATSUNAGA,   *
          *          K.A.NGUYEN, S.J.SU, T.L.WINDUS,           *
          *       TOGETHER WITH M.DUPUIS, J.A.MONTGOMERY       *
          *         J.COMPUT.CHEM.  14, 1347-1363(1993)        *
          **************** 64 BIT LINUX VERSION ****************

  SINCE 1993, STUDENTS AND POSTDOCS WORKING AT IOWA STATE UNIVERSITY
  AND ALSO IN THEIR VARIOUS JOBS AFTER LEAVING ISU HAVE MADE IMPORTANT
  CONTRIBUTIONS TO THE CODE:
     IVANA ADAMOVIC, CHRISTINE AIKENS, YURI ALEXEEV, POOJA ARORA,
     ANDREY ASADCHEV, ROB BELL, PRADIPTA BANDYOPADHYAY, JONATHAN BENTZ,
     COLLEEN BERTONI, BRETT BODE, KURT BRORSEN, CALEB CARLIN, GALINA CHABAN,
     WEI CHEN, CHEOL HO CHOI, PAUL DAY, ALBERT DEFUSCO, NUWAN DESILVA,
     TIM DUDLEY, DMITRI FEDOROV, ALEX FINDLATER, GRAHAM FLETCHER, 
     MARK FREITAG, KURT GLAESEMANN, EMILIE B GUIDEZ, ANASTASIA GUNINA, 
     DAN KEMP, SAROM SOK LEANG, GRANT MERRILL,
     NORIYUKI MINEZAWA, JONATHAN MULLIN,
     TAKESHI NAGATA, SEAN NEDD, HEATHER NETZLOFF, BOSILJKA NJEGIC, RYAN OLSON,
     MIKE PAK, BUU PHAM, DAVID POOLE,
     SPENCER PRUITT, LUKE ROSKOP, TOSAPORN SATTASATHUCHANA,
     JIM SHOEMAKER, LYUDMILA SLIPCHENKO,
     TONY SMITH, JIE SONG, TETSUYA TAKETSUGU, SIMON WEBB,
     JORGE LUIS GALVEZ VALLEJO, PENG XU, SOOHAENG YOO,
     FEDERICO ZAHARIEV

  ADDITIONAL CODE HAS BEEN PROVIDED BY COLLABORATORS IN OTHER GROUPS:
     IOWA STATE UNIVERSITY:
          JOE IVANIC, AARON WEST, LAIMUTIS BYTAUTAS, KLAUS RUEDENBERG
     UNIVERSITY OF TOKYO: KIMIHIKO HIRAO, TAKAHITO NAKAJIMA,
          TAKAO TSUNEDA, MUNEAKI KAMIYA, SUSUMU YANAGISAWA,
          KIYOSHI YAGI, MAHITO CHIBA, SEIKEN TOKURA, NAOAKI KAWAKAMI
     UNIVERSITY OF AARHUS: FRANK JENSEN
     UNIVERSITY OF IOWA: VISVALDAS KAIRYS, HUI LI
     NATIONAL INST. OF STANDARDS AND TECHNOLOGY: WALT STEVENS, DAVID GARMER
     UNIVERSITY OF PISA: BENEDETTA MENNUCCI, JACOPO TOMASI
     UNIVERSITY OF MEMPHIS: HENRY KURTZ, PRAKASHAN KORAMBATH
     UNIVERSITY OF ALBERTA: TOBY ZENG, MARIUSZ KLOBUKOWSKI
     UNIVERSITY OF NEW ENGLAND: MARK SPACKMAN
     MIE UNIVERSITY: HIROAKI UMEDA
     NAT. INST. OF ADVANCED INDUSTRIAL SCIENCE AND TECHNOLOGY: KAZUO KITAURA
     MICHIGAN STATE UNIVERSITY:
          KAROL KOWALSKI, MARTA WLOCH, JEFFREY GOUR, JESSE LUTZ,
          WEI LI, JUN SHEN, J. EMILIANO DEUSTUA, PIOTR PIECUCH
     UNIVERSITY OF MINNESOTA:
          ANDREW SAND, PRACHI SHARMA, YINAN SHU
     UNIVERSITY OF SILESIA: MONIKA MUSIAL, STANISLAW KUCHARSKI
     FACULTES UNIVERSITAIRES NOTRE-DAME DE LA PAIX:
          OLIVIER QUINET, BENOIT CHAMPAGNE
     UNIVERSITY OF CALIFORNIA - SANTA BARBARA: BERNARD KIRTMAN
     INSTITUTE FOR MOLECULAR SCIENCE:
          KAZUYA ISHIMURA, MICHIO KATOUDA, AND SHIGERU NAGASE
     UNIVERSITY OF NOTRE DAME: ANNA POMOGAEVA, DAN CHIPMAN
     KYUSHU UNIVERSITY:
          HARUYUKI NAKANO,
          FENG LONG GU, JACEK KORCHOWIEC, MARCIN MAKOWSKI, AND YURIKO AOKI,
          HIROTOSHI MORI AND EISAKU MIYOSHI
     PENNSYLVANIA STATE UNIVERSITY:
          TZVETELIN IORDANOV, CHET SWALINA, JONATHAN SKONE,
          SHARON HAMMES-SCHIFFER
     WASEDA UNIVERSITY:
          MASATO KOBAYASHI, TOMOKO AKAMA, TSUGUKI TOUMA,
          TAKESHI YOSHIKAWA, YASUHIRO IKABATA, JUNJI SEINO,
          YUYA NAKAJIMA, HIROMI NAKAI
     NANJING UNIVERSITY: SHUHUA LI
     UNIVERSITY OF NEBRASKA:
          PEIFENG SU, DEJUN SI, NANDUN THELLAMUREGE, YALI WANG, HUI LI
     UNIVERSITY OF ZURICH: ROBERTO PEVERATI, KIM BALDRIDGE
     N. COPERNICUS UNIVERSITY AND JACKSON STATE UNIVERSITY:
          MARIA BARYSZ
     UNIVERSITY OF COPENHAGEN: Jimmy Kromann, CASPER STEINMANN
     TOKYO INSTITUTE OF TECHNOLOGY: HIROYA NAKATA
     NAGOYA UNIVERSITY: YOSHIO NISHIMOTO, STEPHAN IRLE
     MOSCOW STATE UNIVERSITY: VLADIMIR MIRONOV
     A.N.NESMEYANOV INSTITUTE OF ORGANOELEMENT COMPOUNDS OF RUSSIAN ACADEMY OF SCIENCES:
          IGOR S. GERASIMOV
     JOHANNES KEPLER UNIVERSITY LINZ:
          CHRISTIAN FRIEDL


 PARALLEL VERSION RUNNING ON        6 PROCESSORS IN        1 NODES.

 EXECUTION OF GAMESS BEGUN Sun May 17 13:06:29 2020

            ECHO OF THE FIRST FEW INPUT CARDS -
 INPUT CARD> $BASIS GBASIS=N21 NGAUSS=3 $END                                                
 INPUT CARD> $CONTRL SCFTYP=RHF RUNTYP=OPTIMIZE DFTTYP=B3LYP MAXIT=60 MULT=1 ICHARG=0 $END  
 INPUT CARD> $SYSTEM MEMDDI=1000 MWORDS=30 $END                                             
 INPUT CARD> $STATPT NSTEP=999 $END                                                         
 INPUT CARD> $SCF DIRSCF=.TRUE. $END                                                        
 INPUT CARD> $DATA                                                                          
 INPUT CARD>                                                                                
 INPUT CARD>C1                                                                              
 INPUT CARD>C 6.0000000 0.76095 -0.79523 -0.01242                                           
 INPUT CARD>H 1.0000000 2.78963 -0.47738 -0.13188                                           
 INPUT CARD>H 1.0000000 1.87697 0.87435 -0.40682                                            
 INPUT CARD>O 8.0000000 -0.48290 1.25722 -0.35395                                           
 INPUT CARD>O 8.0000000 -1.60211 -0.62585 0.18689                                           
 INPUT CARD>C 6.0000000 -0.47413 0.07811 -0.07069                                           
 INPUT CARD>H 1.0000000 -2.35336 -0.01687 0.08278                                           
 INPUT CARD>N 7.0000000 1.95290 0.02412 0.14578                                             
 INPUT CARD>H 1.0000000 0.65544 -1.49259 0.82595                                            
 INPUT CARD>H 1.0000000 0.72998 -1.40561 -0.93392                                           
 INPUT CARD> $END                                                                           
   30000000 WORDS OF MEMORY AVAILABLE

     BASIS OPTIONS
     -------------
     GBASIS=N21          IGAUSS=       3      POLAR=NONE    
     NDFUNC=       0     NFFUNC=       0     DIFFSP=       F
     NPFUNC=       0      DIFFS=       F     BASNAM=        


     RUN TITLE
     ---------
                                                                                 

 THE POINT GROUP OF THE MOLECULE IS C1      
 THE ORDER OF THE PRINCIPAL AXIS IS     0

 ATOM      ATOMIC                      COORDINATES (BOHR)
           CHARGE         X                   Y                   Z
 C           6.0     1.4379869904       -1.5027667972       -0.0234703968
 H           1.0     5.2716363071       -0.9021173920       -0.2492170633
 H           1.0     3.5469589872        1.6522819174       -0.7687783263
 O           8.0    -0.9125486795        2.3758013063       -0.6688685134
 O           8.0    -3.0275489022       -1.1826850094        0.3531708898
 C           6.0    -0.8959757826        0.1476064969       -0.1335847301
 H           1.0    -4.4472055505       -0.0318796774        0.1564315173
 N           7.0     3.6904458814        0.0455801908        0.2754842545
 H           1.0     1.2386020014       -2.8205861120        1.5608191796
 H           1.0     1.3794621765       -2.6562177456       -1.7648528945

          INTERNUCLEAR DISTANCES (ANGS.)
          ------------------------------

                1 C          2 H          3 H          4 O          5 O     

   1 C       0.0000000    2.0569010 *  2.0465946 *  2.4241198 *  2.3774917 *
   2 H       2.0569010 *  0.0000000    1.6539995 *  3.7104723    4.4057959  
   3 H       2.0465946 *  1.6539995 *  0.0000000    2.3913116 *  3.8349823  
   4 O       2.4241198 *  3.7104723    2.3913116 *  0.0000000    2.2563447 *
   5 O       2.3774917 *  4.4057959    3.8349823    2.2563447 *  0.0000000  
   6 C       1.5137836 *  3.3112600    2.5049257 *  1.2126886 *  1.3543434 *
   7 H       3.2115159    5.1680262    4.3508244    2.3049206 *  0.9726624 *
   8 N       1.4550280 *  1.0142556 *  1.0168693 *  2.7754977 *  3.6141731  
   9 H       1.0955855 *  2.5500699 *  2.9350064 *  3.2014742    2.5012333 *
  10 H       1.1057509 *  2.3972979 *  2.6060771 *  2.9829694 *  2.7023850 *

                6 C          7 H          8 N          9 H         10 H     

   1 C       1.5137836 *  3.2115159    1.4550280 *  1.0955855 *  1.1057509 *
   2 H       3.3112600    5.1680262    1.0142556 *  2.5500699 *  2.3972979 *
   3 H       2.5049257 *  4.3508244    1.0168693 *  2.9350064 *  2.6060771 *
   4 O       1.2126886 *  2.3049206 *  2.7754977 *  3.2014742    2.9829694 *
   5 O       1.3543434 *  0.9726624 *  3.6141731    2.5012333 *  2.7023850 *
   6 C       0.0000000    1.8878770 *  2.4372626 *  2.1323673 *  2.0967766 *
   7 H       1.8878770 *  0.0000000    4.3069159    3.4326271    3.5311844  
   8 N       2.4372626 *  4.3069159    0.0000000    2.1086590 *  2.1691965 *
   9 H       2.1323673 *  3.4326271    2.1086590 *  0.0000000    1.7635941 *
  10 H       2.0967766 *  3.5311844    2.1691965 *  1.7635941 *  0.0000000  

  * ... LESS THAN  3.000


     ATOMIC BASIS SET
     ----------------
 THE CONTRACTED PRIMITIVE FUNCTIONS HAVE BEEN UNNORMALIZED
 THE CONTRACTED BASIS FUNCTIONS ARE NOW NORMALIZED TO UNITY

  SHELL TYPE  PRIMITIVE        EXPONENT          CONTRACTION COEFFICIENT(S)

 C         

      1   S       1           172.2560000    0.061766907377
      1   S       2            25.9109000    0.358794042852
      1   S       3             5.5333500    0.700713083689

      2   L       4             3.6649800   -0.395895162119    0.236459946619
      2   L       5             0.7705450    1.215834355681    0.860618805716

      3   L       6             0.1958570    1.000000000000    1.000000000000

 H         

      4   S       7             5.4471780    0.156284978695
      4   S       8             0.8245472    0.904690876670

      5   S       9             0.1831916    1.000000000000

 H         

      6   S      10             5.4471780    0.156284978695
      6   S      11             0.8245472    0.904690876670

      7   S      12             0.1831916    1.000000000000

 O         

      8   S      13           322.0370000    0.059239393389
      8   S      14            48.4308000    0.351499960776
      8   S      15            10.4206000    0.707657921031

      9   L      16             7.4029400   -0.404453583190    0.244586106967
      9   L      17             1.5762000    1.221561761397    0.853955373466

     10   L      18             0.3736840    1.000000000000    1.000000000000

 O         

     11   S      19           322.0370000    0.059239393389
     11   S      20            48.4308000    0.351499960776
     11   S      21            10.4206000    0.707657921031

     12   L      22             7.4029400   -0.404453583190    0.244586106967
     12   L      23             1.5762000    1.221561761397    0.853955373466

     13   L      24             0.3736840    1.000000000000    1.000000000000

 C         

     14   S      25           172.2560000    0.061766907377
     14   S      26            25.9109000    0.358794042852
     14   S      27             5.5333500    0.700713083689

     15   L      28             3.6649800   -0.395895162119    0.236459946619
     15   L      29             0.7705450    1.215834355681    0.860618805716

     16   L      30             0.1958570    1.000000000000    1.000000000000

 H         

     17   S      31             5.4471780    0.156284978695
     17   S      32             0.8245472    0.904690876670

     18   S      33             0.1831916    1.000000000000

 N         

     19   S      34           242.7660000    0.059865700508
     19   S      35            36.4851000    0.352955002994
     19   S      36             7.8144900    0.706513005993

     20   L      37             5.4252200   -0.413300077430    0.237972016222
     20   L      38             1.1491500    1.224417266851    0.858953058551

     21   L      39             0.2832050    1.000000000000    1.000000000000

 H         

     22   S      40             5.4471780    0.156284978695
     22   S      41             0.8245472    0.904690876670

     23   S      42             0.1831916    1.000000000000

 H         

     24   S      43             5.4471780    0.156284978695
     24   S      44             0.8245472    0.904690876670

     25   S      45             0.1831916    1.000000000000

 TOTAL NUMBER OF BASIS SET SHELLS             =   25
 NUMBER OF CARTESIAN GAUSSIAN BASIS FUNCTIONS =   55
 NUMBER OF ELECTRONS                          =   40
 CHARGE OF MOLECULE                           =    0
 SPIN MULTIPLICITY                            =    1
 NUMBER OF OCCUPIED ORBITALS (ALPHA)          =   20
 NUMBER OF OCCUPIED ORBITALS (BETA )          =   20
 TOTAL NUMBER OF ATOMS                        =   10
 THE NUCLEAR REPULSION ENERGY IS      179.2365023061

 SELECTED MURRAY-HANDY-LAMING RADIAL GRID

 LEGACY BECKE'S FUZZY CELL METHOD

 SELECTED ORIGINAL BECKE'S PARTITION FUNCTION

     LEBEDEV GRID-BASED DFT OPTIONS
     ------------------------------
     DFTTYP=B3LYP   
     NRAD  =      96     NLEB  =     302
     NRAD0 =      24     NLEB0 =     110
     SWOFF =    5.00E-03 (PURE SCF -> DFT)
     SWITCH=    3.00E-04 (COARSE -> TIGHT GRID)
     THRESH=    0.00E+00 GTHRE=    1.00E+00

 GRIMME'S EMPIRICAL DISPERSION CORRECTION= F

     $CONTRL OPTIONS
     ---------------
 SCFTYP=RHF          RUNTYP=OPTIMIZE     EXETYP=RUN     
 MPLEVL=       0     CITYP =NONE         CCTYP =NONE         VBTYP =NONE    
 DFTTYP=B3LYP        TDDFT =NONE    
 MULT  =       1     ICHARG=       0     NZVAR =       0     COORD =UNIQUE  
 PP    =NONE         RELWFN=NONE         LOCAL =NONE         NUMGRD=       F
 ISPHER=      -1     NOSYM =       0     MAXIT =      60     UNITS =ANGS    
 PLTORB=       F     MOLPLT=       F     AIMPAC=       F     FRIEND=        
 NPRINT=       7     IREST =       0     GEOM  =INPUT   
 NORMF =       0     NORMP =       0     ITOL  =      20     ICUT  =       9
 INTTYP=BEST         GRDTYP=BEST         QMTTOL= 1.0E-06

     $SYSTEM OPTIONS
     ---------------
  REPLICATED MEMORY=    30000000 WORDS (ON EVERY NODE).
 DISTRIBUTED MEMDDI=        1000 MILLION WORDS IN AGGREGATE,
 MEMDDI DISTRIBUTED OVER   6 PROCESSORS IS   166666666 WORDS/PROCESSOR.
 TOTAL MEMORY REQUESTED ON EACH PROCESSOR=   196666666 WORDS.
 TIMLIM=      525600.00 MINUTES, OR     365.0 DAYS.
 PARALL= T  BALTYP=  DLB     KDIAG=    0  COREFL= F
 MXSEQ2=     300 MXSEQ3=     150  mem10=         0

          ----------------
          PROPERTIES INPUT
          ----------------

     MOMENTS            FIELD           POTENTIAL          DENSITY
 IEMOM =       1   IEFLD =       0   IEPOT =       0   IEDEN =       0
 WHERE =COMASS     WHERE =NUCLEI     WHERE =NUCLEI     WHERE =NUCLEI  
 OUTPUT=BOTH       OUTPUT=BOTH       OUTPUT=BOTH       OUTPUT=BOTH    
 IEMINT=       0   IEFINT=       0                     IEDINT=       0
                                                       MORB  =       0
          EXTRAPOLATION IN EFFECT
          DIIS IN EFFECT
 ORBITAL PRINTING OPTION: NPREO=     1    55     2     1

     -------------------------------
     INTEGRAL TRANSFORMATION OPTIONS
     -------------------------------
     NWORD  =            0
     CUTOFF = 1.0E-09     MPTRAN =       0
     DIRTRF =       T     AOINTS =DUP     

          ----------------------
          INTEGRAL INPUT OPTIONS
          ----------------------
 NOPK  =       1 NORDER=       0 SCHWRZ=       T

     ------------------------------------------
     THE POINT GROUP IS C1 , NAXIS= 0, ORDER= 1
     ------------------------------------------

     DIMENSIONS OF THE SYMMETRY SUBSPACES ARE
 A   =   55

 ..... DONE SETTING UP THE RUN .....
 CPU     0: STEP CPU TIME=     0.01 TOTAL CPU TIME=          0.0 (      0.0 MIN)
 TOTAL WALL CLOCK TIME=          0.0 SECONDS, CPU UTILIZATION IS    33.33%


          -----------------------------
          STATIONARY POINT LOCATION RUN
          -----------------------------

 OBTAINING INITIAL HESSIAN, HESS=GUESS   
 CARTESIAN COORDINATE OPTIMIZATION USING BADGER'S RULE FORCE CONSTANT GUESS

          PARAMETERS CONTROLLING GEOMETRY SEARCH ARE
          METHOD =QA                  UPHESS =BFGS    
          NNEG   =         0          NFRZ   =         0
          NSTEP  =       999          IFOLOW =         1
          HESS   =GUESS               RESTAR =         F
          IHREP  =         0          HSSEND =         F
          NPRT   =         0          NPUN   =         0
          OPTTOL = 1.000E-04          RMIN   = 1.500E-03
          RMAX   = 1.000E-01          RLIM   = 7.000E-02
          DXMAX  = 3.000E-01          PURIFY =         F
          MOVIE  =         F          TRUPD  =         T
          TRMAX  = 5.000E-01          TRMIN  = 5.000E-02
          ITBMAT =         5          STPT   =         F
          STSTEP = 1.000E-02          PROJCT=          T

 BEGINNING GEOMETRY SEARCH POINT NSERCH=   0 ...

 COORDINATES OF ALL ATOMS ARE (ANGS)
   ATOM   CHARGE       X              Y              Z
 ------------------------------------------------------------
 C           6.0   0.7609500000  -0.7952300000  -0.0124200000
 H           1.0   2.7896300000  -0.4773800000  -0.1318800000
 H           1.0   1.8769700000   0.8743500000  -0.4068200000
 O           8.0  -0.4829000000   1.2572200000  -0.3539500000
 O           8.0  -1.6021100000  -0.6258500000   0.1868900000
 C           6.0  -0.4741300000   0.0781100000  -0.0706900000
 H           1.0  -2.3533600000  -0.0168700000   0.0827800000
 N           7.0   1.9529000000   0.0241200000   0.1457800000
 H           1.0   0.6554400000  -1.4925900000   0.8259500000
 H           1.0   0.7299800000  -1.4056100000  -0.9339200000

          ********************
          1 ELECTRON INTEGRALS
          ********************
 ...... END OF ONE-ELECTRON INTEGRALS ......
 CPU     0: STEP CPU TIME=     0.01 TOTAL CPU TIME=          0.0 (      0.0 MIN)
 TOTAL WALL CLOCK TIME=          0.0 SECONDS, CPU UTILIZATION IS    50.00%

          -------------
          GUESS OPTIONS
          -------------
          GUESS =HUCKEL            NORB  =       0          NORDER=       0
          MIX   =       F          PRTMO =       F          PUNMO =       F
          TOLZ  = 1.0E-08          TOLE  = 1.0E-05
          SYMDEN=       F          PURIFY=       F

 INITIAL GUESS ORBITALS GENERATED BY HUCKEL   ROUTINE.
 HUCKEL GUESS REQUIRES     32985 WORDS.

 SYMMETRIES FOR INITIAL GUESS ORBITALS FOLLOW.   BOTH SET(S).
    20 ORBITALS ARE OCCUPIED (    5 CORE ORBITALS).
     6=A        7=A        8=A        9=A       10=A       11=A       12=A   
    13=A       14=A       15=A       16=A       17=A       18=A       19=A   
    20=A       21=A       22=A       23=A       24=A       25=A       26=A   
    27=A       28=A       29=A       30=A   
 ...... END OF INITIAL ORBITAL SELECTION ......
 CPU     0: STEP CPU TIME=     0.02 TOTAL CPU TIME=          0.0 (      0.0 MIN)
 TOTAL WALL CLOCK TIME=          0.1 SECONDS, CPU UTILIZATION IS    80.00%

                    ----------------------
                    AO INTEGRAL TECHNOLOGY
                    ----------------------
     S,P,L SHELL ROTATED AXIS INTEGRALS, REPROGRAMMED BY
        KAZUYA ISHIMURA (IMS) AND JOSE SIERRA (SYNSTAR).
     S,P,D,L SHELL ROTATED AXIS INTEGRALS PROGRAMMED BY
        KAZUYA ISHIMURA (INSTITUTE FOR MOLECULAR SCIENCE).
     S,P,D,F,G SHELL TO TOTAL QUARTET ANGULAR MOMENTUM SUM 5,
        ERIC PROGRAM BY GRAHAM FLETCHER (ELORET AND NASA ADVANCED
        SUPERCOMPUTING DIVISION, AMES RESEARCH CENTER).
     S,P,D,F,G,L SHELL GENERAL RYS QUADRATURE PROGRAMMED BY
        MICHEL DUPUIS (PACIFIC NORTHWEST NATIONAL LABORATORY).

          --------------------
          2 ELECTRON INTEGRALS
          --------------------

 DIRECT SCF METHOD SKIPS INTEGRAL STORAGE ON DISK.
 DIRECT TRANSFORMATION SKIPS AO INTEGRAL STORAGE ON DISK.
  ...... END OF TWO-ELECTRON INTEGRALS .....
 CPU     0: STEP CPU TIME=     0.01 TOTAL CPU TIME=          0.0 (      0.0 MIN)
 TOTAL WALL CLOCK TIME=          0.1 SECONDS, CPU UTILIZATION IS    83.33%

          --------------------------
             R-B3LYP SCF CALCULATION
          --------------------------

     NUCLEAR ENERGY =       179.2365023061
     MAXIT =   60     NPUNCH=    2
     EXTRAP=T  DAMP=F  SHIFT=F  RSTRCT=F  DIIS=T  DEM=F  SOSCF=F
         DENSITY MATRIX CONVERGENCE THRESHOLD=  2.00E-05
     COARSE -> FINE DFT GRID SWITCH THRESHOLD=  3.00E-04 (SWITCH IN $DFT)
                   HF -> DFT SWITCH THRESHOLD=  5.00E-03 (SWOFF IN $DFT)
     MEMORY REQUIRED FOR RHF ITERS=    416518 WORDS.

 DIRECT SCF CALCULATION, SCHWRZ=T   FDIFF=T,  DIRTHR=  0.00E+00 NITDIR=10
 SCHWARZ INEQUALITY OVERHEAD:      1521 INTEGRALS, T=        0.00

 DFT CODE IS SWITCHING FROM THE FINE GRID NRAD= 96,  NLEB=  302
                      TO THE COARSE GRID NRAD0= 24, NLEB0=  110

     EXCHANGE FUNCTIONAL   =B88&HFX   
     CORRELATION FUNCTIONAL=LYP88&VWN5
     DFT THRESHOLD         =.138E-07
     GRID CHANGE THRESHOLD =.300E-03
 FOR AN EULER-MACLAURIN QUADRATURE USING  96 RADIAL POINTS:
 SMALLEST GAUSSIAN PRIMITIVE EXPONENT=        0.1831915800 OF TYPE -S-
 ON ATOM NUMBER   2 HAS RADIAL NORMALIZATION=  1.000000
  LARGEST GAUSSIAN PRIMITIVE EXPONENT=      322.0370000000 OF TYPE -S-
 ON ATOM NUMBER   4 HAS RADIAL NORMALIZATION=  1.000000
 DFT IS SWITCHED OFF, PERFORMING PURE SCF UNTIL SWOFF THRESHOLD IS REACHED.

                                                                                   NONZERO     BLOCKS
 ITER EX DEM     TOTAL ENERGY        E CHANGE  DENSITY CHANGE    DIIS ERROR      INTEGRALS    SKIPPED
   1  0  0     -280.4297743412  -280.4297743412   0.720213700   0.637103948        1007971      11995
          * * *   INITIATING DIIS PROCEDURE   * * *
   2  1  0     -281.1464488472    -0.7166745060   0.154523753   0.179151628        1007243      12508
   3  2  0     -281.1970120561    -0.0505632089   0.069562945   0.144875818        1004687      13278
   4  3  0     -281.2398158730    -0.0428038169   0.036171788   0.012690157        1000508      14074
   5  4  0     -281.2410045899    -0.0011887169   0.007007278   0.004980322         991933      14945
   6  5  0     -281.2410851316    -0.0000805417   0.002654959   0.001218132         977460      16323
 CONVERGED TO SWOFF, SO DFT CALCULATION IS NOW SWITCHED ON.
          * * *   INITIATING DIIS PROCEDURE   * * *
   7  6  0     -282.6608231351    -1.4197380035   0.086937076   0.076774330        1008043      11924
   8  7  0     -282.6806510102    -0.0198278751   0.086996530   0.055881273        1004673      13305
   9  8  0     -282.6800006789     0.0006503313   0.039956546   0.070866415        1000990      13872
  10  9  0     -282.6876594308    -0.0076587520   0.010121801   0.020776246         997638      14461
  11 10  0     -282.6882767824    -0.0006173516   0.002452316   0.005413918         988677      15444
  12 11  0     -282.6883226710    -0.0000458885   0.000417411   0.000492688         965233      17275
  13 12  0     -282.6883232845    -0.0000006135   0.000113092   0.000117698         936936      18914
 DFT CODE IS SWITCHING BACK TO THE FINE GRID
          * * *   INITIATING DIIS PROCEDURE   * * *
  14 13  0     -282.6896012475    -0.0012779630   0.002235342   0.001393406        1008107      11867
  15 14  0     -282.6896137485    -0.0000125010   0.001111503   0.001395143         961967      17563
  16 15  0     -282.6896134979     0.0000002506   0.000488575   0.001458664         952913      18145
  17 16  0     -282.6896162580    -0.0000027601   0.000245815   0.000341928         939344      19089
  18 17  0     -282.6896164563    -0.0000001983   0.000030792   0.000068529         911894      20738
  19 18  0     -282.6896164633    -0.0000000070   0.000010358   0.000014004         862294      23248
  20 19  0     -282.6896164641    -0.0000000008   0.000002325   0.000003913         827528      24730

          -----------------
          DENSITY CONVERGED
          -----------------
     TIME TO FORM FOCK OPERATORS=       2.5 SECONDS (       0.1 SEC/ITER)
     FOCK TIME ON FIRST ITERATION=       0.0, LAST ITERATION=       0.3
     TIME TO SOLVE SCF EQUATIONS=       0.1 SECONDS (       0.0 SEC/ITER)

 FINAL R-B3LYP ENERGY IS     -282.6896164641 AFTER  20 ITERATIONS
 DFT EXCHANGE + CORRELATION ENERGY =       -29.5734198240
 TOTAL ELECTRON NUMBER             =        39.9999967247

          ------------
          EIGENVECTORS
          ------------

                      1          2          3          4          5
                  -19.0824   -19.0307   -14.2169   -10.2584   -10.1585
                     A          A          A          A          A   
    1  C  1  S    0.000023  -0.000029  -0.000710  -0.005161   0.986620
    2  C  1  S   -0.000272  -0.000302  -0.003277  -0.003633   0.113646
    3  C  1  X    0.000099   0.000347   0.001333   0.000526  -0.000987
    4  C  1  Y   -0.000159   0.000196   0.000470  -0.000820  -0.000181
    5  C  1  Z    0.000270  -0.000179   0.000181  -0.000148  -0.000173
    6  C  1  S    0.000271   0.006096   0.023710   0.024454  -0.099419
    7  C  1  X    0.004045  -0.009568   0.009456  -0.014660   0.009252
    8  C  1  Y    0.003529  -0.004560   0.009736   0.009198  -0.006333
    9  C  1  Z   -0.002725   0.002407  -0.000507   0.000316   0.000151
   10  H  2  S    0.000929  -0.001038   0.002361   0.000252  -0.000600
   11  H  2  S    0.000480   0.000042   0.008489   0.001612   0.002012
   12  H  3  S   -0.000525  -0.000126   0.002178  -0.000514  -0.001034
   13  H  3  S    0.000869   0.000880   0.008932   0.001536   0.002514
   14  O  4  S   -0.001676   0.982810  -0.000025   0.000410   0.000023
   15  O  4  S   -0.000413   0.107849  -0.000178   0.001720  -0.000087
   16  O  4  X   -0.000810  -0.000098   0.000088  -0.000657   0.000259
   17  O  4  Y    0.000108  -0.004606   0.000062   0.001061   0.000223
   18  O  4  Z    0.000034   0.001119  -0.000096  -0.000153  -0.000005
   19  O  4  S    0.002008  -0.064853   0.001713  -0.006166  -0.000880
   20  O  4  X    0.005031   0.000362  -0.000111   0.003976  -0.002755
   21  O  4  Y    0.000213   0.017194  -0.000811   0.006241   0.000769
   22  O  4  Z   -0.000438  -0.004243   0.000367  -0.002067  -0.000178
   23  O  5  S    0.982633   0.001644   0.000003   0.000247  -0.000003
   24  O  5  S    0.106561  -0.000096  -0.000098   0.001552  -0.000359
   25  O  5  X    0.001360  -0.000630  -0.000225  -0.000293  -0.000668
   26  O  5  Y    0.003671   0.000810   0.000183   0.000969  -0.000016
   27  O  5  Z   -0.001028  -0.000162   0.000054  -0.000189   0.000127
   28  O  5  S   -0.056503   0.002916  -0.000339   0.000671  -0.000050
   29  O  5  X   -0.007524   0.003784   0.000788   0.000968   0.001098
   30  O  5  Y   -0.010369  -0.004833  -0.000752  -0.006029   0.000505
   31  O  5  Z    0.003115   0.000905  -0.000114   0.001245  -0.000445
   32  C  6  S   -0.000424   0.000299   0.000091   0.985213   0.004479
   33  C  6  S   -0.000686   0.001667  -0.000024   0.104656  -0.002978
   34  C  6  X   -0.001613  -0.000139  -0.000682  -0.000022  -0.000360
   35  C  6  Y   -0.000510   0.001894   0.000215   0.000652   0.000429
   36  C  6  Z    0.000307  -0.000490  -0.000159  -0.000320  -0.000184
   37  C  6  S    0.017056   0.018636  -0.005276  -0.052352   0.029022
   38  C  6  X   -0.016969  -0.001836  -0.003497  -0.016975   0.017739
   39  C  6  Y   -0.011276   0.030271  -0.001380   0.017161  -0.009297
   40  C  6  Z    0.004095  -0.006944   0.000681  -0.001937   0.000885
   41  H  7  S    0.003544   0.001563   0.000321   0.001582   0.000241
   42  H  7  S    0.004212  -0.000653  -0.000033   0.001169   0.002363
   43  N  8  S    0.000024  -0.000088   0.984827  -0.000000  -0.000091
   44  N  8  S    0.000027  -0.000390   0.109196  -0.000504  -0.001287
   45  N  8  X    0.000689  -0.000412  -0.000986   0.000892   0.000355
   46  N  8  Y   -0.000284   0.000480  -0.001450   0.000056   0.000225
   47  N  8  Z   -0.000103   0.000145  -0.003258  -0.000068  -0.000099
   48  N  8  S   -0.002349   0.003913  -0.066196  -0.000504   0.013002
   49  N  8  X   -0.001774   0.000240   0.006529  -0.001719  -0.006923
   50  N  8  Y    0.001895  -0.003219   0.005769  -0.000641  -0.003460
   51  N  8  Z    0.000885  -0.001009   0.007894   0.000309  -0.000301
   52  H  9  S    0.000549  -0.001137  -0.001260  -0.001728   0.000371
   53  H  9  S    0.001633  -0.001553   0.000344   0.002060   0.017171
   54  H 10  S    0.000256  -0.000149  -0.001592  -0.001753   0.000559
   55  H 10  S   -0.001250  -0.000395  -0.000941   0.003345   0.016450

                      6          7          8          9         10
                   -1.1185    -1.0288    -0.8836    -0.7219    -0.5970
                     A          A          A          A          A   
    1  C  1  S   -0.018723  -0.007573  -0.118026  -0.134881  -0.101548
    2  C  1  S    0.017881   0.007877   0.119345   0.132456   0.094716
    3  C  1  X   -0.016567   0.002506   0.057743  -0.125184   0.051691
    4  C  1  Y    0.012690   0.013436   0.053507  -0.007322  -0.049283
    5  C  1  Z   -0.000789  -0.002290   0.000036  -0.002533  -0.003951
    6  C  1  S    0.010199  -0.002934   0.255373   0.400594   0.368411
    7  C  1  X    0.006699   0.040311  -0.018697  -0.041478   0.009094
    8  C  1  Y   -0.007765   0.022445  -0.005694  -0.004852  -0.011806
    9  C  1  Z   -0.001336  -0.011895  -0.000531  -0.013714  -0.018723
   10  H  2  S    0.001238   0.006668   0.096639  -0.085305  -0.057323
   11  H  2  S   -0.002444  -0.000511   0.014795  -0.039078  -0.035158
   12  H  3  S    0.004752   0.005152   0.096441  -0.070676  -0.066632
   13  H  3  S   -0.001298   0.006456   0.006864  -0.034552  -0.032779
   14  O  4  S   -0.120491  -0.172480   0.030491   0.038376  -0.026644
   15  O  4  S    0.112008   0.163383  -0.029313  -0.040019   0.025987
   16  O  4  X   -0.006873   0.009035   0.012942   0.023267   0.034395
   17  O  4  Y   -0.095403  -0.117751   0.014897  -0.006089   0.022290
   18  O  4  Z    0.022835   0.026814  -0.004236  -0.003052  -0.011268
   19  O  4  S    0.365384   0.546403  -0.105437  -0.120920   0.101867
   20  O  4  X   -0.019516   0.010932   0.012568   0.015100   0.030298
   21  O  4  Y   -0.092680  -0.111511   0.016203  -0.008407   0.017872
   22  O  4  Z    0.023285   0.025003  -0.004257  -0.000154  -0.010467
   23  O  5  S   -0.165984   0.150178   0.006187   0.031710  -0.019760
   24  O  5  S    0.152950  -0.141191  -0.006585  -0.029752   0.020399
   25  O  5  X    0.026916  -0.002398   0.014791   0.150097  -0.334171
   26  O  5  Y    0.085991  -0.060128  -0.010991  -0.041965   0.006075
   27  O  5  Z   -0.024424   0.016097   0.001498  -0.002794   0.018843
   28  O  5  S    0.506675  -0.491877  -0.015444  -0.125616   0.071328
   29  O  5  X    0.032719  -0.023836   0.009892   0.110527  -0.284793
   30  O  5  Y    0.105060  -0.057452  -0.008121  -0.034785  -0.002611
   31  O  5  Z   -0.029323   0.017641   0.001597  -0.000239   0.017595
   32  C  6  S   -0.127730  -0.050083  -0.015131  -0.093421   0.080190
   33  C  6  S    0.143879   0.053879   0.019702   0.113364  -0.094973
   34  C  6  X   -0.071516   0.070764   0.052444   0.086041   0.153793
   35  C  6  Y    0.051159   0.186761  -0.054233  -0.147347   0.096844
   36  C  6  Z   -0.008008  -0.050661   0.009287   0.018974  -0.042010
   37  C  6  S    0.119712   0.059924   0.019680   0.196752  -0.246921
   38  C  6  X    0.038235  -0.005993   0.014128   0.031896   0.021963
   39  C  6  Y   -0.035421  -0.058631   0.010692  -0.077294   0.060075
   40  C  6  Z    0.003476   0.012910  -0.002975   0.009283  -0.016719
   41  H  7  S    0.072458  -0.077935  -0.011716  -0.096326   0.184854
   42  H  7  S    0.015134  -0.012568  -0.006408  -0.055114   0.128740
   43  N  8  S   -0.006106  -0.009546  -0.190484   0.095318   0.041658
   44  N  8  S    0.006002   0.010808   0.172965  -0.084403  -0.036453
   45  N  8  X   -0.005534  -0.004074  -0.031622  -0.073126  -0.092865
   46  N  8  Y   -0.000544  -0.001501  -0.034961  -0.021472  -0.070626
   47  N  8  Z   -0.002114  -0.004445  -0.074499   0.051153   0.036546
   48  N  8  S    0.014602   0.005408   0.557070  -0.332607  -0.168904
   49  N  8  X    0.000502  -0.005556  -0.027118  -0.022575  -0.059141
   50  N  8  Y   -0.000116   0.010960  -0.034841   0.001416  -0.042486
   51  N  8  Z   -0.002206   0.001027  -0.077761   0.051371   0.037512
   52  H  9  S    0.005836   0.004283   0.041084   0.082848   0.077969
   53  H  9  S   -0.004518   0.001973  -0.012399   0.004402   0.029390
   54  H 10  S    0.005196   0.003285   0.044000   0.079740   0.081946
   55  H 10  S   -0.005561  -0.004922  -0.008151  -0.003642   0.024160

                     11         12         13         14         15
                   -0.5197    -0.4812    -0.4644    -0.4333    -0.4180
                     A          A          A          A          A   
    1  C  1  S    0.029443  -0.004183   0.006417   0.027177  -0.014032
    2  C  1  S   -0.022852   0.006296  -0.003640  -0.016645   0.002836
    3  C  1  X   -0.111991   0.074935  -0.068239  -0.180258  -0.142617
    4  C  1  Y    0.216717   0.085615  -0.059707  -0.019686  -0.205187
    5  C  1  Z   -0.039037   0.260106   0.040965   0.035669  -0.036788
    6  C  1  S   -0.154004   0.013660  -0.052979  -0.189144   0.141209
    7  C  1  X   -0.053836   0.039690  -0.087287  -0.041412  -0.119756
    8  C  1  Y    0.139666   0.047112  -0.066532  -0.045974  -0.108474
    9  C  1  Z   -0.033481   0.172800   0.026644   0.032108  -0.031288
   10  H  2  S   -0.122556  -0.054066  -0.001671   0.209557  -0.021284
   11  H  2  S   -0.092176  -0.046156   0.002743   0.191823  -0.012174
   12  H  3  S    0.133951  -0.040841   0.057273  -0.084625   0.166688
   13  H  3  S    0.091332  -0.038427   0.095639  -0.068675   0.142577
   14  O  4  S    0.038303   0.005687  -0.110337   0.034036   0.011789
   15  O  4  S   -0.036412  -0.004817   0.094357  -0.034053  -0.008681
   16  O  4  X    0.123132   0.002689   0.067183   0.124804  -0.057004
   17  O  4  Y   -0.048987   0.020427   0.279106  -0.125857   0.009909
   18  O  4  Z    0.002050   0.151217  -0.048968   0.066393   0.129692
   19  O  4  S   -0.149958  -0.025032   0.472498  -0.102783  -0.066638
   20  O  4  X    0.102704   0.002889   0.065363   0.100593  -0.050378
   21  O  4  Y   -0.038983   0.017384   0.241271  -0.128669   0.014561
   22  O  4  Z    0.002639   0.132588  -0.044034   0.065809   0.119798
   23  O  5  S   -0.011223   0.000854  -0.063858  -0.015184   0.043207
   24  O  5  S    0.006722  -0.001457   0.059675   0.013458  -0.038279
   25  O  5  X   -0.111573   0.027368   0.042339  -0.106387  -0.038693
   26  O  5  Y   -0.038436   0.049876  -0.221365  -0.104944   0.179397
   27  O  5  Z    0.014747   0.153738   0.078016   0.091029   0.113089
   28  O  5  S    0.056359   0.000089   0.271905   0.049514  -0.190693
   29  O  5  X   -0.096944   0.027693   0.047676  -0.116510  -0.030628
   30  O  5  Y   -0.026785   0.050543  -0.227247  -0.095417   0.174336
   31  O  5  Z    0.011373   0.149234   0.077880   0.092235   0.118383
   32  C  6  S   -0.040543  -0.003557   0.078599  -0.049821  -0.002330
   33  C  6  S    0.048737   0.008044  -0.113502   0.056308   0.009958
   34  C  6  X    0.217088   0.001236   0.074235   0.206617  -0.050058
   35  C  6  Y   -0.011613   0.065629  -0.161957   0.060439   0.042308
   36  C  6  Z   -0.017319   0.226859   0.068306   0.027481   0.132815
   37  C  6  S    0.131424   0.001510  -0.182264   0.196107  -0.047384
   38  C  6  X    0.166901   0.006497   0.071466   0.192591  -0.081004
   39  C  6  Y   -0.033211   0.056108  -0.045373  -0.110475   0.095345
   40  C  6  Z   -0.008765   0.194434   0.041276   0.061268   0.125547
   41  H  7  S    0.049661  -0.006404  -0.075086   0.021389   0.069398
   42  H  7  S    0.044606  -0.006871  -0.029007   0.032837   0.049593
   43  N  8  S   -0.001372  -0.015369  -0.001223   0.007103   0.014568
   44  N  8  S    0.000925   0.015138  -0.001686  -0.004839  -0.011477
   45  N  8  X   -0.121430  -0.122601   0.045543   0.292655   0.108300
   46  N  8  Y    0.204101  -0.049644   0.089061  -0.094889   0.245146
   47  N  8  Z   -0.042498   0.092000  -0.013910   0.023261  -0.083631
   48  N  8  S    0.012109   0.053752   0.018636  -0.036371  -0.066425
   49  N  8  X   -0.095114  -0.095766   0.014315   0.234425   0.106112
   50  N  8  Y    0.158131  -0.033758   0.049279  -0.065283   0.210328
   51  N  8  Z   -0.033476   0.076543  -0.008093   0.021937  -0.070127
   52  H  9  S   -0.106594   0.085488   0.041534   0.017348   0.088049
   53  H  9  S   -0.059368   0.063610   0.051930   0.018899   0.066252
   54  H 10  S   -0.068362  -0.156933  -0.007410  -0.032436   0.108655
   55  H 10  S   -0.051070  -0.135195  -0.001248  -0.027826   0.092393

                     16         17         18         19         20
                   -0.3941    -0.3686    -0.3065    -0.2707    -0.2093
                     A          A          A          A          A   
    1  C  1  S    0.000798  -0.008845  -0.000187   0.022436   0.015440
    2  C  1  S   -0.003448   0.005347  -0.001119  -0.011801  -0.020136
    3  C  1  X   -0.110043  -0.126697   0.001815   0.120263  -0.023548
    4  C  1  Y   -0.073084   0.154009   0.000726  -0.124508  -0.040445
    5  C  1  Z    0.268049  -0.023011   0.022076   0.019856  -0.102472
    6  C  1  S    0.030249   0.110017   0.005454  -0.213748  -0.044392
    7  C  1  X   -0.085062  -0.104814   0.011411   0.153154  -0.016576
    8  C  1  Y   -0.046499   0.121784   0.031614  -0.157570  -0.021394
    9  C  1  Z    0.261601  -0.000571  -0.004047   0.004756   0.008501
   10  H  2  S   -0.008935   0.081794  -0.006375  -0.005476  -0.047666
   11  H  2  S   -0.008221   0.080947  -0.015494  -0.010264  -0.048541
   12  H  3  S    0.065645  -0.074960   0.006172   0.007743  -0.048384
   13  H  3  S    0.064023  -0.060041   0.009320   0.099761  -0.046443
   14  O  4  S    0.005024  -0.039939   0.000981  -0.000580   0.000039
   15  O  4  S   -0.003679   0.037821  -0.001567   0.003472   0.002746
   16  O  4  X   -0.033030   0.007591  -0.026128   0.467967   0.029731
   17  O  4  Y   -0.044598   0.269368  -0.084212  -0.009074   0.000493
   18  O  4  Z   -0.151216  -0.054672  -0.344244  -0.037077   0.012500
   19  O  4  S   -0.031526   0.114670  -0.000947  -0.015636  -0.017445
   20  O  4  X   -0.033901  -0.006384  -0.027528   0.494945   0.032682
   21  O  4  Y   -0.038581   0.281807  -0.094472  -0.005236   0.010101
   22  O  4  Z   -0.142583  -0.056989  -0.383537  -0.041787   0.020963
   23  O  5  S    0.026204   0.063893  -0.000798  -0.012479  -0.003921
   24  O  5  S   -0.023652  -0.057209   0.001367  -0.003027   0.001675
   25  O  5  X   -0.061025  -0.036024   0.027444   0.103243   0.010248
   26  O  5  Y    0.020152   0.285538   0.095183   0.178084   0.012234
   27  O  5  Z   -0.222991  -0.046967   0.381535  -0.058877   0.035006
   28  O  5  S   -0.116581  -0.274969   0.000263   0.165562   0.034519
   29  O  5  X   -0.055535  -0.011735   0.031063   0.146186   0.016016
   30  O  5  Y    0.015760   0.292594   0.110293   0.228477   0.015998
   31  O  5  Z   -0.231421  -0.047626   0.448130  -0.075865   0.038567
   32  C  6  S   -0.007870  -0.019846   0.000735   0.012736   0.004884
   33  C  6  S    0.009551   0.016709  -0.000750  -0.016631  -0.010608
   34  C  6  X   -0.009784   0.080770  -0.010279  -0.056893  -0.020157
   35  C  6  Y   -0.045582  -0.251187  -0.022641   0.037117   0.008038
   36  C  6  Z   -0.143202   0.065128  -0.102234  -0.001630  -0.020117
   37  C  6  S    0.015402   0.097983  -0.008776  -0.014616  -0.008523
   38  C  6  X   -0.021777   0.027148  -0.017909   0.170078   0.012972
   39  C  6  Y   -0.019131   0.037203  -0.020558   0.046664   0.029784
   40  C  6  Z   -0.173120  -0.001499  -0.078636  -0.023799  -0.026477
   41  H  7  S    0.049149   0.121656  -0.000862  -0.001924  -0.005718
   42  H  7  S    0.044593   0.105940  -0.003143  -0.073347  -0.012819
   43  N  8  S   -0.016680   0.003086  -0.000398   0.013574  -0.070201
   44  N  8  S    0.017911   0.002157   0.003746  -0.012181   0.063395
   45  N  8  X    0.052728   0.071526  -0.007213  -0.004458   0.028158
   46  N  8  Y    0.119713  -0.089498   0.002527  -0.017717   0.106722
   47  N  8  Z    0.073566   0.023078  -0.000528  -0.012566   0.441762
   48  N  8  S    0.053213  -0.033079  -0.012739  -0.071790   0.307413
   49  N  8  X    0.059602   0.079877   0.013388  -0.039337   0.042541
   50  N  8  Y    0.106957  -0.082303  -0.003912  -0.029331   0.136497
   51  N  8  Z    0.062735   0.024300  -0.002612  -0.003462   0.542577
   52  H  9  S    0.180215  -0.077619   0.017969   0.051392  -0.094637
   53  H  9  S    0.132173  -0.115001   0.063748   0.070936  -0.143983
   54  H 10  S   -0.130389  -0.043342  -0.019390   0.020861   0.127543
   55  H 10  S   -0.110174  -0.056638  -0.046014   0.031527   0.230146

                     21         22         23         24         25
                    0.0181     0.0973     0.1195     0.1588     0.1911
                     A          A          A          A          A   
    1  C  1  S    0.001363   0.046309  -0.059833  -0.117984  -0.023442
    2  C  1  S   -0.002038  -0.027507   0.023563   0.065426   0.002389
    3  C  1  X    0.017161   0.053053  -0.094204   0.084069   0.085553
    4  C  1  Y    0.006051  -0.060276  -0.162603  -0.168548   0.064580
    5  C  1  Z    0.004658  -0.000128  -0.061986  -0.005914  -0.382837
    6  C  1  S   -0.027301  -0.500634   0.858825   1.456187   0.271015
    7  C  1  X    0.080974   0.003534  -0.310786   0.222570   0.295038
    8  C  1  Y    0.042920  -0.236238  -0.467232  -0.683568   0.264990
    9  C  1  Z    0.192003   0.018167  -0.138270   0.006605  -1.186640
   10  H  2  S    0.015423  -0.029524  -0.068275   0.001084  -0.011192
   11  H  2  S    0.094021  -0.165010  -0.933245   0.233986   0.023724
   12  H  3  S   -0.001790   0.003497  -0.047593   0.096439  -0.031542
   13  H  3  S   -0.000560   0.036321  -0.525119   0.791558  -0.136031
   14  O  4  S    0.001143   0.007455  -0.026828   0.007426   0.007772
   15  O  4  S   -0.001928  -0.016162   0.022092  -0.010520  -0.006385
   16  O  4  X   -0.031086   0.090822   0.058883  -0.037694  -0.038319
   17  O  4  Y   -0.073180  -0.012987  -0.055776  -0.017258   0.009723
   18  O  4  Z   -0.321815  -0.008733  -0.034758   0.004722  -0.052057
   19  O  4  S   -0.002558  -0.001323   0.213081  -0.040671  -0.063335
   20  O  4  X   -0.041889   0.080534   0.063616  -0.053639  -0.062855
   21  O  4  Y   -0.100594  -0.016718  -0.130418  -0.012014   0.013190
   22  O  4  Z   -0.442578  -0.009191  -0.037247   0.004246  -0.101177
   23  O  5  S   -0.000277   0.097756  -0.006725   0.001475  -0.010137
   24  O  5  S    0.001102  -0.066522   0.001855   0.001629   0.007660
   25  O  5  X   -0.015166   0.174324  -0.031176   0.015261   0.087275
   26  O  5  Y   -0.053309  -0.183519   0.024447  -0.040339  -0.011446
   27  O  5  Z   -0.199074   0.035757  -0.029027   0.013557  -0.079185
   28  O  5  S   -0.004738  -0.810647   0.081965  -0.019848   0.071577
   29  O  5  X   -0.024603   0.356196  -0.040490   0.028626   0.171040
   30  O  5  Y   -0.070782  -0.327194   0.054764  -0.031519  -0.010678
   31  O  5  Z   -0.266472   0.057248  -0.047884   0.010956  -0.101029
   32  C  6  S   -0.003323  -0.028215   0.014596  -0.012758   0.014399
   33  C  6  S    0.000406   0.008975   0.023575   0.030098  -0.004571
   34  C  6  X    0.042174  -0.054510  -0.005806   0.009912   0.076190
   35  C  6  Y    0.108269  -0.071731  -0.000275  -0.043006   0.062682
   36  C  6  Z    0.464951   0.030975   0.071233   0.003716   0.082228
   37  C  6  S    0.046588   0.233757  -0.324550   0.122539  -0.148688
   38  C  6  X    0.050447   0.147231  -0.019280   0.102831   0.105830
   39  C  6  Y    0.105726  -0.138268  -0.038851   0.000534   0.173626
   40  C  6  Z    0.523755   0.032793   0.134995  -0.002079   0.239654
   41  H  7  S   -0.001811   0.159739   0.006082  -0.000636   0.008515
   42  H  7  S   -0.001386   1.250277  -0.114290   0.105751   0.171322
   43  N  8  S    0.018900  -0.030058  -0.119854   0.086510   0.019688
   44  N  8  S   -0.009008   0.008961   0.055451  -0.039865  -0.007825
   45  N  8  X    0.013538  -0.031707   0.100398   0.019493   0.085274
   46  N  8  Y    0.022610  -0.047338  -0.024169  -0.041881   0.085819
   47  N  8  Z   -0.001622  -0.012353  -0.104141   0.116581   0.074684
   48  N  8  S   -0.164915   0.309301   1.182190  -0.844864  -0.213450
   49  N  8  X    0.026598  -0.097552   0.231357   0.043980   0.202575
   50  N  8  Y    0.068722  -0.135591  -0.052151  -0.083655   0.195339
   51  N  8  Z   -0.024146  -0.033576  -0.241951   0.264935   0.227441
   52  H  9  S   -0.072928  -0.032769  -0.023891  -0.071841   0.069691
   53  H  9  S   -0.247388   0.009359  -0.569840  -1.123166   1.301494
   54  H 10  S    0.101356  -0.008182  -0.007954  -0.047138  -0.043211
   55  H 10  S    0.387861   0.092239  -0.742685  -1.040768  -1.205570

                     26         27         28         29         30
                    0.1984     0.2501     0.2707     0.3374     0.4308
                     A          A          A          A          A   
    1  C  1  S   -0.064486   0.030611  -0.092540  -0.110544   0.027752
    2  C  1  S    0.035803  -0.003185   0.055221   0.046229  -0.062571
    3  C  1  X   -0.114632   0.264695   0.133125   0.016499  -0.103076
    4  C  1  Y    0.000662  -0.130835   0.188497   0.116923  -0.182131
    5  C  1  Z    0.006137   0.045932   0.173648   0.007836   0.045154
    6  C  1  S    0.784791  -0.413166   1.009602   1.665370   0.166584
    7  C  1  X   -0.511994   1.222485   0.465910  -0.480160  -0.941139
    8  C  1  Y   -0.180848  -0.517333   0.722379   1.009325  -0.615044
    9  C  1  Z    0.007860   0.238227   0.567902   0.007270   0.068166
   10  H  2  S    0.099822  -0.031213  -0.010861   0.032977   0.128801
   11  H  2  S    1.125409   0.166454  -0.513234  -0.035680  -0.005504
   12  H  3  S   -0.082533  -0.012559  -0.022503  -0.069252  -0.051082
   13  H  3  S   -0.871005  -0.890117  -0.189652  -0.072302  -0.063663
   14  O  4  S   -0.032737   0.031884  -0.012316   0.050135   0.121999
   15  O  4  S    0.029787  -0.018077   0.012603  -0.029930  -0.056463
   16  O  4  X    0.054539   0.010409  -0.045715   0.202307  -0.067760
   17  O  4  Y   -0.079297   0.147310  -0.028969   0.098650   0.163988
   18  O  4  Z    0.011017  -0.016270   0.050843  -0.030818  -0.047742
   19  O  4  S    0.241979  -0.331602   0.107487  -0.540688  -1.589887
   20  O  4  X    0.062370  -0.054604  -0.091814   0.407990  -0.111826
   21  O  4  Y   -0.173574   0.288184  -0.071990   0.265545   0.676818
   22  O  4  Z    0.037019  -0.025352   0.087525  -0.089759  -0.169129
   23  O  5  S   -0.016836   0.025342  -0.049701   0.050191  -0.055306
   24  O  5  S    0.007843  -0.017348   0.047466  -0.033764   0.023507
   25  O  5  X    0.123421  -0.114618   0.259332  -0.137474   0.118809
   26  O  5  Y    0.027272  -0.066736   0.037672  -0.171455  -0.022089
   27  O  5  Z   -0.002917   0.043856  -0.003450   0.047371   0.001459
   28  O  5  S    0.174308  -0.226934   0.351478  -0.508983   0.666603
   29  O  5  X    0.274753  -0.263760   0.482861  -0.308843   0.424520
   30  O  5  Y    0.060414  -0.081022   0.104551  -0.361941  -0.026310
   31  O  5  Z   -0.028949   0.065590  -0.017874   0.111526  -0.031561
   32  C  6  S    0.086786  -0.143038   0.088767  -0.008486  -0.014472
   33  C  6  S   -0.041150   0.079742  -0.044490  -0.017082  -0.084077
   34  C  6  X   -0.049399   0.069854   0.183697  -0.501012   0.222247
   35  C  6  Y    0.057850  -0.132029   0.109131   0.127217   0.313846
   36  C  6  Z   -0.047596  -0.040127  -0.096214   0.007179  -0.061049
   37  C  6  S   -0.994766   1.828835  -0.966219  -0.159072   0.514949
   38  C  6  X   -0.004847   0.474767   0.166158  -1.528184   0.356985
   39  C  6  Y    0.183406  -0.307946   0.189863   0.679556   2.011956
   40  C  6  Z   -0.023423  -0.073904  -0.248979  -0.057719  -0.468413
   41  H  7  S    0.032628  -0.039608   0.014849  -0.104097  -0.073943
   42  H  7  S    0.231972  -0.056184   0.361268  -0.190578   0.086490
   43  N  8  S    0.001048  -0.000506   0.050160   0.031543  -0.038542
   44  N  8  S   -0.006212   0.006449  -0.022353  -0.009366   0.000396
   45  N  8  X   -0.195872   0.035393   0.283097   0.095768  -0.016971
   46  N  8  Y    0.217605   0.244934   0.108396   0.062964  -0.086823
   47  N  8  Z   -0.035305  -0.075960  -0.037805  -0.005613  -0.025909
   48  N  8  S    0.033240  -0.009581  -0.487936  -0.382510   0.646336
   49  N  8  X   -0.555495   0.091726   0.825329   0.392631  -0.388252
   50  N  8  Y    0.544623   0.690159   0.327127   0.158552  -0.224794
   51  N  8  Z   -0.107681  -0.177428  -0.127926  -0.001347  -0.067355
   52  H  9  S   -0.002210  -0.005527   0.049970   0.058549   0.074321
   53  H  9  S   -0.434150  -0.309145  -0.400688  -0.035864  -0.330386
   54  H 10  S    0.005045  -0.033019   0.043490   0.042934  -0.005694
   55  H 10  S   -0.362070  -0.018646   0.557773  -0.047331  -0.098531

                     31         32         33         34         35
                    0.6992     0.7247     0.7571     0.7785     0.8234
                     A          A          A          A          A   
    1  C  1  S    0.005721   0.004898   0.017124   0.031684   0.000912
    2  C  1  S   -0.015597   0.014908  -0.001404  -0.154070  -0.047971
    3  C  1  X   -0.147465  -0.905592   0.441985  -0.181618  -0.118384
    4  C  1  Y   -0.000309   0.167527   0.054566  -0.942721   0.198966
    5  C  1  Z   -0.186808   0.032454   0.087185  -0.021662   0.098709
    6  C  1  S   -0.071975  -0.610060  -0.429892   0.215500   1.038372
    7  C  1  X    0.201373   1.422648  -0.734899   0.500364  -0.377700
    8  C  1  Y   -0.073032  -0.604898  -0.611030   2.021775  -0.004208
    9  C  1  Z    0.224854  -0.009851  -0.143353   0.031851  -0.237807
   10  H  2  S    0.079022  -0.029464   0.368196   0.041439  -0.149091
   11  H  2  S   -0.090231  -0.157987  -0.139334  -0.110491   0.093032
   12  H  3  S    0.045439   0.057671  -0.255870  -0.068602  -0.055699
   13  H  3  S    0.023482  -0.163084   0.094487  -0.050104   0.005396
   14  O  4  S    0.004913  -0.005235  -0.011762  -0.030618  -0.014993
   15  O  4  S   -0.004607   0.012257   0.015411   0.001560   0.034355
   16  O  4  X   -0.002605   0.005014  -0.138784  -0.054857   0.143183
   17  O  4  Y   -0.001050  -0.017914  -0.131121  -0.011175  -0.280181
   18  O  4  Z   -0.063332   0.010060   0.018365   0.038499   0.033004
   19  O  4  S   -0.031732  -0.002442  -0.171985   0.487169  -0.404649
   20  O  4  X   -0.023537  -0.175516  -0.200934   0.078600   0.160337
   21  O  4  Y    0.007935  -0.005825  -0.151708  -0.256358  -0.162950
   22  O  4  Z   -0.135803   0.035006   0.026746   0.074123  -0.004471
   23  O  5  S   -0.002421  -0.017607  -0.005380   0.003855  -0.015271
   24  O  5  S    0.005583   0.019930  -0.046934   0.021278   0.037806
   25  O  5  X    0.012312   0.025799  -0.126808   0.031862  -0.056666
   26  O  5  Y   -0.022860  -0.086039  -0.058101  -0.040908  -0.005053
   27  O  5  Z   -0.082376   0.027512   0.021165  -0.007904  -0.019360
   28  O  5  S    0.002587   0.276420   0.654372  -0.214140  -0.017080
   29  O  5  X   -0.014894   0.014285   0.230231  -0.098567   0.022959
   30  O  5  Y   -0.019081   0.110983   0.083064  -0.015784  -0.148634
   31  O  5  Z   -0.123260  -0.011491  -0.061885   0.037665   0.009918
   32  C  6  S    0.001001   0.005211  -0.003069   0.003236   0.057582
   33  C  6  S   -0.010369   0.084060   0.103717   0.022640  -0.268531
   34  C  6  X   -0.101540  -0.508200  -0.587461   0.059512   0.503422
   35  C  6  Y   -0.153425  -0.084902  -0.587934  -0.234069  -0.863603
   36  C  6  Z   -0.933779   0.172282   0.089852   0.076787   0.067805
   37  C  6  S    0.158771   0.646070  -0.426130  -0.711339  -0.306062
   38  C  6  X    0.180617   1.233264   1.369680  -0.611936  -1.221036
   39  C  6  Y    0.189480  -0.198856   0.821904  -0.493088   1.331800
   40  C  6  Z    0.980297  -0.197261  -0.108396   0.018713   0.004217
   41  H  7  S   -0.025307  -0.211709   0.115456  -0.031983  -0.246437
   42  H  7  S    0.037036   0.385156   0.169360  -0.016085  -0.109994
   43  N  8  S    0.008947  -0.010998   0.004283  -0.000991  -0.015417
   44  N  8  S   -0.009311   0.031179  -0.059244   0.074622   0.033640
   45  N  8  X    0.032534   0.039703   0.144850  -0.186577  -0.039302
   46  N  8  Y   -0.068555  -0.041515   0.002112  -0.051859  -0.001491
   47  N  8  Z   -0.105943  -0.022159   0.028560  -0.043638   0.020173
   48  N  8  S   -0.081978  -0.158315   0.481140  -0.695181   0.045486
   49  N  8  X   -0.021727  -0.026714  -0.346756   0.453819   0.048256
   50  N  8  Y    0.027160   0.136352   0.001827   0.072458   0.018219
   51  N  8  Z    0.017632   0.013635  -0.042948   0.044003  -0.003789
   52  H  9  S   -0.205472   0.029627   0.173091   0.287273   0.044983
   53  H  9  S    0.022007  -0.080600  -0.162706   0.416687  -0.000785
   54  H 10  S    0.257957  -0.090611   0.036372   0.263149  -0.090160
   55  H 10  S   -0.010043  -0.047243  -0.119031   0.351842  -0.041370

                     36         37         38         39         40
                    0.8620     0.9697     0.9699     1.0018     1.0177
                     A          A          A          A          A   
    1  C  1  S    0.003536  -0.037895  -0.040559  -0.038588  -0.026376
    2  C  1  S    0.026911   0.003160   0.120026   0.084897   0.119234
    3  C  1  X    0.054285  -0.112858   0.103543  -0.024087  -0.089324
    4  C  1  Y    0.111618  -0.165032  -0.316432  -0.256785  -0.135790
    5  C  1  Z   -0.653323  -0.314282  -0.302590   0.709035  -0.219897
    6  C  1  S    0.068123   0.327469  -0.628556  -0.184392  -0.273978
    7  C  1  X   -0.097598  -0.129487  -0.053559  -0.144371   0.153397
    8  C  1  Y   -0.149035   0.148950   0.016196   0.302056   0.292442
    9  C  1  Z    1.581347   0.639472   0.534526  -1.163721   0.150355
   10  H  2  S    0.294698  -0.338720   0.014452   0.145137   0.620356
   11  H  2  S   -0.083335   0.189586  -0.024656  -0.010035  -0.446101
   12  H  3  S    0.421156  -0.320793  -0.294488   0.400331   0.632539
   13  H  3  S   -0.206860   0.145678   0.182729  -0.262464  -0.411152
   14  O  4  S    0.001670   0.015114  -0.005478   0.003605  -0.009180
   15  O  4  S    0.016328  -0.014527  -0.002482  -0.007394   0.028189
   16  O  4  X    0.054609  -0.030237  -0.062966  -0.007131   0.060059
   17  O  4  Y   -0.051085  -0.088847  -0.074395  -0.035926  -0.030803
   18  O  4  Z    0.093785   0.033430   0.022147   0.046496  -0.036031
   19  O  4  S   -0.247985  -0.395962   0.080288  -0.145099  -0.002054
   20  O  4  X   -0.032554   0.068770  -0.031869   0.009122   0.026618
   21  O  4  Y    0.047885   0.101719  -0.015132   0.007312  -0.016692
   22  O  4  Z    0.099245  -0.013521   0.020604  -0.033592  -0.003838
   23  O  5  S   -0.011434   0.023212  -0.017412   0.004833   0.010003
   24  O  5  S    0.010985  -0.038873   0.031376  -0.011853  -0.007755
   25  O  5  X   -0.009261   0.104090  -0.118048  -0.014907   0.050659
   26  O  5  Y    0.008651  -0.220570   0.324903   0.012894  -0.080276
   27  O  5  Z    0.098904   0.079153  -0.042738  -0.047567  -0.008628
   28  O  5  S    0.188108   0.054389  -0.044519   0.019095  -0.123810
   29  O  5  X    0.071795   0.149772  -0.095157   0.043446  -0.042782
   30  O  5  Y    0.028742  -0.125479   0.000102  -0.060254  -0.040311
   31  O  5  Z    0.057144   0.017862  -0.002575   0.034158   0.004423
   32  C  6  S    0.006085   0.022097   0.037854   0.018301   0.009489
   33  C  6  S   -0.021905  -0.337495  -0.386530  -0.250946  -0.176794
   34  C  6  X    0.030967  -0.044034  -0.119544  -0.059730   0.058556
   35  C  6  Y   -0.140220  -0.119546   0.053277  -0.074727  -0.059328
   36  C  6  Z    0.354200   0.051138   0.001621   0.087521  -0.091247
   37  C  6  S    0.037311   0.319975   0.298194   0.106716   0.235607
   38  C  6  X    0.117413  -0.377075   0.440280  -0.069952  -0.301631
   39  C  6  Y    0.345337   0.624843  -0.274108   0.273509  -0.016143
   40  C  6  Z   -0.917310  -0.249542  -0.051884  -0.006482   0.190510
   41  H  7  S   -0.069820   0.948110  -0.766835   0.119669   0.235464
   42  H  7  S    0.054462  -0.826161   0.653240  -0.117459  -0.267829
   43  N  8  S    0.036991  -0.017739  -0.003732   0.024828   0.039512
   44  N  8  S   -0.037917   0.001870  -0.046322  -0.062470  -0.079580
   45  N  8  X   -0.002807   0.104460   0.159661   0.166499   0.075718
   46  N  8  Y   -0.036866   0.022780   0.100259   0.159122   0.171757
   47  N  8  Z   -0.222369  -0.221109  -0.085765  -0.032532   0.553150
   48  N  8  S   -0.111106  -0.043676   0.096889   0.037808   0.008716
   49  N  8  X   -0.066257   0.055874  -0.168489  -0.213023  -0.221019
   50  N  8  Y   -0.027914   0.042378  -0.025584  -0.283704  -0.240787
   51  N  8  Z    0.008372  -0.013277  -0.067961   0.250477  -0.297490
   52  H  9  S   -0.279222  -0.310085  -0.368868  -0.880736   0.217366
   53  H  9  S   -0.366151  -0.100154   0.034616   1.433196  -0.157210
   54  H 10  S    0.502365  -0.453311  -0.618225   0.239272  -0.533076
   55  H 10  S    0.205274   0.632447   0.771184  -0.776678   0.725514

                     41         42         43         44         45
                    1.0775     1.2525     1.2847     1.3367     1.4077
                     A          A          A          A          A   
    1  C  1  S   -0.003362  -0.026410   0.048675  -0.012326   0.005613
    2  C  1  S    0.030590   0.166784  -0.387556   0.021573  -0.113235
    3  C  1  X    0.226180   0.081493  -0.077096  -0.001696   0.094294
    4  C  1  Y   -0.149221  -0.003517   0.123910   0.002916   0.090594
    5  C  1  Z   -0.060606   0.160614   0.095962   0.047725  -0.048958
    6  C  1  S   -0.099443   0.189116  -0.175472   0.312903   0.200045
    7  C  1  X   -0.877086   0.124028   0.817636   0.875638   0.098491
    8  C  1  Y    0.288410   0.230636  -0.474495  -0.152537  -0.162369
    9  C  1  Z    0.001382  -0.910289  -0.539308   0.250089   0.319188
   10  H  2  S   -0.907151   0.389220   0.169639   0.199455  -0.205106
   11  H  2  S    0.965183  -0.294217   0.247076   0.001704  -0.362683
   12  H  3  S    0.775433   0.409856   0.124460  -0.185226   0.165058
   13  H  3  S   -0.825317  -0.168975  -0.100233  -0.785850  -0.183413
   14  O  4  S    0.002581  -0.010186  -0.011753  -0.011129   0.027709
   15  O  4  S    0.003587   0.035143   0.031495   0.036339  -0.061792
   16  O  4  X    0.026621   0.075001  -0.169767   0.036246  -0.054913
   17  O  4  Y    0.021856  -0.005262  -0.160360   0.053170  -0.172471
   18  O  4  Z   -0.043688  -0.156394  -0.022485   0.063096   0.435493
   19  O  4  S   -0.164360   0.094986   0.061698   0.023122  -0.387815
   20  O  4  X   -0.092692  -0.058505   0.204950  -0.014244  -0.041134
   21  O  4  Y   -0.021780  -0.039763   0.123153  -0.060672   0.323430
   22  O  4  Z    0.014836   0.093999   0.014251  -0.026827  -0.429650
   23  O  5  S   -0.018901  -0.003715   0.046903   0.011274   0.006332
   24  O  5  S    0.017965   0.008781  -0.084345  -0.023535  -0.000757
   25  O  5  X   -0.048388   0.016810   0.077404   0.048765   0.039295
   26  O  5  Y    0.001784  -0.068932   0.249311   0.069195   0.084058
   27  O  5  Z   -0.019356  -0.084839  -0.002793   0.105760  -0.606426
   28  O  5  S    0.366375   0.021874  -0.649958  -0.156065   0.023821
   29  O  5  X    0.172157  -0.004984  -0.404238  -0.128911  -0.040101
   30  O  5  Y    0.064272   0.061448  -0.334708  -0.090193  -0.122506
   31  O  5  Z   -0.030410   0.035428   0.054015  -0.065766   0.614448
   32  C  6  S    0.005537   0.000877   0.009551  -0.000789   0.010371
   33  C  6  S    0.102839   0.126487  -1.072969  -0.340888  -0.461059
   34  C  6  X   -0.216094   0.002728  -0.021958  -0.005418  -0.280312
   35  C  6  Y   -0.119654  -0.015762   0.148633   0.022140   0.030517
   36  C  6  Z   -0.019767  -0.035648  -0.001795   0.052983   0.000129
   37  C  6  S   -0.717815  -0.314729   2.235335   0.843549   1.050987
   38  C  6  X    0.435666  -0.053800  -0.147515   0.072492   0.558083
   39  C  6  Y    0.658697  -0.015414  -1.022589  -0.378119   0.248954
   40  C  6  Z   -0.058063   0.275439   0.280872  -0.076565  -0.169981
   41  H  7  S   -0.104313  -0.011563   0.134022   0.048854   0.092386
   42  H  7  S    0.198544   0.001041  -0.242162  -0.083684   0.006386
   43  N  8  S   -0.010697   0.059798   0.014201   0.015749   0.001087
   44  N  8  S   -0.000849  -0.176241  -0.003741  -0.095834  -0.041314
   45  N  8  X    0.319867  -0.351260   0.424654  -0.148963  -0.552646
   46  N  8  Y   -0.329531  -0.275678  -0.085549  -0.929710   0.091208
   47  N  8  Z    0.052585  -0.691998  -0.249793   0.367654   0.112472
   48  N  8  S    0.247538  -0.093574  -0.243779  -0.020416   0.179940
   49  N  8  X   -0.137713   0.414883  -0.701557   0.277241   0.981667
   50  N  8  Y   -0.160846   0.288064   0.228305   1.695874  -0.196372
   51  N  8  Z   -0.020430   1.051355   0.443862  -0.589653  -0.208853
   52  H  9  S    0.158426   0.158105   0.543722  -0.323974   0.040349
   53  H  9  S   -0.039212   0.271283  -0.483136   0.124013  -0.331317
   54  H 10  S   -0.124150  -0.533267   0.246852   0.015347   0.046716
   55  H 10  S    0.260627   0.142107  -0.727324  -0.098352  -0.002513

                     46         47         48         49         50
                    1.4497     1.5651     1.5980     1.6151     1.6628
                     A          A          A          A          A   
    1  C  1  S    0.000160   0.004649   0.000523   0.001538  -0.001776
    2  C  1  S   -0.056423   0.582971   0.445827  -0.496897   0.386802
    3  C  1  X    0.069684  -0.059328  -0.010967   0.013955   0.004619
    4  C  1  Y    0.016026  -0.095191   0.046334  -0.027679   0.055099
    5  C  1  Z    0.034254   0.008548  -0.085897  -0.043872   0.014635
    6  C  1  S    0.187098  -1.038937  -0.653712   0.663161  -0.528938
    7  C  1  X   -0.047379   0.109803   0.014607   0.275974   0.083879
    8  C  1  Y    0.118672   0.172706  -0.009593  -0.060158   0.078080
    9  C  1  Z    0.013155  -0.029220   0.501688   0.453005  -0.123153
   10  H  2  S   -0.221579   0.100554  -0.058967  -0.007062  -0.010583
   11  H  2  S   -0.389334   0.299517   0.059657  -0.096249   0.063861
   12  H  3  S    0.176759  -0.093254  -0.068711  -0.078397   0.130103
   13  H  3  S   -0.105488  -0.004173   0.007809  -0.113083  -0.220108
   14  O  4  S    0.027478   0.046974  -0.018642   0.009600  -0.001672
   15  O  4  S   -0.068544  -0.141693   0.080895  -0.050537   0.010896
   16  O  4  X   -0.069881   0.038975  -0.360004   0.154975  -0.792453
   17  O  4  Y   -0.341018  -0.742105   0.225210  -0.385822  -0.182363
   18  O  4  Z   -0.319439   0.062967  -0.637736  -0.523328   0.181174
   19  O  4  S   -0.323287  -0.127900  -0.059845   0.064515   0.076961
   20  O  4  X   -0.009006   0.032755   0.464078  -0.259595   0.960724
   21  O  4  Y    0.467080   1.052335  -0.287964   0.476024   0.201884
   22  O  4  Z    0.250751  -0.109566   0.798826   0.674833  -0.226183
   23  O  5  S    0.001802   0.023064   0.025636  -0.031507  -0.009667
   24  O  5  S    0.005927  -0.073216  -0.114686   0.146953   0.055917
   25  O  5  X    0.121123   0.234140   0.396582  -0.507884  -0.124046
   26  O  5  Y    0.330956   0.178432   0.092130  -0.370612  -0.469547
   27  O  5  Z    0.572652  -0.168901  -0.419629  -0.244731   0.187916
   28  O  5  S    0.076857  -0.127346  -0.075183   0.041960  -0.240280
   29  O  5  X   -0.095071  -0.362731  -0.607703   0.735046   0.005484
   30  O  5  Y   -0.374735  -0.295799  -0.156485   0.538831   0.558151
   31  O  5  Z   -0.592905   0.236730   0.576075   0.322512  -0.226438
   32  C  6  S    0.009390   0.003940  -0.020351   0.016333   0.006637
   33  C  6  S   -0.211489   0.720712  -0.085023  -0.211090  -0.116505
   34  C  6  X   -0.236458   0.083209  -0.023230   0.013243   0.138293
   35  C  6  Y   -0.000036   0.100561  -0.192423   0.230851   0.079882
   36  C  6  Z   -0.045306   0.001122   0.121074   0.028798  -0.045542
   37  C  6  S    0.528829   0.249999   0.407628  -0.028127   0.215960
   38  C  6  X    0.395977  -0.398249  -0.370578   0.509998  -0.384557
   39  C  6  Y    0.386375  -0.032307  -0.128216  -0.273532  -0.264926
   40  C  6  Z    0.042180  -0.105228  -0.522299  -0.585517   0.195032
   41  H  7  S    0.072047   0.079156  -0.000762  -0.046897  -0.281783
   42  H  7  S    0.007989  -0.178165  -0.254036   0.316756   0.111003
   43  N  8  S    0.002933  -0.012142  -0.015952   0.008577  -0.006277
   44  N  8  S   -0.071520   0.129407   0.088130  -0.070190   0.069973
   45  N  8  X   -0.527041   0.262337  -0.041058  -0.026521  -0.063733
   46  N  8  Y    0.174523  -0.155546  -0.005698  -0.053360  -0.060144
   47  N  8  Z    0.107988  -0.011964   0.087921   0.110050  -0.000945
   48  N  8  S    0.191080  -0.112315   0.050140  -0.090707   0.040552
   49  N  8  X    0.980720  -0.573623  -0.011701   0.206199   0.028382
   50  N  8  Y   -0.372492   0.260208   0.021640   0.225467   0.092817
   51  N  8  Z   -0.153518   0.022535  -0.223431  -0.244186   0.022381
   52  H  9  S   -0.033807   0.026619  -0.093112  -0.112615   0.016209
   53  H  9  S    0.045281   0.349530   0.058580  -0.286293   0.213914
   54  H 10  S    0.057910   0.041347   0.135926   0.103643  -0.007893
   55  H 10  S   -0.064149   0.258954   0.242667  -0.157325   0.114099

                     51         52         53         54         55
                    1.7775     1.9903     2.5604     3.0935     3.2548
                     A          A          A          A          A   
    1  C  1  S    0.031797  -0.075571   0.087243   0.002222   0.004421
    2  C  1  S    0.022150  -1.738895   0.823137   0.100294   0.043367
    3  C  1  X    0.249555   0.025074  -0.148333   0.000469  -0.005975
    4  C  1  Y   -0.025687   0.018948  -0.065622  -0.004184  -0.001525
    5  C  1  Z    0.035781  -0.021825  -0.025707  -0.019665   0.014871
    6  C  1  S   -1.306166   4.602894  -3.128450  -0.362344  -0.478378
    7  C  1  X    0.135602  -1.038884  -0.242102  -0.110138   0.614639
    8  C  1  Y   -0.560744   0.547441  -0.754136  -0.206296   0.221711
    9  C  1  Z   -0.136103   0.063778   0.082628   0.164104  -0.187432
   10  H  2  S   -0.027961   0.014924  -0.327565  -0.075427   0.100824
   11  H  2  S    0.039509  -0.126440  -0.267091  -0.045718   0.013813
   12  H  3  S   -0.077721   0.055929  -0.319718   0.038553   0.005591
   13  H  3  S    0.234344  -0.336219  -0.249166  -0.025004  -0.030550
   14  O  4  S   -0.024005   0.007065   0.001660   0.004620   0.042616
   15  O  4  S    0.116121  -0.050335  -0.002428  -0.215393  -1.780748
   16  O  4  X    0.334919  -0.268906   0.036992   0.105835  -0.000454
   17  O  4  Y   -0.122050  -0.070360  -0.001566   0.010753   0.224430
   18  O  4  Z    0.018324   0.025577   0.012826  -0.012013  -0.055447
   19  O  4  S    0.185743   0.045571  -0.061187   0.319429   3.155308
   20  O  4  X   -0.569665   0.607871  -0.139051  -0.410788   0.009959
   21  O  4  Y    0.087022   0.045607   0.055572  -0.142999  -1.056090
   22  O  4  Z    0.000854  -0.041469  -0.017683   0.069048   0.257437
   23  O  5  S   -0.020665   0.010640  -0.000725   0.052160  -0.007163
   24  O  5  S    0.062470  -0.152397   0.009826  -1.727505   0.227847
   25  O  5  X    0.670424   0.301540   0.012029  -0.144646   0.097044
   26  O  5  Y   -0.552884   0.006141  -0.053961  -0.197836  -0.075901
   27  O  5  Z    0.096613  -0.047571  -0.004057   0.057998   0.013229
   28  O  5  S    0.029021   0.234682  -0.017761   2.687789  -0.509294
   29  O  5  X   -1.232384  -0.378808  -0.087391   0.505843  -0.376764
   30  O  5  Y    0.937592  -0.082474   0.140132   0.742602   0.279326
   31  O  5  Z   -0.156362   0.079814   0.001777  -0.218931  -0.042194
   32  C  6  S   -0.009170   0.044789  -0.027054   0.037278  -0.005903
   33  C  6  S   -0.490053   0.778660  -0.167525  -0.055073  -0.227186
   34  C  6  X   -0.151770   0.043617   0.062642   0.126683  -0.002501
   35  C  6  Y    0.071614  -0.076970  -0.002402   0.043210  -0.206792
   36  C  6  Z   -0.004420   0.030329   0.008392  -0.027057   0.055288
   37  C  6  S    1.394996  -2.460321   1.118023  -1.007041  -0.737618
   38  C  6  X    1.033680  -1.648850   0.691515   1.219322   0.021752
   39  C  6  Y   -1.052468   0.961441  -0.301896   0.332589  -1.851154
   40  C  6  Z    0.199410  -0.103732  -0.019028  -0.182236   0.435782
   41  H  7  S   -0.503828  -0.106777  -0.045461  -0.341620  -0.104438
   42  H  7  S   -0.191135  -0.287749   0.047514  -0.058488   0.033273
   43  N  8  S   -0.012793   0.038140  -0.009194  -0.003564   0.005493
   44  N  8  S    0.093621  -0.481442  -1.798076   0.023615   0.041331
   45  N  8  X    0.006589   0.078639   0.089587  -0.076086   0.048703
   46  N  8  Y    0.052034  -0.012459   0.100866   0.027457  -0.046824
   47  N  8  Z   -0.003839   0.045934   0.091239   0.007284  -0.019871
   48  N  8  S    0.110421   0.139783   3.228552   0.114527  -0.257927
   49  N  8  X   -0.164578   0.264128  -0.593795   0.154220  -0.089047
   50  N  8  Y   -0.182462   0.222752  -0.481340  -0.143180   0.223383
   51  N  8  Z    0.016523  -0.098325  -0.461537  -0.050873   0.091940
   52  H  9  S    0.006557  -0.335924   0.217957  -0.018367   0.090094
   53  H  9  S    0.060316  -0.549245   0.168905  -0.048606   0.102277
   54  H 10  S    0.075566  -0.331162   0.278934  -0.000533   0.010460
   55  H 10  S   -0.207335  -0.419075   0.221053   0.118739   0.000245
 ...... END OF RHF CALCULATION ......
 CPU     0: STEP CPU TIME=     2.76 TOTAL CPU TIME=          2.8 (      0.0 MIN)
 TOTAL WALL CLOCK TIME=          2.9 SECONDS, CPU UTILIZATION IS    98.25%

     ---------------------------------------------------------------------
     PROPERTIES FOR THE B3LYP    DFT FUNCTIONAL (RHF  TYPE) DENSITY MATRIX
     ---------------------------------------------------------------------

          -----------------
          ENERGY COMPONENTS
          -----------------

         WAVEFUNCTION NORMALIZATION =       1.0000000000

                ONE ELECTRON ENERGY =    -740.7249813712
                TWO ELECTRON ENERGY =     278.7988626010
           NUCLEAR REPULSION ENERGY =     179.2365023061
                                      ------------------
                       TOTAL ENERGY =    -282.6896164641

 ELECTRON-ELECTRON POTENTIAL ENERGY =     278.7988626010
  NUCLEUS-ELECTRON POTENTIAL ENERGY =   -1021.4812148871
   NUCLEUS-NUCLEUS POTENTIAL ENERGY =     179.2365023061
                                      ------------------
             TOTAL POTENTIAL ENERGY =    -563.4458499799
               TOTAL KINETIC ENERGY =     280.7562335159
                 VIRIAL RATIO (V/T) =       2.0068863402

          ---------------------------------------
          MULLIKEN AND LOWDIN POPULATION ANALYSES
          ---------------------------------------

     ATOMIC MULLIKEN POPULATION IN EACH MOLECULAR ORBITAL

                      1          2          3          4          5

                  2.000000   2.000000   2.000000   2.000000   2.000000

    1            -0.000094   0.000048   0.004621   0.006315   1.983046
    2            -0.000000  -0.000000   0.001628   0.000001   0.000061
    3            -0.000000   0.000006   0.001688   0.000013   0.000079
    4            -0.000005   1.991334   0.000000  -0.002572  -0.000009
    5             1.994021   0.000001  -0.000000  -0.000474   0.000005
    6             0.005239   0.008619  -0.000121   1.996512   0.007479
    7             0.000834  -0.000006  -0.000000   0.000054   0.000002
    8            -0.000000  -0.000001   1.992193   0.000014   0.002602
    9             0.000008  -0.000001   0.000007   0.000050   0.003457
   10            -0.000003  -0.000000  -0.000016   0.000089   0.003276

                      6          7          8          9         10

                  2.000000   2.000000   2.000000   2.000000   2.000000

    1             0.003752   0.013260   0.468832   0.692903   0.325733
    2            -0.000080   0.000133   0.086160   0.067961   0.027711
    3            -0.000021   0.001487   0.076322   0.049776   0.034676
    4             0.587943   1.032675   0.028415   0.041099   0.034133
    5             1.004274   0.720774   0.003926   0.214612   0.796043
    6             0.341564   0.176480   0.042015   0.454811   0.267894
    7             0.062163   0.052855   0.001367   0.072859   0.244917
    8             0.001787   0.002532   1.281203   0.320898   0.165357
    9            -0.000594  -0.000077   0.003785   0.047010   0.050683
   10            -0.000789  -0.000119   0.007975   0.038072   0.052853

                     11         12         13         14         15

                  2.000000   2.000000   2.000000   2.000000   2.000000

    1             0.493118   0.581022   0.083480   0.168247   0.370121
    2             0.125154   0.025196   0.000035   0.336834   0.001943
    3             0.146016   0.015620   0.045142   0.048268   0.205584
    4             0.174218   0.177874   0.969678   0.278738   0.149183
    5             0.092278   0.208950   0.561847   0.206898   0.375040
    6             0.342072   0.480931   0.228741   0.315938   0.165635
    7             0.016860   0.000326   0.029887   0.004275   0.028468
    8             0.463033   0.205891   0.058075   0.628234   0.538910
    9             0.099868   0.065260   0.022922   0.003271   0.063941
   10             0.047385   0.238929   0.000193   0.009297   0.101175

                     16         17         18         19         20

                  2.000000   2.000000   2.000000   2.000000   2.000000

    1             0.642764   0.221416   0.001644   0.189610   0.036194
    2             0.000436   0.046790   0.000404   0.000091   0.011098
    3             0.032311   0.035164   0.000229   0.017696   0.011454
    4             0.185202   0.515273   0.888668   1.418959   0.006878
    5             0.391895   0.680334   1.041706   0.256281   0.008089
    6             0.166357   0.238850   0.055004   0.064093   0.004713
    7             0.015343   0.083365   0.000009   0.018633   0.000485
    8             0.178493   0.091017   0.000075   0.008838   1.724834
    9             0.250700   0.067594   0.006708   0.021318   0.059366
   10             0.136500   0.020195   0.005552   0.004483   0.136888

               ----- POPULATIONS IN EACH AO -----
                             MULLIKEN      LOWDIN
              1  C  1  S      1.98710     1.97369
              2  C  1  S      0.37212     0.42436
              3  C  1  X      0.53141     0.51227
              4  C  1  Y      0.56616     0.53281
              5  C  1  Z      0.58244     0.53837
              6  C  1  S      1.03795     0.56472
              7  C  1  X      0.26593     0.47102
              8  C  1  Y      0.39615     0.53070
              9  C  1  Z      0.54678     0.58356
             10  H  2  S      0.46440     0.46749
             11  H  2  S      0.26716     0.36906
             12  H  3  S      0.45605     0.46030
             13  H  3  S      0.26546     0.37246
             14  O  4  S      1.98601     1.98038
             15  O  4  S      0.43501     0.59175
             16  O  4  X      0.82156     0.81475
             17  O  4  Y      0.67852     0.66387
             18  O  4  Z      0.62510     0.61394
             19  O  4  S      1.54890     1.04302
             20  O  4  X      0.90512     0.96127
             21  O  4  Y      0.72071     0.78575
             22  O  4  Z      0.75675     0.77708
             23  O  5  S      1.98517     1.97908
             24  O  5  S      0.42540     0.58343
             25  O  5  X      0.59942     0.57147
             26  O  5  Y      0.75023     0.74118
             27  O  5  Z      0.80534     0.80787
             28  O  5  S      1.50997     1.00897
             29  O  5  X      0.63593     0.69614
             30  O  5  Y      0.88110     0.90637
             31  O  5  Z      0.96394     0.96231
             32  C  6  S      1.98477     1.97376
             33  C  6  S      0.44021     0.44021
             34  C  6  X      0.56467     0.53877
             35  C  6  Y      0.62392     0.58951
             36  C  6  Z      0.42156     0.39944
             37  C  6  S      0.53089     0.50758
             38  C  6  X      0.27330     0.43735
             39  C  6  Y      0.07949     0.42270
             40  C  6  Z      0.44401     0.48191
             41  H  7  S      0.42794     0.43317
             42  H  7  S      0.20476     0.31181
             43  N  8  S      1.98608     1.97691
             44  N  8  S      0.37707     0.48714
             45  N  8  X      0.54491     0.51113
             46  N  8  Y      0.57210     0.53745
             47  N  8  Z      0.76836     0.77467
             48  N  8  S      1.33064     0.79771
             49  N  8  X      0.52400     0.62503
             50  N  8  Y      0.58041     0.66228
             51  N  8  Z      0.98042     0.98574
             52  H  9  S      0.47198     0.47556
             53  H  9  S      0.29330     0.42004
             54  H 10  S      0.47073     0.47886
             55  H 10  S      0.33120     0.44185

          ----- MULLIKEN ATOMIC OVERLAP POPULATIONS -----
          (OFF-DIAGONAL ELEMENTS NEED TO BE MULTIPLIED BY 2)

             1           2           3           4           5

    1    5.4997465
    2   -0.0427810   0.4840655
    3   -0.0619590  -0.0345324   0.4811475
    4   -0.0918013   0.0000455   0.0168899   8.0938412
    5   -0.0907064  -0.0000201   0.0002275  -0.0621512   8.2543300
    6    0.1133483   0.0053740  -0.0039302   0.5158152   0.2060956
    7    0.0094023   0.0000029  -0.0000260   0.0057727   0.2413695
    8    0.2876831   0.3241025   0.3183196  -0.0021874   0.0005647
    9    0.3379981  -0.0003305   0.0046254   0.0014964   0.0043316
   10    0.3251023  -0.0043702   0.0007479  -0.0000366   0.0024572

             6           7           8           9          10

    6    4.6703714
    7   -0.0272621   0.4041858
    8   -0.0452615  -0.0000821   6.8649876
    9   -0.0270690  -0.0003029  -0.0413575   0.5305112
   10   -0.0446559  -0.0003637  -0.0427849  -0.0446251   0.6104632

          TOTAL MULLIKEN AND LOWDIN ATOMIC POPULATIONS
       ATOM         MULL.POP.    CHARGE          LOW.POP.     CHARGE
    1 C             6.286033   -0.286033         6.131495   -0.131495
[...]
   29  O  5  X    0.000385   0.349782  -0.026633   0.083729   0.018385
   30  O  5  Y   -0.085995  -0.323412   0.089229  -0.010777  -0.018832
   31  O  5  Z   -0.254406   0.110700  -0.030234   0.005685  -0.070914
   32  C  6  S   -0.000583  -0.024032   0.028544   0.013953   0.004762
   33  C  6  S   -0.000081   0.010329   0.012954   0.016952  -0.000754
   34  C  6  X   -0.001969  -0.076193  -0.021318  -0.018432   0.000493
   35  C  6  Y    0.149526  -0.065623   0.002888  -0.023399   0.021915
   36  C  6  Z    0.450220   0.022426   0.002887   0.007031   0.055808
   37  C  6  S    0.007555   0.168441  -0.408506  -0.193848  -0.058188
   38  C  6  X   -0.001488   0.110394  -0.022432   0.057012   0.000177
   39  C  6  Y    0.166923  -0.109204  -0.030319   0.055258   0.082028
   40  C  6  Z    0.508611   0.038226   0.013512  -0.018510   0.230818
   41  H  7  S   -0.000218   0.168963  -0.001392   0.013012   0.003081
   42  H  7  S   -0.000261   1.201106  -0.152971   0.128093   0.015846
   43  N  8  S    0.001649  -0.033023  -0.128632   0.075250  -0.000627
   44  N  8  S   -0.000600   0.008113   0.058065  -0.038314   0.000220
   45  N  8  X    0.004251  -0.081525  -0.034077   0.002161   0.001260
   46  N  8  Y   -0.001933   0.002537   0.141792  -0.064553  -0.058280
   47  N  8  Z   -0.006924   0.000635  -0.033119   0.028937  -0.219640
   48  N  8  S   -0.015470   0.351368   1.260307  -0.707434   0.008510
   49  N  8  X    0.008607  -0.212433  -0.090008  -0.000175  -0.000087
   50  N  8  Y   -0.014213  -0.018417   0.364035  -0.104467  -0.131343
   51  N  8  Z   -0.050773   0.007375  -0.087234   0.054614  -0.506166
   52  H  9  S   -0.094074  -0.020905  -0.012315  -0.056186   0.063329
   53  H  9  S   -0.331540   0.024059  -0.582909  -1.237090   0.913250
   54  H 10  S    0.097085  -0.017620  -0.006630  -0.052160  -0.064923
   55  H 10  S    0.343312   0.037467  -0.530436  -1.198176  -1.015127

                     26         27         28         29         30
                    0.2226     0.2392     0.2479     0.3278     0.4309
                     A          A          A          A          A   
    1  C  1  S   -0.000354   0.084475   0.046612   0.115008  -0.024131
    2  C  1  S    0.000563  -0.041088  -0.033630  -0.054000   0.077704
    3  C  1  X   -0.014351   0.086660  -0.329097   0.020193   0.167409
    4  C  1  Y    0.079473  -0.244084  -0.005872  -0.172322   0.163235
    5  C  1  Z    0.276633   0.065764  -0.014970   0.054529  -0.054040
    6  C  1  S    0.004218  -0.886718  -0.522727  -1.596324  -0.300020
    7  C  1  X   -0.053438   0.364422  -1.247067   0.435621   1.167523
    8  C  1  Y    0.279245  -0.722153   0.053780  -1.009211   0.361318
    9  C  1  Z    0.956768   0.198327  -0.076976   0.326340  -0.104351
   10  H  2  S   -0.035992   0.021370   0.027286   0.032743   0.057706
   11  H  2  S   -0.828272   0.016094   0.502709   0.055934  -0.034587
   12  H  3  S    0.037384   0.020050   0.026517   0.027189   0.053667
   13  H  3  S    0.875881   0.041639   0.432595   0.073916  -0.060174
   14  O  4  S   -0.002483   0.041953  -0.037497  -0.035178  -0.123186
   15  O  4  S    0.002202  -0.033106   0.022326   0.021301   0.060365
   16  O  4  X    0.008221   0.051851   0.044346  -0.210977   0.044842
   17  O  4  Y    0.006293   0.136538  -0.113003  -0.059003  -0.166298
   18  O  4  Z    0.033832  -0.047249   0.034826   0.017794   0.057557
   19  O  4  S    0.020430  -0.378827   0.373561   0.369446   1.568558
   20  O  4  X    0.009842   0.075720   0.110845  -0.410936   0.033444
   21  O  4  Y    0.016162   0.282733  -0.244573  -0.162195  -0.668468
   22  O  4  Z    0.084766  -0.096650   0.075974   0.051787   0.224691
   23  O  5  S    0.001040   0.059016   0.010228  -0.045939   0.049420
   24  O  5  S   -0.000697  -0.050276  -0.014439   0.030454  -0.018503
   25  O  5  X   -0.005612  -0.324131  -0.083719   0.126006  -0.102923
   26  O  5  Y    0.021538  -0.088847   0.058489   0.153991   0.019636
   27  O  5  Z    0.065970   0.026421  -0.023079  -0.049593  -0.008029
   28  O  5  S   -0.008102  -0.448344  -0.034058   0.458794  -0.598662
   29  O  5  X   -0.010612  -0.625936  -0.123279   0.283626  -0.397492
   30  O  5  Y    0.023295  -0.157940   0.050807   0.313837   0.042016
   31  O  5  Z    0.072060   0.046951  -0.022053  -0.102544  -0.015636
   32  C  6  S    0.001247  -0.178123   0.061227  -0.014119   0.005978
   33  C  6  S   -0.000838   0.103163  -0.031244   0.026069   0.094583
   34  C  6  X   -0.009961  -0.143748  -0.152762   0.514102  -0.201629
   35  C  6  Y   -0.047894  -0.165538  -0.008610  -0.139152  -0.323924
   36  C  6  Z   -0.136706   0.055926   0.012498   0.048410   0.104232
   37  C  6  S   -0.020112   1.948860  -0.901378   0.415968  -0.337440
   38  C  6  X   -0.014285  -0.012746  -0.432252   1.448168  -0.246213
   39  C  6  Y   -0.093335  -0.293694  -0.074288  -0.599563  -1.990425
   40  C  6  Z   -0.239536   0.105530   0.040891   0.206934   0.656514
   41  H  7  S    0.000803  -0.050674   0.031798   0.092409   0.078393
   42  H  7  S   -0.006853  -0.392337  -0.216703   0.145831  -0.063218
   43  N  8  S   -0.000180  -0.024228  -0.041551  -0.023978   0.054595
   44  N  8  S    0.000142   0.015539   0.020027   0.002932  -0.011599
   45  N  8  X   -0.005440  -0.152754  -0.231669  -0.138016   0.009244
   46  N  8  Y   -0.087122  -0.006310  -0.238938  -0.035006   0.130776
   47  N  8  Z   -0.281585  -0.003938   0.076038   0.005946  -0.033811
   48  N  8  S   -0.001568   0.226259   0.379358   0.312801  -0.692533
   49  N  8  X   -0.014363  -0.340259  -0.655241  -0.412221   0.376110
   50  N  8  Y   -0.234561  -0.003140  -0.671724  -0.073329   0.284975
   51  N  8  Z   -0.758202  -0.010448   0.212309   0.007539  -0.066520
   52  H  9  S   -0.029061  -0.032799  -0.031301  -0.043221  -0.028526
   53  H  9  S   -0.985510  -0.114597   0.194767  -0.010266   0.187843
   54  H 10  S    0.025575  -0.035633  -0.030082  -0.042789  -0.017301
   55  H 10  S    0.957287  -0.169797   0.139924   0.007747   0.151648

     ---------------------------------------------------------------------
     PROPERTIES FOR THE B3LYP    DFT FUNCTIONAL (RHF  TYPE) DENSITY MATRIX
     ---------------------------------------------------------------------

          -----------------
          ENERGY COMPONENTS
          -----------------

         WAVEFUNCTION NORMALIZATION =       1.0000000000

                ONE ELECTRON ENERGY =    -736.6840901693
                TWO ELECTRON ENERGY =     276.8475926652
           NUCLEAR REPULSION ENERGY =     177.1409055357
                                      ------------------
                       TOTAL ENERGY =    -282.6955919684

 ELECTRON-ELECTRON POTENTIAL ENERGY =     276.8475926652
  NUCLEUS-ELECTRON POTENTIAL ENERGY =   -1017.2459243355
   NUCLEUS-NUCLEUS POTENTIAL ENERGY =     177.1409055357
                                      ------------------
             TOTAL POTENTIAL ENERGY =    -563.2574261346
               TOTAL KINETIC ENERGY =     280.5618341662
                 VIRIAL RATIO (V/T) =       2.0076053032

          ---------------------------------------
          MULLIKEN AND LOWDIN POPULATION ANALYSES
          ---------------------------------------

     ATOMIC MULLIKEN POPULATION IN EACH MOLECULAR ORBITAL

                      1          2          3          4          5

                  2.000000   2.000000   2.000000   2.000000   2.000000

    1            -0.000084   0.000043   0.004290   0.006199   1.983417
    2            -0.000000   0.000001   0.001556   0.000004   0.000080
    3            -0.000000   0.000000   0.001549   0.000003   0.000081
    4            -0.000005   1.991650   0.000000  -0.002523  -0.000010
    5             1.994628   0.000000  -0.000000  -0.000172   0.000008
    6             0.004665   0.008312  -0.000064   1.996302   0.006927
    7             0.000795  -0.000005   0.000000   0.000054   0.000002
    8            -0.000000   0.000000   1.992695   0.000003   0.002661
    9             0.000001  -0.000001  -0.000013   0.000063   0.003411
   10            -0.000000  -0.000000  -0.000011   0.000067   0.003423

                      6          7          8          9         10

                  2.000000   2.000000   2.000000   2.000000   2.000000

    1             0.003131   0.013487   0.477164   0.743118   0.336101
    2             0.000025   0.000325   0.081916   0.058751   0.032502
    3             0.000016   0.000199   0.082688   0.059394   0.033382
    4             0.685443   0.941681   0.027309   0.038014   0.046384
    5             0.894012   0.828121   0.003836   0.188063   0.736005
    6             0.363459   0.156580   0.031376   0.409526   0.291473
    7             0.052848   0.057643   0.001424   0.062997   0.229018
    8             0.002328   0.001955   1.277963   0.331683   0.173842
    9            -0.000606  -0.000002   0.008331   0.054275   0.059501
   10            -0.000656   0.000010   0.007993   0.054178   0.061791

                     11         12         13         14         15

                  2.000000   2.000000   2.000000   2.000000   2.000000

    1             0.542187   0.494485   0.135643   0.030017   0.584607
    2             0.193135   0.000304   0.023980   0.114986   0.101110
    3             0.183689   0.008441   0.020273   0.152209   0.066468
    4             0.050862   0.336662   0.904730   0.316518   0.107649
    5             0.044426   0.223874   0.513017   0.405668   0.181883
    6             0.162846   0.632910   0.253197   0.579305   0.022143
    7             0.000380   0.048240   0.020118   0.000310   0.045356
    8             0.596545   0.111192   0.121161   0.360164   0.694067
    9             0.132038   0.052928   0.004574   0.014736   0.105783
   10             0.093893   0.090964   0.003307   0.026087   0.090933

                     16         17         18         19         20

                  2.000000   2.000000   2.000000   2.000000   2.000000

    1             0.170214   0.590425  -0.000194   0.161414   0.038932
    2             0.000220   0.100926   0.000307   0.002982   0.013472
    3             0.000129   0.102760   0.000297   0.002087   0.013895
    4             0.576264   0.183440   0.824521   1.417673   0.034683
    5             0.904100   0.209959   1.124189   0.275869   0.025933
    6             0.182090   0.090614   0.043506   0.042932   0.129949
    7             0.094090   0.000153   0.000000   0.011174   0.013943
    8             0.035062   0.174850   0.001354   0.072852   1.684255
    9             0.013027   0.280630   0.003009   0.007124   0.019529
   10             0.024803   0.266243   0.003009   0.005895   0.025411

               ----- POPULATIONS IN EACH AO -----
                             MULLIKEN      LOWDIN
              1  C  1  S      1.98712     1.97377
              2  C  1  S      0.36931     0.42477
              3  C  1  X      0.51776     0.49348
              4  C  1  Y      0.56387     0.53124
              5  C  1  Z      0.59055     0.55194
              6  C  1  S      1.05668     0.56781
              7  C  1  X      0.26107     0.47372
              8  C  1  Y      0.41522     0.53859
              9  C  1  Z      0.55303     0.58209
             10  H  2  S      0.45571     0.46046
             11  H  2  S      0.27087     0.37250
             12  H  3  S      0.45619     0.46095
             13  H  3  S      0.27137     0.37240
             14  O  4  S      1.98599     1.98046
             15  O  4  S      0.43599     0.59363
             16  O  4  X      0.82498     0.81890
             17  O  4  Y      0.66908     0.65445
             18  O  4  Z      0.62180     0.61049
             19  O  4  S      1.54874     1.05119
             20  O  4  X      0.91239     0.96604
             21  O  4  Y      0.72862     0.78845
             22  O  4  Z      0.75335     0.77542
             23  O  5  S      1.98512     1.97925
             24  O  5  S      0.42622     0.58747
             25  O  5  X      0.58880     0.56239
             26  O  5  Y      0.74421     0.73568
             27  O  5  Z      0.80292     0.80485
             28  O  5  S      1.51118     1.02757
             29  O  5  X      0.64393     0.70293
             30  O  5  Y      0.88699     0.91067
             31  O  5  Z      0.96405     0.96417
             32  C  6  S      1.98493     1.97409
             33  C  6  S      0.43727     0.44860
             34  C  6  X      0.54821     0.52391
             35  C  6  Y      0.60851     0.57599
             36  C  6  Z      0.42322     0.40214
             37  C  6  S      0.57763     0.52894
             38  C  6  X      0.27401     0.44322
             39  C  6  Y      0.11822     0.43488
             40  C  6  Z      0.43606     0.48536
             41  H  7  S      0.41420     0.42092
             42  H  7  S      0.22434     0.32488
             43  N  8  S      1.98603     1.97702
             44  N  8  S      0.38038     0.48871
             45  N  8  X      0.64670     0.64128
             46  N  8  Y      0.65179     0.63080
             47  N  8  Z      0.57170     0.53319
             48  N  8  S      1.31372     0.80328
             49  N  8  X      0.77565     0.83249
             50  N  8  Y      0.72642     0.78732
             51  N  8  Z      0.58223     0.65103
             52  H  9  S      0.46882     0.47192
             53  H  9  S      0.28952     0.41521
             54  H 10  S      0.46853     0.47204
             55  H 10  S      0.28881     0.41503

          ----- MULLIKEN ATOMIC OVERLAP POPULATIONS -----
          (OFF-DIAGONAL ELEMENTS NEED TO BE MULTIPLIED BY 2)

             1           2           3           4           5

    1    5.5212202
    2   -0.0591072   0.4882847
    3   -0.0580170  -0.0356974   0.4895770
    4   -0.0859367   0.0039210   0.0028173   8.0976738
    5   -0.0733526   0.0000602   0.0000466  -0.0576459   8.2845201
    6    0.0396353   0.0011942   0.0011729   0.5148210   0.1587805
    7    0.0069782  -0.0000048  -0.0000038   0.0052464   0.2316838
    8    0.3104754   0.3265112   0.3268701  -0.0015164   0.0007363
    9    0.3554604   0.0044041  -0.0035957   0.0008538   0.0043928
   10    0.3572405  -0.0029857   0.0043921   0.0007087   0.0041963

             6           7           8           9          10

    6    4.8766397
    7   -0.0213675   0.4167953
    8   -0.0621957  -0.0000889   6.7925777
    9   -0.0487868  -0.0003480  -0.0289056   0.4937989
   10   -0.0518439  -0.0003505  -0.0298324  -0.0189361   0.4947516

          TOTAL MULLIKEN AND LOWDIN ATOMIC POPULATIONS
       ATOM         MULL.POP.    CHARGE          LOW.POP.     CHARGE
    1 C             6.314597   -0.314597         6.137410   -0.137410
    2 H             0.726580    0.273420         0.832956    0.167044
    3 H             0.727562    0.272438         0.833351    0.166649
    4 O             8.480943   -0.480943         8.239034   -0.239034
    5 O             8.553418   -0.553418         8.274996   -0.274996
    6 C             5.408050    0.591950         5.817119    0.182881
    7 H             0.638540    0.361460         0.745806    0.254194
    8 N             7.634632   -0.634632         7.345122   -0.345122
    9 H             0.758338    0.241662         0.887128    0.112872
   10 H             0.757341    0.242659         0.887077    0.112923

          -------------------------------
          BOND ORDER AND VALENCE ANALYSIS     BOND ORDER THRESHOLD=0.050
          -------------------------------

                   BOND                       BOND                       BOND
  ATOM PAIR DIST  ORDER      ATOM PAIR DIST  ORDER      ATOM PAIR DIST  ORDER
    1   6  1.525  0.800        1   8  1.467  0.999        1   9  1.095  0.885
    1  10  1.096  0.884        2   8  1.025  0.867        3   8  1.025  0.869
    4   5  2.295  0.146        4   6  1.225  1.845        5   6  1.381  0.976
    5   7  0.999  0.802

                       TOTAL       BONDED        FREE
      ATOM            VALENCE     VALENCE     VALENCE
    1 C                 3.619       3.619      -0.000
    2 H                 0.890       0.890       0.000
    3 H                 0.889       0.889       0.000
    4 O                 2.085       2.085      -0.000
    5 O                 1.950       1.950      -0.000
    6 C                 3.663       3.663      -0.000
    7 H                 0.859       0.859      -0.000
    8 N                 2.789       2.789      -0.000
    9 H                 0.899       0.899       0.000
   10 H                 0.898       0.898       0.000

          ---------------------
          ELECTROSTATIC MOMENTS
          ---------------------

 POINT   1           X           Y           Z (BOHR)    CHARGE
                 0.137365   -0.123926   -0.259235       -0.00 (A.U.)
         DX          DY          DZ         /D/  (DEBYE)
    -1.252078   -0.089223    0.085865    1.258186
 ...... END OF PROPERTY EVALUATION ......
 CPU     0: STEP CPU TIME=     0.02 TOTAL CPU TIME=        239.6 (      4.0 MIN)
 TOTAL WALL CLOCK TIME=        243.3 SECONDS, CPU UTILIZATION IS    98.49%
  $VIB   
          IVIB=   0 IATOM=   0 ICOORD=   0 E=     -282.6955919684
  5.930817673E-05-7.959067922E-05-2.223071220E-05-1.099047096E-05-2.229845332E-05
  5.846229028E-05-2.081414693E-06-6.682561168E-06-8.553784456E-06 3.392720774E-06
  6.172260486E-06 5.271809462E-06-2.303965439E-05 3.623178037E-06 8.728120418E-06
 -5.526961322E-05 3.587505596E-05-1.042114500E-05-1.019544385E-05 2.984216682E-06
 -8.851665414E-06 2.677634417E-05 3.856334757E-05-3.947787231E-05 7.886990983E-06
  7.158247529E-06-9.473612385E-06 4.212364460E-06 1.419538745E-05 2.654657161E-05
 -1.252077833E+00-8.922278256E-02 8.586518373E-02
 ......END OF GEOMETRY SEARCH......
 CPU     0: STEP CPU TIME=     0.00 TOTAL CPU TIME=        239.6 (      4.0 MIN)
 TOTAL WALL CLOCK TIME=        243.3 SECONDS, CPU UTILIZATION IS    98.48%
               580000  WORDS OF DYNAMIC MEMORY USED
 EXECUTION OF GAMESS TERMINATED NORMALLY Sun May 17 13:10:32 2020
 DDI: 263640 bytes (0.3 MB / 0 MWords) used by master data server.
Note: The following floating-point exceptions are signalling: IEEE_UNDERFLOW_FLAGNote: The following floating-point exceptions are signalling: IEEE_UNDERFLOW_FLAGNote: The following floating-point exceptions are signalling: IEEE_UNDERFLOW_FLAGNote: The following floating-point exceptions are signalling:
 ----------------------------------------
 CPU timing information for all processes
 ========================================
 0: 232.817 + 6.782 = 239.599
 1: 233.799 + 1.972 = 235.771
 2: 233.250 + 1.476 = 234.727
 3: 233.634 + 1.587 = 235.222
 4: 233.92 + 1.636 = 234.728
 5: 232.978 + 1.117 = 234.95
 ----------------------------------------
 IEEE_DENORMALNote: The following floating-point exceptions are signalling: IEEE_DENORMAL
 IEEE_DENORMAL
 IEEE_UNDERFLOW_FLAG IEEE_DENORMALNote: The following floating-point exceptions are signalling: IEEE_UNDERFLOW_FLAG
 IEEE_UNDERFLOW_FLAG IEEE_DENORMAL
 IEEE_DENORMAL

 ddikick.x: exited gracefully.
unset echo
----- accounting info -----
Files used on the master node pietdev were:
-rwxr-xr-x 1 piet piet      591 mei 17 13:06 /home/piet/scr/glycine_geoopt.F05*
-rw-r--r-- 1 piet piet 57344000 mei 17 13:10 /home/piet/scr/glycine_geoopt.F10
-rw-r--r-- 1 piet piet  2767504 mei 17 13:10 /home/piet/scr/glycine_geoopt.F22
-rw-r--r-- 1 piet piet  2767504 mei 17 13:10 /home/piet/scr/glycine_geoopt.F22.001
-rw-r--r-- 1 piet piet  2767504 mei 17 13:10 /home/piet/scr/glycine_geoopt.F22.002
-rw-r--r-- 1 piet piet  2767504 mei 17 13:10 /home/piet/scr/glycine_geoopt.F22.003
-rw-r--r-- 1 piet piet  2767504 mei 17 13:10 /home/piet/scr/glycine_geoopt.F22.004
-rw-r--r-- 1 piet piet  2767504 mei 17 13:10 /home/piet/scr/glycine_geoopt.F22.005
ls: No match.
ls: No match.
ls: No match.
zo 17 mei 2020 13:10:35 CEST
0.104u 0.020s 4:06.40 0.0%	0+0k 0+8io 0pf+0w
