----- GAMESS execution script 'rungms' -----
This job is running on host pietdev
under operating system Linux at zo 17 mei 2020 15:35:25 CEST
Available scratch disk space (Kbyte units) at beginning of the job is
Filesystem     1K-blocks     Used Available Use% Mounted on
/dev/sda2      244568380 30380132 201695192  14% /
GAMESS temporary binary files will be written to /home/piet/scr
GAMESS supplementary output files will be written to /home/piet/gamess/scr
Copying input file lysine_fukui_base.inp to your run's scratch directory...
cp lysine_fukui_base.inp /home/piet/scr/lysine_fukui_base.F05
unset echo
 
Assuming a single but multicore node.
 
/home/piet/gamess/ddikick.x /home/piet/gamess/gamess.03.x lysine_fukui_base -ddi 1 6 pietdev:cpus=6 -scr /home/piet/scr

 Distributed Data Interface kickoff program.
 Initiating 6 compute processes on 1 nodes to run the following command:
 /home/piet/gamess/gamess.03.x lysine_fukui_base 

          ******************************************************
          *         GAMESS VERSION = 30 SEP 2019 (R2)          *
          *             FROM IOWA STATE UNIVERSITY             *
          * M.W.SCHMIDT, K.K.BALDRIDGE, J.A.BOATZ, S.T.ELBERT, *
          *   M.S.GORDON, J.H.JENSEN, S.KOSEKI, N.MATSUNAGA,   *
          *          K.A.NGUYEN, S.J.SU, T.L.WINDUS,           *
          *       TOGETHER WITH M.DUPUIS, J.A.MONTGOMERY       *
          *         J.COMPUT.CHEM.  14, 1347-1363(1993)        *
          **************** 64 BIT LINUX VERSION ****************

  SINCE 1993, STUDENTS AND POSTDOCS WORKING AT IOWA STATE UNIVERSITY
  AND ALSO IN THEIR VARIOUS JOBS AFTER LEAVING ISU HAVE MADE IMPORTANT
  CONTRIBUTIONS TO THE CODE:
     IVANA ADAMOVIC, CHRISTINE AIKENS, YURI ALEXEEV, POOJA ARORA,
     ANDREY ASADCHEV, ROB BELL, PRADIPTA BANDYOPADHYAY, JONATHAN BENTZ,
     COLLEEN BERTONI, BRETT BODE, KURT BRORSEN, CALEB CARLIN, GALINA CHABAN,
     WEI CHEN, CHEOL HO CHOI, PAUL DAY, ALBERT DEFUSCO, NUWAN DESILVA,
     TIM DUDLEY, DMITRI FEDOROV, ALEX FINDLATER, GRAHAM FLETCHER, 
     MARK FREITAG, KURT GLAESEMANN, EMILIE B GUIDEZ, ANASTASIA GUNINA, 
     DAN KEMP, SAROM SOK LEANG, GRANT MERRILL,
     NORIYUKI MINEZAWA, JONATHAN MULLIN,
     TAKESHI NAGATA, SEAN NEDD, HEATHER NETZLOFF, BOSILJKA NJEGIC, RYAN OLSON,
     MIKE PAK, BUU PHAM, DAVID POOLE,
     SPENCER PRUITT, LUKE ROSKOP, TOSAPORN SATTASATHUCHANA,
     JIM SHOEMAKER, LYUDMILA SLIPCHENKO,
     TONY SMITH, JIE SONG, TETSUYA TAKETSUGU, SIMON WEBB,
     JORGE LUIS GALVEZ VALLEJO, PENG XU, SOOHAENG YOO,
     FEDERICO ZAHARIEV

  ADDITIONAL CODE HAS BEEN PROVIDED BY COLLABORATORS IN OTHER GROUPS:
     IOWA STATE UNIVERSITY:
          JOE IVANIC, AARON WEST, LAIMUTIS BYTAUTAS, KLAUS RUEDENBERG
     UNIVERSITY OF TOKYO: KIMIHIKO HIRAO, TAKAHITO NAKAJIMA,
          TAKAO TSUNEDA, MUNEAKI KAMIYA, SUSUMU YANAGISAWA,
          KIYOSHI YAGI, MAHITO CHIBA, SEIKEN TOKURA, NAOAKI KAWAKAMI
     UNIVERSITY OF AARHUS: FRANK JENSEN
     UNIVERSITY OF IOWA: VISVALDAS KAIRYS, HUI LI
     NATIONAL INST. OF STANDARDS AND TECHNOLOGY: WALT STEVENS, DAVID GARMER
     UNIVERSITY OF PISA: BENEDETTA MENNUCCI, JACOPO TOMASI
     UNIVERSITY OF MEMPHIS: HENRY KURTZ, PRAKASHAN KORAMBATH
     UNIVERSITY OF ALBERTA: TOBY ZENG, MARIUSZ KLOBUKOWSKI
     UNIVERSITY OF NEW ENGLAND: MARK SPACKMAN
     MIE UNIVERSITY: HIROAKI UMEDA
     NAT. INST. OF ADVANCED INDUSTRIAL SCIENCE AND TECHNOLOGY: KAZUO KITAURA
     MICHIGAN STATE UNIVERSITY:
          KAROL KOWALSKI, MARTA WLOCH, JEFFREY GOUR, JESSE LUTZ,
          WEI LI, JUN SHEN, J. EMILIANO DEUSTUA, PIOTR PIECUCH
     UNIVERSITY OF MINNESOTA:
          ANDREW SAND, PRACHI SHARMA, YINAN SHU
     UNIVERSITY OF SILESIA: MONIKA MUSIAL, STANISLAW KUCHARSKI
     FACULTES UNIVERSITAIRES NOTRE-DAME DE LA PAIX:
          OLIVIER QUINET, BENOIT CHAMPAGNE
     UNIVERSITY OF CALIFORNIA - SANTA BARBARA: BERNARD KIRTMAN
     INSTITUTE FOR MOLECULAR SCIENCE:
          KAZUYA ISHIMURA, MICHIO KATOUDA, AND SHIGERU NAGASE
     UNIVERSITY OF NOTRE DAME: ANNA POMOGAEVA, DAN CHIPMAN
     KYUSHU UNIVERSITY:
          HARUYUKI NAKANO,
          FENG LONG GU, JACEK KORCHOWIEC, MARCIN MAKOWSKI, AND YURIKO AOKI,
          HIROTOSHI MORI AND EISAKU MIYOSHI
     PENNSYLVANIA STATE UNIVERSITY:
          TZVETELIN IORDANOV, CHET SWALINA, JONATHAN SKONE,
          SHARON HAMMES-SCHIFFER
     WASEDA UNIVERSITY:
          MASATO KOBAYASHI, TOMOKO AKAMA, TSUGUKI TOUMA,
          TAKESHI YOSHIKAWA, YASUHIRO IKABATA, JUNJI SEINO,
          YUYA NAKAJIMA, HIROMI NAKAI
     NANJING UNIVERSITY: SHUHUA LI
     UNIVERSITY OF NEBRASKA:
          PEIFENG SU, DEJUN SI, NANDUN THELLAMUREGE, YALI WANG, HUI LI
     UNIVERSITY OF ZURICH: ROBERTO PEVERATI, KIM BALDRIDGE
     N. COPERNICUS UNIVERSITY AND JACKSON STATE UNIVERSITY:
          MARIA BARYSZ
     UNIVERSITY OF COPENHAGEN: Jimmy Kromann, CASPER STEINMANN
     TOKYO INSTITUTE OF TECHNOLOGY: HIROYA NAKATA
     NAGOYA UNIVERSITY: YOSHIO NISHIMOTO, STEPHAN IRLE
     MOSCOW STATE UNIVERSITY: VLADIMIR MIRONOV
     A.N.NESMEYANOV INSTITUTE OF ORGANOELEMENT COMPOUNDS OF RUSSIAN ACADEMY OF SCIENCES:
          IGOR S. GERASIMOV
     JOHANNES KEPLER UNIVERSITY LINZ:
          CHRISTIAN FRIEDL


 PARALLEL VERSION RUNNING ON        6 PROCESSORS IN        1 NODES.

 EXECUTION OF GAMESS BEGUN Sun May 17 15:35:25 2020

            ECHO OF THE FIRST FEW INPUT CARDS -
 INPUT CARD> $BASIS GBASIS=N21 NGAUSS=3 $END                                                
 INPUT CARD> $CONTRL SCFTYP=UHF MAXIT=60 MULT=2 ICHARG=1 $END                               
 INPUT CARD> $SYSTEM MEMDDI=1000 MWORDS=30 $END                                             
 INPUT CARD> $SCF DIRSCF=.TRUE. $END                                                        
 INPUT CARD> $STATPT OPTTOL=0.0001 NSTEP=999 $END                                           
 INPUT CARD> $DATA                                                                          
 INPUT CARD>                                                                                
 INPUT CARD>C1                                                                              
 INPUT CARD>C 6.0000000 1.4324414348 0.3605472402 0.4744060451                              
 INPUT CARD>H 1.0000000 1.4328480696 0.1609517568 1.5528676662                              
 INPUT CARD>C 6.0000000 0.1940749575 -0.2746130033 -0.1945361431                            
 INPUT CARD>C 6.0000000 -1.1297201168 0.2686470497 0.3882790394                             
 INPUT CARD>C 6.0000000 -2.3740033780 -0.3556198154 -0.2774338276                           
 INPUT CARD>C 6.0000000 -3.6923962825 0.1732930187 0.3176731882                             
 INPUT CARD>N 7.0000000 -4.8410802466 -0.4174382083 -0.4109315568                           
 INPUT CARD>H 1.0000000 0.2173621931 -0.0791536048 -1.2749764291                            
 INPUT CARD>H 1.0000000 0.2231287117 -1.3648749374 -0.0625046000                            
 INPUT CARD>H 1.0000000 -1.1532142929 0.0714890563 1.4697897997                             
 INPUT CARD>H 1.0000000 -1.1573324643 1.3601262841 0.2576151661                             
 INPUT CARD>H 1.0000000 -2.3812386103 -0.1449417311 -1.3529953093                           
 INPUT CARD>H 1.0000000 -2.3392513614 -1.4487753719 -0.1564136968                           
 INPUT CARD>H 1.0000000 -3.6908668981 -0.0123205448 1.4095540659                            
 INPUT CARD>H 1.0000000 -3.7332598515 1.2599055303 0.1740714606                             
 INPUT CARD>H 1.0000000 -4.8912439826 -1.4320507538 -0.2680630178                           
 INPUT CARD>H 1.0000000 -5.7318093132 0.0071927823 -0.1344214936                            
 INPUT CARD>H 1.0000000 2.3602414625 -0.0411189934 0.0511897151                             
 INPUT CARD>H 1.0000000 1.4327199691 1.4477942458 0.3294399277                              
 INPUT CARD> $END                                                                           
   30000000 WORDS OF MEMORY AVAILABLE

     BASIS OPTIONS
     -------------
     GBASIS=N21          IGAUSS=       3      POLAR=NONE    
     NDFUNC=       0     NFFUNC=       0     DIFFSP=       F
     NPFUNC=       0      DIFFS=       F     BASNAM=        


     RUN TITLE
     ---------
                                                                                 

 THE POINT GROUP OF THE MOLECULE IS C1      
 THE ORDER OF THE PRINCIPAL AXIS IS     0

 ATOM      ATOMIC                      COORDINATES (BOHR)
           CHARGE         X                   Y                   Z
 C           6.0     2.7069218052        0.6813354896        0.8964974322
 H           1.0     2.7076902336        0.3041547176        2.9344943843
 C           6.0     0.3667484908       -0.5189433289       -0.3676200052
 C           6.0    -2.1348614636        0.5076693113        0.7337409912
 C           6.0    -4.4862158783       -0.6720240069       -0.5242739139
 C           6.0    -6.9776172120        0.3274763209        0.6003152793
 N           7.0    -9.1483151506       -0.7888438305       -0.7765480421
 H           1.0     0.4107549850       -0.1495786240       -2.4093560918
 H           1.0     0.4216521251       -2.5792396392       -0.1181165670
 H           1.0    -2.1792590187        0.1350947275        2.7774999810
 H           1.0    -2.1870412342        2.5702659856        0.4868220742
 H           1.0    -4.4998884849       -0.2739001560       -2.5567903972
 H           1.0    -4.4205440895       -2.7377884707       -0.2955790277
 H           1.0    -6.9747270946       -0.0232824537        2.6636709494
 H           1.0    -7.0548381603        2.3808762227        0.3289473628
 H           1.0    -9.2431108662       -2.7061835252       -0.5065656511
 H           1.0   -10.8315490158        0.0135923876       -0.2540197898
 H           1.0     4.4602096290       -0.0777036304        0.0967345349
 H           1.0     2.7074481587        2.7359344112        0.6225511928

          INTERNUCLEAR DISTANCES (ANGS.)
          ------------------------------

                1 C          2 H          3 C          4 C          5 C     

   1 C       0.0000000    1.0967762 *  1.5441709 *  2.5652554 *  3.9455267  
   2 H       1.0967762 *  0.0000000    2.1857940 *  2.8168459 *  4.2554633  
   3 C       1.5441709 *  2.1857940 *  0.0000000    1.5450691 *  2.5706926 *
   4 C       2.5652554 *  2.8168459 *  1.5450691 *  0.0000000    1.5430890 *
   5 C       3.9455267    4.2554633    2.5706926 *  1.5430890 *  0.0000000  
   6 C       5.1306521    5.2720003    3.9455845    2.5654214 *  1.5401497 *
   7 N       6.3832718    6.5994863    5.0418264    3.8579327    2.4714594 *
   8 H       2.1748778 *  3.0873546    1.0982249 *  2.1684130 *  2.7904660 *
   9 H       2.1743486 *  2.5300189 *  1.0986116 *  2.1683634 *  2.7946172 *
  10 H       2.7856703 *  2.5889427 *  2.1690910 *  1.0995857 *  2.1738303 *
  11 H       2.7844363 *  3.1344431    2.1686667 *  1.0996192 *  2.1703341 *
  12 H       4.2589987    4.8046714    2.8268502 *  2.1838934 *  1.0960247 *
  13 H       4.2305140    4.4431518    2.7924636 *  2.1700682 *  1.1003830 *
  14 H       5.2212853    5.1286467    4.2112559    2.7715372 *  2.1674667 *
  15 H       5.2520011    5.4587040    4.2325616    2.7940826 *  2.1590177 *
  16 H       6.6146553    6.7710845    5.2158927    4.1799784    2.7377530 *
  17 H       7.1987512    7.3622620    5.9328857    4.6390515    3.3803766  
  18 H       1.0960204 *  1.7764931 *  2.1925278 *  3.5198602    4.7560465  
  19 H       1.0968689 *  1.7755954 *  2.1852870 *  2.8213382 *  4.2557891  

                6 C          7 N          8 H          9 H         10 H     

   1 C       5.1306521    6.3832718    2.1748778 *  2.1743486 *  2.7856703 *
   2 H       5.2720003    6.5994863    3.0873546    2.5300189 *  2.5889427 *
   3 C       3.9455845    5.0418264    1.0982249 *  1.0986116 *  2.1690910 *
   4 C       2.5654214 *  3.8579327    2.1684130 *  2.1683634 *  1.0995857 *
   5 C       1.5401497 *  2.4714594 *  2.7904660 *  2.7946172 *  2.1738303 *
   6 C       0.0000000    1.4830048 *  4.2292403    4.2239593    2.7901939 *
   7 N       1.4830048 *  0.0000000    5.1428445    5.1638406    4.1685151  
   8 H       4.2292403    5.1428445    0.0000000    1.7672579 *  3.0716306  
   9 H       4.2239593    5.1638406    1.7672579 *  0.0000000    2.5110531 *
  10 H       2.7901939 *  4.1685151    3.0716306    2.5110531 *  0.0000000  
  11 H       2.7997730 *  4.1444768    2.5120010 *  3.0714461    1.7691722 *
  12 H       2.1474499 *  2.6481237 *  2.6006040 *  3.1521949    3.0859361  
  13 H       2.1649170 *  2.7180109 *  3.1085880    2.5654726 *  2.5223849 *
  14 H       1.1075462 *  2.1911821 *  4.7418799    4.3949655    2.5397506 *
  15 H       1.0968218 *  2.0935560 *  4.4159069    4.7537828    3.1221555  
  16 H       2.0874509 *  1.0258491 *  5.3797827    5.1189428    4.3878959  
  17 H       2.0955153 *  1.0247768 *  6.0581320    6.1113852    4.8519234  
  18 H       6.0622941    7.2259398    2.5203363 *  2.5164473 *  3.7907094  
  19 H       5.2812222    6.5869425    2.5264236 *  3.0867199    3.1435123  

               11 H         12 H         13 H         14 H         15 H     

   1 C       2.7844363 *  4.2589987    4.2305140    5.2212853    5.2520011  
   2 H       3.1344431    4.8046714    4.4431518    5.1286467    5.4587040  
   3 C       2.1686667 *  2.8268502 *  2.7924636 *  4.2112559    4.2325616  
   4 C       1.0996192 *  2.1838934 *  2.1700682 *  2.7715372 *  2.7940826 *
   5 C       2.1703341 *  1.0960247 *  1.1003830 *  2.1674667 *  2.1590177 *
   6 C       2.7997730 *  2.1474499 *  2.1649170 *  1.1075462 *  1.0968218 *
   7 N       4.1444768    2.6481237 *  2.7180109 *  2.1911821 *  2.0935560 *
   8 H       2.5120010 *  2.6006040 *  3.1085880    4.7418799    4.4159069  
   9 H       3.0714461    3.1521949    2.5654726 *  4.3949655    4.7537828  
  10 H       1.7691722 *  3.0859361    2.5223849 *  2.5397506 *  3.1221555  
  11 H       0.0000000    2.5213572 *  3.0754318    3.1031227    2.5792297 *
  12 H       2.5213572 *  0.0000000    1.7701844 *  3.0601297    2.4765884 *
  13 H       3.0754318    1.7701844 *  0.0000000    2.5184364 *  3.0642181  
  14 H       3.1031227    3.0601297    2.5184364 *  0.0000000    1.7739148 *
  15 H       2.5792297 *  2.4765884 *  3.0642181    1.7739148 *  0.0000000  
  16 H       4.6919810    3.0222268    2.5544885 *  2.5041841 *  2.9636192 *
  17 H       4.7864350    3.5685279    3.6918527    2.5592357 *  2.3787932 *
  18 H       3.7920214    4.9461245    4.9101760    6.2017655    6.2320561  
  19 H       2.5925308 *  4.4624742    4.7805792    5.4359658    5.1717298  

               16 H         17 H         18 H         19 H     

   1 C       6.6146553    7.1987512    1.0960204 *  1.0968689 *
   2 H       6.7710845    7.3622620    1.7764931 *  1.7755954 *
   3 C       5.2158927    5.9328857    2.1925278 *  2.1852870 *
   4 C       4.1799784    4.6390515    3.5198602    2.8213382 *
   5 C       2.7377530 *  3.3803766    4.7560465    4.2557891  
   6 C       2.0874509 *  2.0955153 *  6.0622941    5.2812222  
   7 N       1.0258491 *  1.0247768 *  7.2259398    6.5869425  
   8 H       5.3797827    6.0581320    2.5203363 *  2.5264236 *
   9 H       5.1189428    6.1113852    2.5164473 *  3.0867199  
  10 H       4.3878959    4.8519234    3.7907094    3.1435123  
  11 H       4.6919810    4.7864350    3.7920214    2.5925308 *
  12 H       3.0222268    3.5685279    4.9461245    4.4624742  
  13 H       2.5544885 *  3.6918527    4.9101760    4.7805792  
  14 H       2.5041841 *  2.5592357 *  6.2017655    5.4359658  
  15 H       2.9636192 *  2.3787932 *  6.2320561    5.1717298  
  16 H       0.0000000    1.6720742 *  7.3905788    6.9744560  
  17 H       1.6720742 *  0.0000000    8.0943234    7.3226348  
  18 H       7.3905788    8.0943234    0.0000000    1.7761143 *
  19 H       6.9744560    7.3226348    1.7761143 *  0.0000000  

  * ... LESS THAN  3.000


     ATOMIC BASIS SET
     ----------------
 THE CONTRACTED PRIMITIVE FUNCTIONS HAVE BEEN UNNORMALIZED
 THE CONTRACTED BASIS FUNCTIONS ARE NOW NORMALIZED TO UNITY

  SHELL TYPE  PRIMITIVE        EXPONENT          CONTRACTION COEFFICIENT(S)

 C         

      1   S       1           172.2560000    0.061766907377
      1   S       2            25.9109000    0.358794042852
      1   S       3             5.5333500    0.700713083689

      2   L       4             3.6649800   -0.395895162119    0.236459946619
      2   L       5             0.7705450    1.215834355681    0.860618805716

      3   L       6             0.1958570    1.000000000000    1.000000000000

 H         

      4   S       7             5.4471780    0.156284978695
      4   S       8             0.8245472    0.904690876670

      5   S       9             0.1831916    1.000000000000

 C         

      6   S      10           172.2560000    0.061766907377
      6   S      11            25.9109000    0.358794042852
      6   S      12             5.5333500    0.700713083689

      7   L      13             3.6649800   -0.395895162119    0.236459946619
      7   L      14             0.7705450    1.215834355681    0.860618805716

      8   L      15             0.1958570    1.000000000000    1.000000000000

 C         

      9   S      16           172.2560000    0.061766907377
      9   S      17            25.9109000    0.358794042852
      9   S      18             5.5333500    0.700713083689

     10   L      19             3.6649800   -0.395895162119    0.236459946619
     10   L      20             0.7705450    1.215834355681    0.860618805716

     11   L      21             0.1958570    1.000000000000    1.000000000000

 C         

     12   S      22           172.2560000    0.061766907377
     12   S      23            25.9109000    0.358794042852
     12   S      24             5.5333500    0.700713083689

     13   L      25             3.6649800   -0.395895162119    0.236459946619
     13   L      26             0.7705450    1.215834355681    0.860618805716

     14   L      27             0.1958570    1.000000000000    1.000000000000

 C         

     15   S      28           172.2560000    0.061766907377
     15   S      29            25.9109000    0.358794042852
     15   S      30             5.5333500    0.700713083689

     16   L      31             3.6649800   -0.395895162119    0.236459946619
     16   L      32             0.7705450    1.215834355681    0.860618805716

     17   L      33             0.1958570    1.000000000000    1.000000000000

 N         

     18   S      34           242.7660000    0.059865700508
     18   S      35            36.4851000    0.352955002994
     18   S      36             7.8144900    0.706513005993

     19   L      37             5.4252200   -0.413300077430    0.237972016222
     19   L      38             1.1491500    1.224417266851    0.858953058551

     20   L      39             0.2832050    1.000000000000    1.000000000000

 H         

     21   S      40             5.4471780    0.156284978695
     21   S      41             0.8245472    0.904690876670

     22   S      42             0.1831916    1.000000000000

 H         

     23   S      43             5.4471780    0.156284978695
     23   S      44             0.8245472    0.904690876670

     24   S      45             0.1831916    1.000000000000

 H         

     25   S      46             5.4471780    0.156284978695
     25   S      47             0.8245472    0.904690876670

     26   S      48             0.1831916    1.000000000000

 H         

     27   S      49             5.4471780    0.156284978695
     27   S      50             0.8245472    0.904690876670

     28   S      51             0.1831916    1.000000000000

 H         

     29   S      52             5.4471780    0.156284978695
     29   S      53             0.8245472    0.904690876670

     30   S      54             0.1831916    1.000000000000

 H         

     31   S      55             5.4471780    0.156284978695
     31   S      56             0.8245472    0.904690876670

     32   S      57             0.1831916    1.000000000000

 H         

     33   S      58             5.4471780    0.156284978695
     33   S      59             0.8245472    0.904690876670

     34   S      60             0.1831916    1.000000000000

 H         

     35   S      61             5.4471780    0.156284978695
     35   S      62             0.8245472    0.904690876670

     36   S      63             0.1831916    1.000000000000

 H         

     37   S      64             5.4471780    0.156284978695
     37   S      65             0.8245472    0.904690876670

     38   S      66             0.1831916    1.000000000000

 H         

     39   S      67             5.4471780    0.156284978695
     39   S      68             0.8245472    0.904690876670

     40   S      69             0.1831916    1.000000000000

 H         

     41   S      70             5.4471780    0.156284978695
     41   S      71             0.8245472    0.904690876670

     42   S      72             0.1831916    1.000000000000

 H         

     43   S      73             5.4471780    0.156284978695
     43   S      74             0.8245472    0.904690876670

     44   S      75             0.1831916    1.000000000000

 TOTAL NUMBER OF BASIS SET SHELLS             =   44
 NUMBER OF CARTESIAN GAUSSIAN BASIS FUNCTIONS =   80
 NUMBER OF ELECTRONS                          =   49
 CHARGE OF MOLECULE                           =    1
 SPIN MULTIPLICITY                            =    2
 NUMBER OF OCCUPIED ORBITALS (ALPHA)          =   25
 NUMBER OF OCCUPIED ORBITALS (BETA )          =   24
 TOTAL NUMBER OF ATOMS                        =   19
 THE NUCLEAR REPULSION ENERGY IS      243.2305611184

     $CONTRL OPTIONS
     ---------------
 SCFTYP=UHF          RUNTYP=ENERGY       EXETYP=RUN     
 MPLEVL=       0     CITYP =NONE         CCTYP =NONE         VBTYP =NONE    
 DFTTYP=NONE         TDDFT =NONE    
 MULT  =       2     ICHARG=       1     NZVAR =       0     COORD =UNIQUE  
 PP    =NONE         RELWFN=NONE         LOCAL =NONE         NUMGRD=       F
 ISPHER=      -1     NOSYM =       0     MAXIT =      60     UNITS =ANGS    
 PLTORB=       F     MOLPLT=       F     AIMPAC=       F     FRIEND=        
 NPRINT=       7     IREST =       0     GEOM  =INPUT   
 NORMF =       0     NORMP =       0     ITOL  =      20     ICUT  =       9
 INTTYP=BEST         GRDTYP=BEST         QMTTOL= 1.0E-06

     $SYSTEM OPTIONS
     ---------------
  REPLICATED MEMORY=    30000000 WORDS (ON EVERY NODE).
 DISTRIBUTED MEMDDI=        1000 MILLION WORDS IN AGGREGATE,
 MEMDDI DISTRIBUTED OVER   6 PROCESSORS IS   166666666 WORDS/PROCESSOR.
 TOTAL MEMORY REQUESTED ON EACH PROCESSOR=   196666666 WORDS.
 TIMLIM=      525600.00 MINUTES, OR     365.0 DAYS.
 PARALL= T  BALTYP=  DLB     KDIAG=    0  COREFL= F
 MXSEQ2=     300 MXSEQ3=     150  mem10=         0

          ----------------
          PROPERTIES INPUT
          ----------------

     MOMENTS            FIELD           POTENTIAL          DENSITY
 IEMOM =       1   IEFLD =       0   IEPOT =       0   IEDEN =       0
 WHERE =COMASS     WHERE =NUCLEI     WHERE =NUCLEI     WHERE =NUCLEI  
 OUTPUT=BOTH       OUTPUT=BOTH       OUTPUT=BOTH       OUTPUT=BOTH    
 IEMINT=       0   IEFINT=       0                     IEDINT=       0
                                                       MORB  =       0
          EXTRAPOLATION IN EFFECT
          SOSCF IN EFFECT
          DIIS or SOSCF will be reset if energy rises
 ORBITAL PRINTING OPTION: NPREO=     1    80     2     1

     -------------------------------
     INTEGRAL TRANSFORMATION OPTIONS
     -------------------------------
     NWORD  =            0
     CUTOFF = 1.0E-09     MPTRAN =       0
     DIRTRF =       T     AOINTS =DUP     

          ----------------------
          INTEGRAL INPUT OPTIONS
          ----------------------
 NOPK  =       1 NORDER=       0 SCHWRZ=       T

     ------------------------------------------
     THE POINT GROUP IS C1 , NAXIS= 0, ORDER= 1
     ------------------------------------------

     DIMENSIONS OF THE SYMMETRY SUBSPACES ARE
 A   =   80

 ..... DONE SETTING UP THE RUN .....
 CPU     0: STEP CPU TIME=     0.02 TOTAL CPU TIME=          0.0 (      0.0 MIN)
 TOTAL WALL CLOCK TIME=          0.0 SECONDS, CPU UTILIZATION IS    50.00%

          ********************
          1 ELECTRON INTEGRALS
          ********************
 ...... END OF ONE-ELECTRON INTEGRALS ......
 CPU     0: STEP CPU TIME=     0.01 TOTAL CPU TIME=          0.0 (      0.0 MIN)
 TOTAL WALL CLOCK TIME=          0.0 SECONDS, CPU UTILIZATION IS    75.00%

          -------------
          GUESS OPTIONS
          -------------
          GUESS =HUCKEL            NORB  =       0          NORDER=       0
          MIX   =       F          PRTMO =       F          PUNMO =       F
          TOLZ  = 1.0E-08          TOLE  = 1.0E-05
          SYMDEN=       F          PURIFY=       F

 INITIAL GUESS ORBITALS GENERATED BY HUCKEL   ROUTINE.
 HUCKEL GUESS REQUIRES     67450 WORDS.

 SYMMETRIES FOR INITIAL GUESS ORBITALS FOLLOW.  ALPHA SET(S).
    25 ORBITALS ARE OCCUPIED (    6 CORE ORBITALS).
     7=A        8=A        9=A       10=A       11=A       12=A       13=A   
    14=A       15=A       16=A       17=A       18=A       19=A       20=A   
    21=A       22=A       23=A       24=A       25=A       26=A       27=A   
    28=A       29=A       30=A       31=A       32=A       33=A       34=A   
    35=A   

 SYMMETRIES FOR INITIAL GUESS ORBITALS FOLLOW.   BETA SET(S).
    24 ORBITALS ARE OCCUPIED (    6 CORE ORBITALS).
     7=A        8=A        9=A       10=A       11=A       12=A       13=A   
    14=A       15=A       16=A       17=A       18=A       19=A       20=A   
    21=A       22=A       23=A       24=A       25=A       26=A       27=A   
    28=A       29=A       30=A       31=A       32=A       33=A       34=A   
 ...... END OF INITIAL ORBITAL SELECTION ......
 CPU     0: STEP CPU TIME=     0.01 TOTAL CPU TIME=          0.0 (      0.0 MIN)
 TOTAL WALL CLOCK TIME=          0.1 SECONDS, CPU UTILIZATION IS    66.67%

                    ----------------------
                    AO INTEGRAL TECHNOLOGY
                    ----------------------
     S,P,L SHELL ROTATED AXIS INTEGRALS, REPROGRAMMED BY
        KAZUYA ISHIMURA (IMS) AND JOSE SIERRA (SYNSTAR).
     S,P,D,L SHELL ROTATED AXIS INTEGRALS PROGRAMMED BY
        KAZUYA ISHIMURA (INSTITUTE FOR MOLECULAR SCIENCE).
     S,P,D,F,G SHELL TO TOTAL QUARTET ANGULAR MOMENTUM SUM 5,
        ERIC PROGRAM BY GRAHAM FLETCHER (ELORET AND NASA ADVANCED
        SUPERCOMPUTING DIVISION, AMES RESEARCH CENTER).
     S,P,D,F,G,L SHELL GENERAL RYS QUADRATURE PROGRAMMED BY
        MICHEL DUPUIS (PACIFIC NORTHWEST NATIONAL LABORATORY).

          --------------------
          2 ELECTRON INTEGRALS
          --------------------

 DIRECT SCF METHOD SKIPS INTEGRAL STORAGE ON DISK.
 DIRECT TRANSFORMATION SKIPS AO INTEGRAL STORAGE ON DISK.
  ...... END OF TWO-ELECTRON INTEGRALS .....
 CPU     0: STEP CPU TIME=     0.02 TOTAL CPU TIME=          0.1 (      0.0 MIN)
 TOTAL WALL CLOCK TIME=          0.1 SECONDS, CPU UTILIZATION IS    75.00%

          ---------------------------
                  UHF SCF CALCULATION
          ---------------------------

     NUCLEAR ENERGY =       243.2305611184
     MAXIT = 60     NPUNCH=  2     MULT=  2
     EXTRAP=T  DAMP=F  SHIFT=F  RSTRCT=F  DIIS=F  SOSCF=T
     DENSITY MATRIX CONV=  2.00E-05
     SOSCF WILL OPTIMIZE    1375 ALPHA AND    1344 BETA ROTATION ANGLES.
     SOGTOL= 2.500E-01
     MEMORY REQUIRED FOR UHF/ROHF ITERS=    130649 WORDS.

 DIRECT SCF CALCULATION, SCHWRZ=T   FDIFF=T
 SCHWARZ INEQUALITY OVERHEAD:      3063 INTEGRALS, T=        0.00

                                                                                NONZERO     BLOCKS
 ITER EX      TOTAL ENERGY        E CHANGE  DENSITY CHANGE    ORB. GRAD       INTEGRALS    SKIPPED
   1  0     -249.0158325950  -249.0158325950   0.642422079   0.000000000        3506148     193403
          ---------------START SECOND ORDER SCF---------------
   2  1     -249.6143616731    -0.5985290781   0.135302257   0.036567881        3487117     201014
   3  2     -249.6609374452    -0.0465757721   0.085126624   0.028009005        3449684     212504
   4  3     -249.6734670249    -0.0125295797   0.037334468   0.013325461        3412955     221680
   5  4     -249.6770650407    -0.0035980158   0.016347689   0.005258906        3385123     228621
   6  5     -249.6776181465    -0.0005531058   0.009373034   0.002744025        3306844     239954
   7  6     -249.6777612892    -0.0001431427   0.001438089   0.000883952        3259431     244963
   8  7     -249.6777776511    -0.0000163619   0.001549960   0.000356362        3081150     267602
   9  8     -249.6777824866    -0.0000048356   0.000399642   0.000075542        3053559     270129
  10  9     -249.6777828055    -0.0000003189   0.000110686   0.000034358        2926905     285168
  11 10     -249.6777828613    -0.0000000558   0.000070712   0.000015333        2793536     297486
  12 11     -249.6777828690    -0.0000000076   0.000034149   0.000004506        2625915     312720
  13 12     -249.6777828715    -0.0000000025   0.000015219   0.000001845        2532147     322359
  14 13     -249.6777828726    -0.0000000011   0.000008557   0.000000950        2397904     333954

          -----------------
          DENSITY CONVERGED
          -----------------
     TIME TO FORM FOCK OPERATORS=       0.7 SECONDS (       0.1 SEC/ITER)
     FOCK TIME ON FIRST ITERATION=       0.1, LAST ITERATION=       0.0
     TIME TO SOLVE SCF EQUATIONS=       0.0 SECONDS (       0.0 SEC/ITER)

 FINAL UHF ENERGY IS     -249.6777828726 AFTER  14 ITERATIONS

          --------------------
          SPIN SZ   =    0.500
          S-SQUARED =    0.761
          --------------------

  ----- ALPHA SET ----- 

          ------------
          EIGENVECTORS
          ------------

                      1          2          3          4          5
                  -15.8940   -11.4386   -11.3502   -11.3113   -11.2841
                     A          A          A          A          A   
    1  C  1  S    0.000004  -0.000135  -0.000998  -0.002723  -0.003946
    2  C  1  S   -0.000021  -0.000233  -0.000991  -0.001202  -0.002749
    3  C  1  X    0.000168   0.000018   0.000397   0.000788  -0.000546
    4  C  1  Y   -0.000017   0.000033  -0.000085  -0.000035  -0.000146
    5  C  1  Z   -0.000016   0.000027  -0.000096  -0.000036  -0.000154
    6  C  1  S   -0.000677   0.001552   0.002701   0.001397   0.021536
    7  C  1  X   -0.000138  -0.000618  -0.002935  -0.000511  -0.010164
    8  C  1  Y    0.000269  -0.000794   0.000388   0.000266  -0.004654
    9  C  1  Z    0.000339  -0.000748   0.000403   0.000263  -0.004878
   10  H  2  S   -0.000024  -0.000086  -0.000415   0.000038  -0.001348
   11  H  2  S   -0.000039   0.000270  -0.000165  -0.001158   0.000445
   12  C  3  S   -0.000046  -0.000680  -0.001650  -0.004487   0.987979
   13  C  3  S   -0.000266  -0.000990  -0.000623  -0.002871   0.104470
   14  C  3  X   -0.000137   0.000463   0.000650  -0.000550  -0.000235
   15  C  3  Y   -0.000066   0.000089   0.000180  -0.000009   0.000186
   16  C  3  Z   -0.000039   0.000120   0.000172  -0.000004   0.000209
   17  C  3  S    0.002145   0.003053  -0.000851   0.021391  -0.092168
   18  C  3  X   -0.000265  -0.004099  -0.000391  -0.011699   0.001422
   19  C  3  Y    0.001025  -0.000335  -0.001362   0.004086  -0.004479
   20  C  3  Z    0.000790  -0.000618  -0.001257   0.004361  -0.004816
   21  C  4  S   -0.000111  -0.001074  -0.003438   0.987989   0.003594
   22  C  4  S   -0.000703  -0.000802  -0.002921   0.104566  -0.002106
   23  C  4  X    0.000597   0.000862  -0.000291  -0.000364   0.000295
   24  C  4  Y   -0.000032  -0.000170   0.000041  -0.000216   0.000088
   25  C  4  Z   -0.000138  -0.000260   0.000090  -0.000222   0.000085
   26  C  4  S    0.001697  -0.000557   0.022889  -0.092645   0.022372
   27  C  4  X   -0.004174  -0.001884  -0.011508   0.000222   0.011835
   28  C  4  Y    0.000156   0.001425  -0.005337   0.004567  -0.004909
   29  C  4  Z    0.000667   0.002123  -0.005948   0.004922  -0.005193
   30  C  5  S    0.000140  -0.001918   0.988005   0.002522   0.001691
   31  C  5  S    0.000372  -0.002897   0.104778  -0.002218  -0.000298
   32  C  5  X    0.000633  -0.000071  -0.000605   0.000401  -0.000685
   33  C  5  Y    0.000080  -0.000125   0.000225  -0.000045   0.000146
   34  C  5  Z    0.000121  -0.000023   0.000300  -0.000079   0.000175
   35  C  5  S   -0.005216   0.023263  -0.093724   0.022223  -0.001334
   36  C  5  X    0.001469  -0.013075   0.000611   0.010770   0.000726
   37  C  5  Y   -0.001431   0.005474  -0.004921   0.005388  -0.001411
   38  C  5  Z   -0.001411   0.005039  -0.005258   0.005901  -0.001640
   39  C  6  S   -0.000655   0.987817   0.000987   0.001051   0.000432
   40  C  6  S   -0.002881   0.102656  -0.002510  -0.000606  -0.000878
   41  C  6  X   -0.001020  -0.000164   0.000549  -0.000626  -0.000364
   42  C  6  Y   -0.000468  -0.000073   0.000034  -0.000134  -0.000068
   43  C  6  Z   -0.000426  -0.000324  -0.000008  -0.000106  -0.000066
   44  C  6  S    0.020763  -0.084815   0.022802  -0.000194   0.002860
   45  C  6  X   -0.007793  -0.006773   0.011359   0.000157   0.003269
   46  C  6  Y   -0.005125   0.001421  -0.004395   0.001195   0.000380
   47  C  6  Z   -0.005998   0.004353  -0.005153   0.001218   0.000458
   48  N  7  S    0.985552  -0.000214   0.000041  -0.000050  -0.000021
   49  N  7  S    0.101080  -0.000917  -0.000141  -0.000504  -0.000181
   50  N  7  X    0.000292   0.000022  -0.000543  -0.000422  -0.000022
   51  N  7  Y    0.000028  -0.000082   0.000141   0.000049  -0.000077
   52  N  7  Z    0.001797   0.000162  -0.000079   0.000058  -0.000048
   53  N  7  S   -0.056908   0.011156  -0.001272   0.001335   0.000945
   54  N  7  X   -0.004133   0.005809  -0.000079   0.002173   0.000248
   55  N  7  Y   -0.001544   0.002809  -0.000851  -0.000205   0.000525
   56  N  7  Z   -0.008356   0.002296   0.000083  -0.000100   0.000443
   57  H  8  S   -0.000039  -0.000442   0.000060  -0.001332   0.001029
   58  H  8  S    0.000031  -0.000203  -0.001110   0.000587   0.014485
   59  H  9  S   -0.000055  -0.000406   0.000085  -0.001334   0.001035
   60  H  9  S    0.000322  -0.000074  -0.001348   0.000618   0.014517
   61  H 10  S   -0.000456  -0.000083  -0.001297   0.001018  -0.001299
   62  H 10  S   -0.000090  -0.001614   0.000747   0.014594   0.000840
   63  H 11  S   -0.000365  -0.000005  -0.001345   0.001038  -0.001294
   64  H 11  S    0.000121  -0.001305   0.000642   0.014602   0.000891
   65  H 12  S    0.000038  -0.001568   0.001082  -0.001307   0.000057
   66  H 12  S    0.000081   0.000991   0.014552   0.000971  -0.001270
   67  H 13  S    0.000469  -0.001299   0.001060  -0.001322   0.000055
   68  H 13  S   -0.001140   0.001183   0.014519   0.000839  -0.001235
   69  H 14  S   -0.001248   0.000582  -0.001357  -0.000004  -0.000442
   70  H 14  S   -0.000672   0.014019   0.000719  -0.001172  -0.000046
   71  H 15  S   -0.001339   0.000901  -0.001408   0.000010  -0.000402
   72  H 15  S   -0.000988   0.015525   0.000643  -0.001211  -0.000020
   73  H 16  S    0.002064  -0.000711  -0.000064  -0.000404  -0.000021
   74  H 16  S    0.007434   0.002334  -0.000983   0.000533   0.000288
   75  H 17  S    0.002103  -0.000526   0.000046   0.000284  -0.000169
   76  H 17  S    0.007425   0.001523   0.001388   0.000653   0.000217
   77  H 18  S    0.000054  -0.000157   0.000057  -0.000268  -0.001047
   78  H 18  S    0.000360   0.000011   0.001139   0.001364   0.000040
   79  H 19  S   -0.000016  -0.000073  -0.000409   0.000039  -0.001348
   80  H 19  S   -0.000022   0.000304  -0.000178  -0.001177   0.000464

                      6          7          8          9         10
                  -11.2568    -1.5568    -1.2532    -1.1708    -1.0865
                     A          A          A          A          A   
    1  C  1  S    0.987514  -0.000007  -0.018110  -0.085196  -0.117688
    2  C  1  S    0.101644   0.000175   0.021001   0.085579   0.111919
    3  C  1  X   -0.000315  -0.000417  -0.013005  -0.037319  -0.017059
    4  C  1  Y    0.000046   0.000000  -0.003678  -0.014287  -0.011309
    5  C  1  Z    0.000049   0.000004  -0.003833  -0.014967  -0.011938
    6  C  1  S   -0.080296   0.000935   0.028957   0.200560   0.329079
    7  C  1  X    0.004395   0.000645   0.007013  -0.002096  -0.007284
    8  C  1  Y    0.001431  -0.000086   0.001628   0.000010  -0.002564
    9  C  1  Z    0.001520  -0.000185   0.001723  -0.000047  -0.002576
   10  H  2  S    0.000321   0.000075   0.008789   0.040412   0.060986
   11  H  2  S    0.014340  -0.000156  -0.000158   0.000034   0.003190
   12  C  3  S    0.003189  -0.000002  -0.047683  -0.132746  -0.072989
   13  C  3  S   -0.001517   0.001690   0.048678   0.125089   0.066618
   14  C  3  X    0.000050  -0.000303  -0.024060  -0.010883   0.069777
   15  C  3  Y   -0.000049   0.000117   0.007909   0.020754   0.010610
   16  C  3  Z   -0.000055   0.000086   0.008564   0.022193   0.010936
   17  C  3  S    0.017607  -0.009873   0.101846   0.345654   0.214450
   18  C  3  X    0.009849   0.005020   0.008313  -0.008509   0.004265
   19  C  3  Y    0.004680  -0.003100   0.002401   0.006698   0.004699
   20  C  3  Z    0.004927  -0.002826   0.002448   0.007532   0.004636
   21  C  4  S    0.002628  -0.001923  -0.095395  -0.105375   0.065030
   22  C  4  S   -0.000608   0.003938   0.094557   0.098801  -0.055499
   23  C  4  X   -0.001023  -0.004501  -0.030268   0.051431   0.067765
   24  C  4  Y   -0.000299  -0.000253  -0.017695  -0.013186   0.010456
   25  C  4  Z   -0.000315  -0.000101  -0.018507  -0.014035   0.010310
   26  C  4  S   -0.000387   0.002206   0.217220   0.284295  -0.207929
   27  C  4  X    0.003302   0.014889   0.002388  -0.014672   0.009600
   28  C  4  Y    0.002053  -0.002766  -0.002819  -0.006351   0.003903
   29  C  4  Z    0.002184  -0.003869  -0.002575  -0.006962   0.005079
   30  C  5  S    0.000746  -0.015935  -0.142467   0.008038   0.097539
   31  C  5  S   -0.000881   0.016206   0.137781  -0.005879  -0.085254
   32  C  5  X   -0.000353  -0.017572  -0.017217   0.080578  -0.056816
   33  C  5  Y    0.000038   0.002427   0.024310  -0.001484   0.007989
   34  C  5  Z    0.000034   0.002722   0.026774  -0.001236   0.005546
   35  C  5  S    0.003955   0.030874   0.354479  -0.029192  -0.326529
   36  C  5  X    0.003735  -0.003928  -0.005541  -0.007933   0.006213
   37  C  5  Y    0.000337  -0.000683   0.006222  -0.002511   0.002063
   38  C  5  Z    0.000405  -0.001017   0.007484  -0.000608  -0.003748
   39  C  6  S    0.000090  -0.070091  -0.122390   0.103634  -0.090126
   40  C  6  S   -0.000157   0.075827   0.119499  -0.094172   0.079788
   41  C  6  X   -0.000058  -0.049686   0.061657   0.000341  -0.079115
   42  C  6  Y    0.000010  -0.027344  -0.008218  -0.003676   0.037207
   43  C  6  Z    0.000031  -0.032135  -0.013044   0.002532   0.022188
   44  C  6  S    0.000848   0.088962   0.331356  -0.329867   0.321805
   45  C  6  X    0.000506   0.019868   0.004813  -0.009315  -0.020309
   46  C  6  Y   -0.000346   0.011139  -0.005018   0.001506   0.017230
   47  C  6  Z   -0.000511   0.013075  -0.004601   0.000935   0.014390
   48  N  7  S   -0.000003  -0.225033   0.049157  -0.031030   0.018810
   49  N  7  S   -0.000057   0.217592  -0.043768   0.028538  -0.018588
   50  N  7  X   -0.000097   0.001193   0.101398  -0.107264   0.097274
   51  N  7  Y    0.000022  -0.003142   0.039133  -0.056271   0.126051
   52  N  7  Z    0.000014   0.026560   0.024829  -0.038959   0.074894
   53  N  7  S   -0.000023   0.718457  -0.207822   0.139269  -0.091573
   54  N  7  X    0.000300   0.009938   0.061395  -0.079963   0.078098
   55  N  7  Y   -0.000116  -0.000051   0.024845  -0.042544   0.108266
   56  N  7  Z   -0.000056   0.058198   0.003500  -0.021771   0.059347
   57  H  8  S   -0.001105   0.000492   0.021696   0.061832   0.036981
   58  H  8  S    0.000990  -0.000243  -0.001077  -0.003086   0.000150
   59  H  9  S   -0.001108   0.000503   0.021689   0.061869   0.036989
   60  H  9  S    0.000996  -0.000696  -0.000823  -0.003071   0.000306
   61  H 10  S   -0.000220   0.001862   0.043549   0.050910  -0.032059
   62  H 10  S   -0.001285   0.000739  -0.002774  -0.001143   0.001135
   63  H 11  S   -0.000230   0.001745   0.043307   0.050691  -0.031517
   64  H 11  S   -0.001247   0.000272  -0.003089  -0.001629   0.002069
   65  H 12  S   -0.000358   0.005923   0.065554  -0.003455  -0.057539
   66  H 12  S   -0.000035  -0.001212  -0.007780   0.003903  -0.008557
   67  H 13  S   -0.000393   0.005021   0.065204  -0.001772  -0.060314
   68  H 13  S   -0.000040   0.001406  -0.006336   0.003327  -0.009734
   69  H 14  S   -0.000071   0.023096   0.065435  -0.060077   0.065287
   70  H 14  S    0.000298  -0.006109  -0.001843  -0.001932   0.010908
   71  H 15  S   -0.000083   0.024038   0.063366  -0.059932   0.071557
   72  H 15  S    0.000207  -0.005316  -0.004327  -0.000876   0.013021
   73  H 16  S   -0.000081   0.095185  -0.041626   0.043379  -0.073751
   74  H 16  S    0.000073  -0.009380  -0.011947   0.014725  -0.031153
   75  H 17  S    0.000073   0.094600  -0.053253   0.045484  -0.018306
   76  H 17  S    0.000150  -0.008772  -0.016845   0.014663  -0.009026
   77  H 18  S    0.000179   0.000037   0.007010   0.037032   0.062233
   78  H 18  S    0.013578  -0.001077  -0.004802  -0.003484   0.006940
   79  H 19  S    0.000326   0.000059   0.008752   0.040343   0.060982
   80  H 19  S    0.014342  -0.000176  -0.000130  -0.000073   0.003155

                     11         12         13         14         15
                   -1.0249    -0.9812    -0.9516    -0.9185    -0.8738
                     A          A          A          A          A   
    1  C  1  S    0.070494  -0.085643   0.060015   0.074633  -0.021780
    2  C  1  S   -0.065178   0.077348  -0.053979  -0.066812   0.019159
    3  C  1  X   -0.008986   0.031081  -0.030777  -0.048449   0.021306
    4  C  1  Y    0.000861   0.008075  -0.015172  -0.044720   0.020676
    5  C  1  Z    0.000835   0.008071  -0.016821  -0.046620   0.023878
    6  C  1  S   -0.218555   0.285830  -0.208652  -0.274479   0.086605
    7  C  1  X    0.000474   0.003527  -0.004461  -0.004884   0.004970
    8  C  1  Y    0.001634   0.000281  -0.004769  -0.018989   0.009223
    9  C  1  Z    0.001987   0.000121  -0.005363  -0.019916   0.011223
   10  H  2  S   -0.040274   0.053751  -0.043555  -0.066928   0.025113
   11  H  2  S   -0.005487   0.011200  -0.013234  -0.028107   0.012796
   12  C  3  S    0.002428   0.033685  -0.051177  -0.112380   0.040951
   13  C  3  S   -0.002466  -0.028419   0.043963   0.096620  -0.034245
   14  C  3  X   -0.057705   0.068618  -0.037244  -0.007047  -0.019232
   15  C  3  Y    0.000494   0.001837  -0.015910  -0.073144   0.025155
   16  C  3  Z    0.000266  -0.000152  -0.020526  -0.074876   0.033846
   17  C  3  S   -0.007309  -0.120235   0.186652   0.428492  -0.164781
   18  C  3  X   -0.008165   0.014355  -0.014770  -0.014899  -0.007441
   19  C  3  Y    0.001933  -0.003098  -0.004542  -0.032878   0.011367
   20  C  3  Z    0.000701  -0.004545  -0.007166  -0.032961   0.015483
   21  C  4  S   -0.072293   0.076131  -0.008262   0.083788  -0.030230
   22  C  4  S    0.062891  -0.066997   0.007042  -0.070252   0.024561
   23  C  4  X    0.002797  -0.053557   0.055414   0.050168  -0.000716
   24  C  4  Y    0.012801  -0.022194  -0.002743  -0.085186  -0.003657
   25  C  4  Z    0.010209  -0.031746  -0.019223  -0.081201   0.015940
   26  C  4  S    0.247871  -0.267305   0.025118  -0.342025   0.120403
   27  C  4  X   -0.007131  -0.007562   0.020032   0.027065   0.008883
   28  C  4  Y    0.001194  -0.009847  -0.002491  -0.044311  -0.006888
   29  C  4  Z    0.001801  -0.015149  -0.011508  -0.040813   0.008881
   30  C  5  S    0.037423  -0.099724   0.025128  -0.038197  -0.018457
   31  C  5  S   -0.034107   0.082311  -0.019820   0.030642   0.014208
   32  C  5  X    0.063965  -0.025239  -0.010112  -0.018425   0.048508
   33  C  5  Y    0.039601  -0.030742   0.006595  -0.078037  -0.079328
   34  C  5  Z    0.025489  -0.065586  -0.051234  -0.051596  -0.032431
   35  C  5  S   -0.141862   0.387812  -0.088043   0.173176   0.097181
   36  C  5  X    0.025259  -0.033192  -0.010836  -0.005223   0.006774
   37  C  5  Y    0.018698  -0.014863  -0.000510  -0.042527  -0.042442
   38  C  5  Z    0.010532  -0.029659  -0.033967  -0.028572  -0.020870
   39  C  6  S   -0.012753   0.038239   0.020664  -0.000199   0.046536
   40  C  6  S    0.012411  -0.031351  -0.017231   0.000031  -0.036753
   41  C  6  X   -0.054558   0.067583  -0.068601  -0.006810  -0.164339
   42  C  6  Y    0.096298   0.020008   0.003574  -0.044638  -0.171389
   43  C  6  Z    0.034095  -0.088006  -0.174429   0.034741  -0.083382
   44  C  6  S    0.055212  -0.163573  -0.106316  -0.013759  -0.287320
   45  C  6  X   -0.030791   0.018114  -0.015007  -0.017614  -0.078397
   46  C  6  Y    0.062424   0.022368   0.019985  -0.037055  -0.113416
   47  C  6  Z    0.021037  -0.058163  -0.104868   0.027926  -0.012335
   48  N  7  S    0.002077  -0.012063  -0.039949   0.018554  -0.003884
   49  N  7  S   -0.002960   0.017067   0.045148  -0.022656  -0.012822
   50  N  7  X   -0.181665  -0.140676   0.268076  -0.080811   0.160122
   51  N  7  Y    0.296050   0.193474   0.145171   0.002398   0.129468
   52  N  7  Z    0.052520  -0.134912  -0.245262   0.161653   0.332586
   53  N  7  S   -0.009489   0.051832   0.175557  -0.079630   0.055162
   54  N  7  X   -0.169327  -0.129076   0.271206  -0.079122   0.190036
   55  N  7  Y    0.272614   0.182322   0.145420   0.000020   0.142717
   56  N  7  Z    0.048708  -0.128849  -0.233019   0.159085   0.360166
   57  H  8  S   -0.002341  -0.018227   0.039746   0.102729  -0.042803
   58  H  8  S   -0.001500  -0.001477   0.012027   0.041344  -0.018794
   59  H  9  S   -0.002744  -0.019468   0.037149   0.104607  -0.037884
   60  H  9  S   -0.000855  -0.001656   0.011116   0.042570  -0.015657
   61  H 10  S    0.045861  -0.060606  -0.006576  -0.089158   0.028771
   62  H 10  S    0.009079  -0.017189  -0.007430  -0.041094   0.011061
   63  H 11  S    0.047951  -0.054862   0.004395  -0.095239   0.015406
   64  H 11  S    0.010636  -0.014186  -0.001509  -0.043334   0.003940
   65  H 12  S   -0.031598   0.092299   0.013974   0.043716   0.020306
   66  H 12  S   -0.009729   0.031804   0.018727   0.018738   0.002806
   67  H 13  S   -0.041091   0.071882  -0.023945   0.065727   0.057284
   68  H 13  S   -0.019907   0.016540  -0.007353   0.037363   0.036194
   69  H 14  S    0.018144  -0.077948  -0.116025   0.024013  -0.073294
   70  H 14  S    0.008850  -0.039527  -0.067488   0.012293  -0.041845
   71  H 15  S    0.057343  -0.007991   0.000335  -0.028243  -0.129752
   72  H 15  S    0.025313  -0.001618   0.003466  -0.017349  -0.064353
   73  H 16  S   -0.157017  -0.106273  -0.077060  -0.003200  -0.065246
   74  H 16  S   -0.066174  -0.044759  -0.038483  -0.000772  -0.040139
   75  H 17  S    0.162484   0.110912  -0.106221   0.053827  -0.002767
   76  H 17  S    0.066359   0.053333  -0.051280   0.028202  -0.001962
   77  H 18  S   -0.044119   0.060355  -0.043581  -0.050873   0.015129
   78  H 18  S   -0.009314   0.017323  -0.014261  -0.018391   0.005976
   79  H 19  S   -0.040187   0.054000  -0.042945  -0.067136   0.023654
   80  H 19  S   -0.005254   0.011293  -0.012739  -0.028303   0.011912

                     16         17         18         19         20
                   -0.8140    -0.7491    -0.7258    -0.7048    -0.6892
                     A          A          A          A          A   
    1  C  1  S   -0.001733  -0.002049  -0.012996   0.009636  -0.001093
    2  C  1  S    0.001571   0.001720   0.010316  -0.006850   0.000742
    3  C  1  X    0.003821   0.010298   0.063631  -0.182564   0.024803
    4  C  1  Y    0.022370  -0.081641   0.061095   0.058370  -0.138194
    5  C  1  Z   -0.018043   0.082818   0.036917   0.088706   0.118718
    6  C  1  S    0.007006   0.009208   0.064603  -0.050497   0.006368
    7  C  1  X    0.002489   0.006821   0.038048  -0.134515   0.018213
    8  C  1  Y    0.013653  -0.057384   0.041415   0.052600  -0.111732
    9  C  1  Z   -0.011653   0.056995   0.023376   0.076253   0.093935
   10  H  2  S   -0.012580   0.063832   0.024567   0.045367   0.097151
   11  H  2  S   -0.009627   0.050225   0.016786   0.036636   0.080424
   12  C  3  S    0.002320   0.003317   0.026252  -0.014473   0.002853
   13  C  3  S   -0.001854  -0.002607  -0.019659   0.011606  -0.002222
   14  C  3  X   -0.002841  -0.006782  -0.102286  -0.047062  -0.001379
   15  C  3  Y    0.053462  -0.148902   0.020046   0.119717  -0.133055
   16  C  3  Z   -0.051686   0.133373  -0.017090   0.155946   0.098239
   17  C  3  S   -0.008685  -0.013456  -0.120047   0.042552  -0.011348
   18  C  3  X   -0.002124  -0.004464  -0.065356  -0.029207  -0.000985
   19  C  3  Y    0.036498  -0.118664   0.012120   0.092458  -0.111418
   20  C  3  Z   -0.035353   0.106743  -0.018993   0.122908   0.083069
   21  C  4  S    0.000311  -0.000088  -0.012336   0.008906  -0.002483
   22  C  4  S    0.000358   0.000379   0.008459  -0.007047   0.001447
   23  C  4  X   -0.004795  -0.007730   0.000936   0.232316  -0.019522
   24  C  4  Y    0.101678  -0.153539  -0.094053   0.047117   0.031839
   25  C  4  Z   -0.109715   0.117394  -0.121527   0.051319  -0.043952
   26  C  4  S   -0.006994  -0.005639   0.048349  -0.007072   0.011513
   27  C  4  X    0.000153  -0.002825   0.008435   0.160732  -0.015024
   28  C  4  Y    0.076646  -0.120911  -0.074306   0.024829   0.013955
   29  C  4  Z   -0.077505   0.095400  -0.096802   0.029308  -0.023875
   30  C  5  S   -0.006606  -0.002504   0.001111   0.010147  -0.000278
   31  C  5  S    0.005407   0.001672  -0.001447  -0.009871   0.000987
   32  C  5  X    0.014985   0.032453   0.252519  -0.139195   0.021358
   33  C  5  Y    0.156425  -0.029266  -0.113073  -0.116314   0.171409
   34  C  5  Z   -0.163904   0.011201  -0.099371  -0.160595  -0.151731
   35  C  5  S    0.036238   0.018902   0.041254  -0.036632   0.001784
   36  C  5  X    0.013223   0.025404   0.161344  -0.132787   0.014723
   37  C  5  Y    0.126358  -0.034484  -0.083491  -0.107129   0.179119
   38  C  5  Z   -0.125132   0.026469  -0.068867  -0.151324  -0.160324
   39  C  6  S    0.001090   0.000638   0.018411  -0.012462   0.004204
   40  C  6  S   -0.000026   0.000289  -0.018175   0.007715  -0.004443
   41  C  6  X   -0.027556  -0.028424  -0.214118   0.014370  -0.012258
   42  C  6  Y    0.157910   0.182999   0.148038   0.013795  -0.124662
   43  C  6  Z   -0.132455  -0.126363   0.183185   0.027624   0.122565
   44  C  6  S   -0.014091  -0.004670  -0.071484   0.073117  -0.018864
   45  C  6  X   -0.022579  -0.026300  -0.202744   0.002687  -0.011632
   46  C  6  Y    0.150792   0.183488   0.139841   0.005820  -0.127633
   47  C  6  Z   -0.121038  -0.126875   0.172439   0.015388   0.124194
   48  N  7  S    0.017884   0.010126  -0.011410   0.015162  -0.008689
   49  N  7  S   -0.023603  -0.011925   0.012345  -0.011043   0.007904
   50  N  7  X   -0.016088  -0.004210   0.072841  -0.064839   0.016112
   51  N  7  Y   -0.100504  -0.068820  -0.021507  -0.019053   0.033611
   52  N  7  Z    0.199836   0.096619  -0.101481  -0.025808  -0.051441
   53  N  7  S   -0.080910  -0.052637   0.058311  -0.085388   0.051948
   54  N  7  X   -0.019191  -0.007070   0.090639  -0.079352   0.021937
   55  N  7  Y   -0.111112  -0.078139  -0.017980  -0.026747   0.038934
   56  N  7  Z    0.222838   0.115791  -0.124178  -0.039691  -0.067106
   57  H  8  S    0.036145  -0.104695  -0.006033  -0.076390  -0.083465
   58  H  8  S    0.026273  -0.075091  -0.000702  -0.064114  -0.065927
   59  H  9  S   -0.038736   0.103921  -0.034221  -0.055287   0.094884
   60  H  9  S   -0.026712   0.076713  -0.021413  -0.048694   0.077280
   61  H 10  S   -0.080087   0.094867  -0.058067   0.020761  -0.029072
   62  H 10  S   -0.058132   0.073330  -0.047689   0.023970  -0.025724
   63  H 11  S    0.072215  -0.108962  -0.041890   0.018662   0.024857
   64  H 11  S    0.051051  -0.082825  -0.033833   0.022180   0.020090
   65  H 12  S    0.125794  -0.010384   0.053956   0.085493   0.134892
   66  H 12  S    0.078369  -0.010895   0.057700   0.071555   0.114885
   67  H 13  S   -0.105847   0.025787   0.077862   0.056572  -0.138692
   68  H 13  S   -0.074315   0.022292   0.073638   0.051821  -0.120053
   69  H 14  S   -0.117370  -0.122370   0.105239   0.033594   0.118508
   70  H 14  S   -0.078106  -0.092269   0.094810   0.032821   0.114073
   71  H 15  S    0.115901   0.140997   0.075370   0.019708  -0.114246
   72  H 15  S    0.071187   0.099918   0.067804   0.017209  -0.101178
   73  H 16  S    0.066605   0.051291   0.019395   0.004362  -0.028982
   74  H 16  S    0.043703   0.044829   0.028090   0.009402  -0.036590
   75  H 17  S   -0.004032  -0.012256  -0.066004   0.021545  -0.001708
   76  H 17  S   -0.004835  -0.011791  -0.057033   0.019172   0.000536
   77  H 18  S    0.002368   0.005628   0.020410  -0.145416   0.018136
   78  H 18  S    0.001118   0.003805   0.015141  -0.113331   0.014706
   79  H 19  S    0.016500  -0.058250   0.044699   0.024897  -0.103139
   80  H 19  S    0.011628  -0.046677   0.032873   0.019750  -0.084838

                     21         22         23         24         25
                   -0.6509    -0.6314    -0.5928    -0.5849    -0.5806
                     A          A          A          A          A   
    1  C  1  S    0.003813   0.000037   0.018722  -0.003303  -0.000309
    2  C  1  S   -0.002101   0.000055  -0.018157   0.005116   0.000387
    3  C  1  X    0.066068  -0.002838   0.261566   0.134917   0.003082
    4  C  1  Y   -0.142832  -0.157718   0.114998  -0.127301  -0.168744
    5  C  1  Z   -0.166325   0.134833   0.126510  -0.148524   0.146655
    6  C  1  S   -0.024212  -0.001220  -0.032697   0.012029   0.000564
    7  C  1  X    0.064124  -0.001688   0.201946   0.144766   0.004114
    8  C  1  Y   -0.117629  -0.132551   0.081461  -0.121508  -0.164827
    9  C  1  Z   -0.136786   0.113762   0.090527  -0.142108   0.143775
   10  H  2  S   -0.098659   0.116215   0.061819  -0.095072   0.142883
   11  H  2  S   -0.085023   0.105473   0.076944  -0.100688   0.148874
   12  C  3  S    0.007317  -0.000151   0.016770  -0.007029  -0.000619
   13  C  3  S   -0.006985   0.000090  -0.014207   0.009508   0.000694
   14  C  3  X    0.146745   0.009284  -0.242186  -0.152689  -0.004408
   15  C  3  Y   -0.016638  -0.011329  -0.135654   0.134895   0.196857
   16  C  3  Z   -0.023428   0.016096  -0.147801   0.158489  -0.172146
   17  C  3  S   -0.013990   0.000954  -0.080965  -0.017711   0.001346
   18  C  3  X    0.108509   0.007319  -0.214799  -0.100312  -0.002463
   19  C  3  Y   -0.009694  -0.025759  -0.137329   0.113447   0.197805
   20  C  3  Z   -0.016612   0.028719  -0.148963   0.136280  -0.174701
   21  C  4  S    0.000578   0.000379  -0.009613  -0.031384  -0.000947
   22  C  4  S   -0.006167  -0.000328   0.003123   0.025304   0.000830
   23  C  4  X    0.006606  -0.000040   0.146835   0.198274   0.006431
   24  C  4  Y    0.156223   0.189041   0.052506  -0.111088  -0.100394
   25  C  4  Z    0.180693  -0.163991   0.053654  -0.124520   0.083652
   26  C  4  S    0.046782   0.000081   0.083485   0.150248   0.003545
   27  C  4  X   -0.028385  -0.000162   0.129304   0.197816   0.006428
   28  C  4  Y    0.130040   0.197676   0.039030  -0.116862  -0.100597
   29  C  4  Z    0.152242  -0.172923   0.037636  -0.130966   0.083642
   30  C  5  S    0.011824   0.000750   0.031250   0.004856  -0.000420
   31  C  5  S   -0.013358  -0.001164  -0.023455  -0.001324   0.000335
   32  C  5  X   -0.032191   0.000061  -0.160170  -0.056894  -0.000942
   33  C  5  Y   -0.144247  -0.141470  -0.061826   0.017410   0.017711
   34  C  5  Z   -0.160167   0.123726  -0.060281   0.020807  -0.014260
   35  C  5  S   -0.029611  -0.003114  -0.165850  -0.042888   0.002262
   36  C  5  X   -0.061235  -0.001620  -0.147162  -0.051761   0.000193
   37  C  5  Y   -0.135933  -0.145321  -0.072708   0.013756   0.016053
   38  C  5  Z   -0.151935   0.129387  -0.072928   0.017203  -0.013761
   39  C  6  S    0.015385  -0.000878  -0.017698  -0.020899  -0.000348
   40  C  6  S   -0.014175   0.001080   0.012970   0.016419   0.000341
   41  C  6  X   -0.091254  -0.001311   0.059100   0.065672   0.001625
   42  C  6  Y    0.061436   0.039355  -0.025253  -0.029512   0.004880
   43  C  6  Z    0.063943  -0.032042  -0.034331  -0.033558  -0.006149
   44  C  6  S   -0.072995   0.003705   0.100717   0.111716   0.001728
   45  C  6  X   -0.087569  -0.001181   0.067028   0.062436   0.002234
   46  C  6  Y    0.063945   0.036251  -0.032838  -0.037876   0.005016
   47  C  6  Z    0.065627  -0.027562  -0.043368  -0.043878  -0.006656
   48  N  7  S    0.004411   0.001836   0.012406   0.006737   0.000388
   49  N  7  S   -0.003971  -0.000722  -0.009718  -0.004217  -0.000540
   50  N  7  X   -0.004274  -0.001770  -0.047149  -0.029365  -0.000914
   51  N  7  Y   -0.009717  -0.002143  -0.007924  -0.005870  -0.003161
   52  N  7  Z   -0.020897   0.001922   0.000781  -0.000761   0.004414
   53  N  7  S   -0.019428  -0.014388  -0.072999  -0.045390  -0.001734
   54  N  7  X    0.002462  -0.002391  -0.062856  -0.045428  -0.001405
   55  N  7  Y   -0.009738  -0.001639  -0.014610  -0.011731  -0.002724
   56  N  7  Z   -0.030864   0.005737  -0.002882  -0.003028   0.004823
   57  H  8  S    0.012328  -0.015526   0.074398  -0.101112   0.168518
   58  H  8  S    0.017655  -0.013196   0.081145  -0.115136   0.176930
   59  H  9  S    0.008294   0.013033   0.070265  -0.088034  -0.177161
   60  H  9  S    0.014340   0.010767   0.077139  -0.102309  -0.188056
   61  H 10  S    0.108188  -0.153078   0.042322  -0.061724   0.091226
   62  H 10  S    0.105493  -0.143296   0.051711  -0.086346   0.112935
   63  H 11  S    0.095488   0.160211   0.043818  -0.055348  -0.096930
   64  H 11  S    0.092946   0.148414   0.052490  -0.077040  -0.119283
   65  H 12  S    0.088857  -0.123446   0.010462  -0.023454   0.021362
   66  H 12  S    0.095849  -0.127699   0.020556  -0.037796   0.037052
   67  H 13  S    0.086358   0.127699   0.014295  -0.023027  -0.023068
   68  H 13  S    0.096928   0.138332   0.028965  -0.036698  -0.042711
   69  H 14  S    0.035478  -0.041704  -0.006311  -0.007740  -0.002313
   70  H 14  S    0.052628  -0.063184  -0.006834  -0.021358   0.005206
   71  H 15  S    0.033241   0.043745   0.002018  -0.004083   0.001757
   72  H 15  S    0.046709   0.061594   0.002587  -0.016058  -0.006122
   73  H 16  S    0.006405   0.005469  -0.001814  -0.001194   0.002000
   74  H 16  S    0.018357   0.016080  -0.000016  -0.005426   0.000613
   75  H 17  S   -0.008509  -0.000308   0.024113   0.015565  -0.000109
   76  H 17  S   -0.007688  -0.002002   0.027626   0.017025   0.000241
   77  H 18  S    0.120674   0.002551   0.080233   0.175400   0.006550
   78  H 18  S    0.102971   0.002175   0.082826   0.161994   0.005968
   79  H 19  S   -0.085991  -0.125319   0.056874  -0.081840  -0.151445
   80  H 19  S   -0.073591  -0.113610   0.071792  -0.086985  -0.157855

                     26         27         28         29         30
                    0.0006     0.0577     0.0885     0.1238     0.1390
                     A          A          A          A          A   
    1  C  1  S    0.003674   0.002748  -0.000106   0.003235  -0.005133
    2  C  1  S   -0.002140  -0.000641  -0.001663  -0.000062   0.006050
    3  C  1  X    0.006043   0.003546   0.008946  -0.008524   0.017842
    4  C  1  Y    0.000700   0.003723   0.010219  -0.019866   0.001621
    5  C  1  Z    0.001683   0.000683   0.011425   0.005000   0.000424
    6  C  1  S   -0.026778  -0.025449   0.027956  -0.054304   0.041562
    7  C  1  X    0.003797   0.012307   0.008430  -0.025936   0.097973
    8  C  1  Y    0.001093   0.009520   0.045612  -0.072634   0.033421
    9  C  1  Z    0.004064   0.000228   0.048344  -0.000220   0.032291
   10  H  2  S   -0.002664  -0.001823   0.003821  -0.002456   0.010111
   11  H  2  S    0.000691   0.005300  -0.025435  -0.025995  -0.004903
   12  C  3  S   -0.001723  -0.001699   0.000554   0.017380  -0.025940
   13  C  3  S   -0.000677   0.000968   0.003257  -0.002894   0.007346
   14  C  3  X   -0.010337  -0.012616   0.043311   0.009526   0.032701
   15  C  3  Y    0.004556   0.013945  -0.034304  -0.027718  -0.051416
   16  C  3  Z    0.005101   0.006417  -0.031133   0.037849  -0.057566
   17  C  3  S    0.034017   0.005648  -0.002426  -0.247521   0.365079
   18  C  3  X   -0.040183  -0.030634   0.177429   0.029729   0.222086
   19  C  3  Y    0.016798   0.044489  -0.167215  -0.080423  -0.189579
   20  C  3  Z    0.013521   0.024857  -0.153963   0.151430  -0.213142
   21  C  4  S    0.017483   0.010408  -0.061059   0.004817  -0.033959
   22  C  4  S   -0.007177  -0.000293   0.019328   0.004436   0.023975
   23  C  4  X    0.043998   0.014655  -0.020170  -0.008302  -0.030891
   24  C  4  Y    0.019526   0.020003   0.036940  -0.079765  -0.022703
   25  C  4  Z    0.024118  -0.003073   0.052115   0.046672  -0.036740
   26  C  4  S   -0.170095  -0.145575   0.800266  -0.150313   0.321824
   27  C  4  X    0.058031   0.047519   0.158379   0.074135   0.035243
   28  C  4  Y    0.068406   0.069791   0.177270  -0.292743  -0.068007
   29  C  4  Z    0.097992  -0.009999   0.215580   0.088514  -0.120421
   30  C  5  S   -0.018895   0.012028  -0.060781   0.027460  -0.065756
   31  C  5  S    0.012603   0.006723   0.015556  -0.005877   0.014449
   32  C  5  X   -0.005433  -0.019530  -0.014493   0.007434  -0.060497
   33  C  5  Y   -0.035780   0.063216  -0.031707  -0.051737  -0.068244
   34  C  5  Z   -0.007555   0.004200  -0.031195   0.093960  -0.066038
   35  C  5  S    0.164612  -0.238693   0.909664  -0.392793   0.950667
   36  C  5  X    0.148673   0.048372  -0.094262   0.073596  -0.251768
   37  C  5  Y   -0.121611   0.247374  -0.204589  -0.036899  -0.147809
   38  C  5  Z   -0.053975   0.093437  -0.206955   0.421847  -0.110927
   39  C  6  S   -0.019349  -0.000581  -0.118932  -0.013610   0.048233
   40  C  6  S   -0.001270  -0.005178   0.056907   0.003774  -0.011335
   41  C  6  X    0.053445   0.007280  -0.144735  -0.046820  -0.129606
   42  C  6  Y    0.050917   0.075753   0.020375  -0.210449  -0.110241
   43  C  6  Z    0.067446  -0.021394   0.073210   0.135275  -0.166020
   44  C  6  S    0.394697   0.047400   1.455399   0.078808  -0.859638
   45  C  6  X    0.219039   0.045316  -0.541014  -0.171748  -0.678856
   46  C  6  Y    0.161340   0.186045   0.267306  -0.957803  -0.449125
   47  C  6  Z    0.171520  -0.173352   0.427494   0.455993  -0.675433
   48  N  7  S   -0.126547  -0.004047   0.050407   0.013881   0.015168
   49  N  7  S    0.064324   0.005494  -0.025161  -0.007657  -0.005888
   50  N  7  X   -0.113579  -0.127395  -0.077111  -0.092645  -0.169637
   51  N  7  Y   -0.072752   0.255688  -0.009348   0.049255  -0.036644
   52  N  7  Z    0.077423   0.036901  -0.090197  -0.033506  -0.032034
   53  N  7  S    1.305379   0.016313  -0.509179  -0.152706  -0.181259
   54  N  7  X   -0.319978  -0.397742  -0.224967  -0.282078  -0.547989
   55  N  7  Y   -0.206890   0.723279  -0.074558   0.206389  -0.114582
   56  N  7  Z    0.216756   0.107304  -0.260683  -0.151119  -0.101590
   57  H  8  S    0.000650   0.000097   0.009339   0.005757   0.002813
   58  H  8  S    0.012955   0.009615  -0.090522   0.318974  -0.355596
   59  H  9  S   -0.000318   0.002091   0.007914  -0.008565   0.005262
   60  H  9  S    0.015361   0.053488  -0.126680  -0.096683  -0.327288
   61  H 10  S   -0.003272  -0.001417   0.020044  -0.000140   0.017524
   62  H 10  S   -0.015953   0.075424  -0.449148  -0.225614   0.027233
   63  H 11  S    0.001909  -0.006611   0.015833   0.012338   0.019583
   64  H 11  S    0.030689  -0.071249  -0.408735   0.457605  -0.028018
   65  H 12  S    0.018270   0.008093  -0.003349   0.049135  -0.024617
   66  H 12  S   -0.048461   0.075984  -0.457955   0.803036  -0.612155
   67  H 13  S    0.030007   0.015288  -0.015883  -0.050557  -0.016628
   68  H 13  S   -0.141290   0.386260  -0.514432  -0.237563  -0.618160
   69  H 14  S   -0.001836   0.018199  -0.027321  -0.056623   0.028047
   70  H 14  S   -0.286646   0.233819  -1.052292  -0.953955   0.967999
   71  H 15  S    0.009026  -0.037291  -0.015249   0.059647   0.035394
   72  H 15  S   -0.209360  -0.383176  -0.839640   1.195527   0.707484
   73  H 16  S   -0.074496   0.108215   0.022822   0.002358  -0.006912
   74  H 16  S   -0.907835   1.122374   0.220206   0.232682  -0.123550
   75  H 17  S   -0.078948  -0.102171  -0.021373  -0.035770  -0.058204
   76  H 17  S   -0.930422  -1.095718  -0.018612  -0.368425  -0.526808
   77  H 18  S    0.005756   0.004611  -0.008955  -0.001006  -0.016887
   78  H 18  S    0.024350   0.018227  -0.020590   0.012147  -0.149863
   79  H 19  S   -0.003084  -0.002039   0.004585   0.002883   0.009820
   80  H 19  S    0.002996  -0.009918  -0.020878   0.118080  -0.010694

                     31         32         33         34         35
                    0.1518     0.1779     0.1854     0.1990     0.2218
                     A          A          A          A          A   
    1  C  1  S   -0.047488  -0.053567  -0.013996  -0.109025  -0.000498
    2  C  1  S    0.015093   0.016254   0.004197   0.030644   0.002229
    3  C  1  X    0.048448   0.013726   0.007633  -0.001379   0.011587
    4  C  1  Y    0.034069   0.060062  -0.010185  -0.057772   0.068139
    5  C  1  Z    0.055705  -0.010298   0.060006  -0.030061  -0.081148
    6  C  1  S    0.655298   0.719587   0.193616   1.455738  -0.005713
    7  C  1  X    0.271057   0.147674   0.087044   0.026861   0.066960
    8  C  1  Y    0.187560   0.226774  -0.045609  -0.217316   0.239401
    9  C  1  Z    0.262100  -0.021943   0.213200  -0.117801  -0.291937
   10  H  2  S    0.001971   0.012184  -0.001294   0.007703   0.015637
   11  H  2  S   -0.487157  -0.143670  -0.375015  -0.457312   0.475361
   12  C  3  S   -0.094262  -0.005001   0.017709   0.003135  -0.011003
   13  C  3  S    0.019835   0.005607   0.004645  -0.013014   0.002678
   14  C  3  X   -0.051215   0.003192   0.011612   0.004967  -0.002810
   15  C  3  Y   -0.039265   0.058404  -0.015818  -0.089111   0.064890
   16  C  3  Z   -0.003470  -0.050447   0.066028  -0.052687  -0.077079
   17  C  3  S    1.314822   0.064528  -0.318292   0.154248   0.148031
   18  C  3  X   -0.177978  -0.047056   0.097313  -0.374633  -0.004566
   19  C  3  Y   -0.181004   0.172937  -0.019986  -0.383488   0.246423
   20  C  3  Z   -0.064947  -0.188576   0.222841  -0.258255  -0.241683
   21  C  4  S   -0.040099  -0.056326  -0.051082   0.014056   0.006814
   22  C  4  S   -0.003855   0.018724   0.016956   0.009520  -0.001187
   23  C  4  X   -0.022731  -0.055465  -0.034824  -0.031467  -0.004880
   24  C  4  Y    0.029998   0.091315  -0.008206  -0.071005   0.119178
   25  C  4  Z    0.088376  -0.018332   0.081725  -0.043279  -0.136538
   26  C  4  S    0.734966   0.691942   0.623420  -0.362663  -0.108859
   27  C  4  X   -0.525238  -0.194289   0.018222  -0.238052  -0.053573
   28  C  4  Y    0.232111   0.260784  -0.115521  -0.158454   0.607256
   29  C  4  Z    0.430640  -0.082280   0.191119  -0.062125  -0.705550
   30  C  5  S   -0.009172   0.074216   0.042206   0.092599   0.004815
   31  C  5  S    0.000238  -0.020790  -0.013770  -0.019318  -0.001726
   32  C  5  X   -0.060834  -0.037424  -0.059932   0.084041  -0.010491
   33  C  5  Y   -0.048172   0.157566  -0.018925  -0.102452  -0.142773
   34  C  5  Z    0.023459  -0.040170   0.175034  -0.070763   0.137702
   35  C  5  S    0.106105  -1.028854  -0.591958  -1.256829  -0.080147
   36  C  5  X   -0.438476  -0.189698  -0.288604   0.704918  -0.065234
   37  C  5  Y   -0.384122   0.779862  -0.057861  -0.489128  -0.844304
   38  C  5  Z   -0.125897  -0.168914   0.923488  -0.318699   0.818320
   39  C  6  S    0.086221  -0.020270  -0.007201  -0.107516  -0.003972
   40  C  6  S   -0.045058   0.002841   0.000664   0.041269   0.002115
   41  C  6  X    0.094660  -0.084030  -0.108824   0.039403  -0.008290
   42  C  6  Y    0.046672  -0.093488   0.100710  -0.038187   0.025820
   43  C  6  Z    0.111261   0.024424  -0.128105  -0.115763   0.004185
   44  C  6  S   -0.937383   0.176291   0.001248   1.457550   0.056134
   45  C  6  X    0.405636  -0.353205  -0.648916   0.617398  -0.030388
   46  C  6  Y    0.255167  -0.585419   0.493535  -0.203568   0.243591
   47  C  6  Z    0.518210   0.111260  -0.719640  -0.594558  -0.106078
   48  N  7  S   -0.038649   0.006382   0.017247   0.027015   0.005482
   49  N  7  S    0.010746  -0.001515  -0.009777  -0.017689  -0.008733
   50  N  7  X    0.098681  -0.089802  -0.068480  -0.059487  -0.002760
   51  N  7  Y    0.090534  -0.071878  -0.103414  -0.015641   0.002968
   52  N  7  Z    0.068164  -0.040990   0.007157  -0.003943   0.023346
   53  N  7  S    0.470783  -0.082210  -0.215964  -0.259714  -0.039566
   54  N  7  X    0.424442  -0.256825  -0.242827  -0.248532   0.001660
   55  N  7  Y    0.300403  -0.198930  -0.354160  -0.056350   0.016424
   56  N  7  Z    0.210061  -0.151759  -0.071295  -0.025693   0.013794
   57  H  8  S    0.011162  -0.011407   0.021608  -0.031335  -0.066942
   58  H  8  S   -0.437399  -0.338287   0.469941  -0.264728  -0.636215
   59  H  9  S    0.003103   0.013029   0.000206  -0.043598   0.064150
   60  H  9  S   -0.660652   0.305336   0.005825  -0.515944   0.475601
   61  H 10  S   -0.036101   0.044331  -0.044007   0.033321   0.011185
   62  H 10  S   -0.735917  -0.006568  -0.730534   0.244391   0.929815
   63  H 11  S   -0.017020  -0.034806   0.041365   0.056357  -0.004376
   64  H 11  S   -0.395958  -0.802834  -0.027422   0.469632  -0.718273
   65  H 12  S    0.030728  -0.013165   0.019582  -0.025579   0.039709
   66  H 12  S    0.113878  -0.000637   1.235607   0.174879   1.085214
   67  H 13  S   -0.002126   0.030200   0.008185  -0.026535  -0.037194
   68  H 13  S   -0.366306   1.338307   0.066935  -0.092107  -0.977273
   69  H 14  S   -0.011211  -0.019826   0.026193   0.029070  -0.041377
   70  H 14  S   -0.055670  -0.360808   0.782160   0.036639  -0.005779
   71  H 15  S   -0.010887   0.030491  -0.027311   0.018892   0.027914
   72  H 15  S    0.317023   0.483394  -0.762085  -0.420180  -0.172071
   73  H 16  S    0.018193  -0.070880  -0.010156  -0.009472   0.029483
   74  H 16  S    0.237236  -0.347067  -0.332927   0.027094   0.079144
   75  H 17  S    0.017254   0.000811  -0.019022   0.032643  -0.008871
   76  H 17  S    0.034993  -0.114768  -0.026294  -0.003554  -0.009875
   77  H 18  S   -0.003254  -0.012352  -0.006400  -0.018829  -0.003932
   78  H 18  S   -0.286998  -0.321154  -0.064718  -0.781206  -0.101378
   79  H 19  S    0.004745  -0.000185   0.006266   0.014331  -0.010995
   80  H 19  S   -0.374352  -0.581120   0.039978  -0.270712  -0.397295

                     36         37         38         39         40
                    0.2272     0.2533     0.2544     0.2613     0.2725
                     A          A          A          A          A   
    1  C  1  S   -0.040918   0.048196  -0.025464   0.083708   0.002538
    2  C  1  S   -0.007084  -0.007773   0.004943  -0.027806  -0.000422
    3  C  1  X   -0.090486   0.033194  -0.012444  -0.096469  -0.004124
    4  C  1  Y    0.078886  -0.116583  -0.010509   0.005953  -0.173339
    5  C  1  Z    0.069367  -0.057541   0.111902   0.006862   0.163220
    6  C  1  S    0.688345  -0.742683   0.391170  -1.090780  -0.039162
    7  C  1  X   -0.568723   0.312765  -0.134297  -0.553851  -0.012385
    8  C  1  Y    0.325372  -0.552864   0.050971   0.191855  -1.015316
    9  C  1  Z    0.294074  -0.365438   0.485713   0.196085   0.957386
   10  H  2  S   -0.024354   0.008357  -0.073831  -0.008176  -0.041720
   11  H  2  S   -0.566087   0.514159  -0.887564   0.312741  -1.252155
   12  C  3  S    0.078011   0.035447  -0.025832  -0.082178  -0.001065
   13  C  3  S   -0.021312  -0.016094   0.010943   0.023025  -0.000176
   14  C  3  X    0.004901   0.063610  -0.039198   0.047191  -0.001443
   15  C  3  Y    0.040614  -0.075037  -0.122144  -0.093612   0.123515
   16  C  3  Z    0.039305   0.074395   0.122750  -0.090786  -0.117308
   17  C  3  S   -0.996749  -0.411306   0.301940   1.180294   0.020369
   18  C  3  X   -0.163692   0.262018  -0.142366   0.207744  -0.007602
   19  C  3  Y   -0.087838  -0.338330  -0.681806  -0.652071   0.770166
   20  C  3  Z   -0.088760   0.472956   0.634381  -0.649546  -0.727985
   21  C  4  S   -0.020390  -0.104994   0.063353   0.002957  -0.001642
   22  C  4  S    0.007496   0.031743  -0.019306   0.002006   0.000022
   23  C  4  X    0.047692   0.016350  -0.014839   0.015478  -0.003820
   24  C  4  Y    0.100805   0.090693   0.118424   0.024793   0.000669
   25  C  4  Z    0.070326  -0.058029  -0.125326   0.023650  -0.001664
   26  C  4  S    0.306763   1.437601  -0.865753  -0.003175   0.027535
   27  C  4  X    0.431735  -0.118306   0.024403   0.460829  -0.026788
   28  C  4  Y    0.665016   0.550954   0.690627   0.286361  -0.046031
   29  C  4  Z    0.494998  -0.350540  -0.778846   0.286660   0.048438
   30  C  5  S   -0.015515   0.059021  -0.035460   0.042509   0.002128
   31  C  5  S    0.012625  -0.006169   0.003012  -0.015227   0.000020
   32  C  5  X    0.133292   0.043972  -0.034719   0.119774   0.002119
   33  C  5  Y   -0.057085  -0.060660   0.029544   0.039649  -0.000931
   34  C  5  Z   -0.022150  -0.046656   0.048710   0.042827  -0.006686
   35  C  5  S    0.247377  -0.875397   0.513961  -0.563568  -0.033175
   36  C  5  X    1.066082   0.134341  -0.155427   0.655858   0.004334
   37  C  5  Y   -0.288108  -0.457271   0.109169   0.282617  -0.065235
   38  C  5  Z   -0.077865  -0.296066   0.378191   0.319870   0.011203
   39  C  6  S   -0.012028  -0.007150   0.007348  -0.035982  -0.000954
   40  C  6  S   -0.005772  -0.003153   0.001213   0.009206  -0.000015
   41  C  6  X    0.096685   0.109085  -0.076078   0.006780   0.002240
   42  C  6  Y   -0.077621  -0.020186   0.015332  -0.016995  -0.012684
   43  C  6  Z   -0.085573  -0.025638   0.023948  -0.037822   0.012309
   44  C  6  S    0.254644   0.161972  -0.147126   0.480016   0.016015
   45  C  6  X    0.502877   0.600882  -0.408211   0.124954   0.031204
   46  C  6  Y   -0.476623  -0.202634   0.083672  -0.274708  -0.051257
   47  C  6  Z   -0.532970  -0.153732   0.190377  -0.383640   0.043474
   48  N  7  S    0.005680  -0.009909   0.003318   0.009457   0.000271
   49  N  7  S    0.008078   0.002698   0.000336   0.002652  -0.001297
   50  N  7  X    0.018259  -0.003316  -0.000694  -0.004733  -0.001841
   51  N  7  Y    0.021236   0.024873  -0.022163  -0.035211   0.004446
   52  N  7  Z    0.004221   0.038309  -0.028952  -0.006018   0.001355
   53  N  7  S   -0.128580   0.145317  -0.058212  -0.164175   0.003246
   54  N  7  X   -0.096659   0.033567  -0.013365  -0.129736   0.001273
   55  N  7  Y    0.086687   0.091235  -0.064677  -0.087274   0.020979
   56  N  7  Z    0.033317   0.097016  -0.067593  -0.042597  -0.002185
   57  H  8  S   -0.002893  -0.008124   0.035657  -0.029066  -0.005958
   58  H  8  S    0.442599   0.692888   0.750059  -1.004045  -0.872694
   59  H  9  S    0.012398  -0.030391  -0.007442  -0.030637   0.004731
   60  H  9  S    0.494211  -0.332475  -0.938165  -1.060347   0.855067
   61  H 10  S   -0.012642   0.012180   0.031139  -0.014085   0.047793
   62  H 10  S   -0.480566  -0.091730   1.286093  -0.190912   0.066346
   63  H 11  S   -0.018183  -0.022229  -0.027707  -0.011460  -0.048646
   64  H 11  S   -0.728406  -1.191950  -0.507547  -0.202060  -0.087822
   65  H 12  S   -0.008814  -0.031027  -0.027414   0.023364   0.020817
   66  H 12  S   -0.149581   0.059977   0.065709   0.496542   0.058513
   67  H 13  S   -0.019538   0.007207   0.042850   0.030449  -0.021994
   68  H 13  S   -0.457674  -0.049385  -0.000573   0.481161  -0.078791
   69  H 14  S    0.033846   0.026740  -0.057980   0.016091  -0.012437
   70  H 14  S    0.395704   0.114256  -0.199660   0.101537  -0.075292
   71  H 15  S    0.046121   0.060243  -0.001215   0.018161   0.013190
   72  H 15  S    0.417574   0.234910  -0.035128  -0.013814   0.075565
   73  H 16  S    0.025880  -0.018886   0.000652  -0.010618   0.001673
   74  H 16  S    0.106871   0.032153  -0.055963  -0.100476   0.019951
   75  H 17  S   -0.002980   0.046532  -0.028575   0.000806   0.000474
   76  H 17  S    0.000494  -0.037680   0.019277   0.048773  -0.008250
   77  H 18  S    0.042107  -0.068790   0.039174   0.026667  -0.000472
   78  H 18  S    0.644174  -0.511922   0.279445   1.078134   0.025399
   79  H 19  S   -0.023291   0.068155   0.028869  -0.007543   0.043046
   80  H 19  S   -0.633101   0.999698   0.017794   0.313119   1.289134

                     41         42         43         44         45
                    0.2949     0.3405     0.3470     0.7129     0.7461
                     A          A          A          A          A   
    1  C  1  S   -0.019363   0.017577   0.082241  -0.004703   0.005665
    2  C  1  S   -0.008773   0.012972  -0.002884  -0.004282  -0.000437
    3  C  1  X    0.218240   0.004558   0.108841   0.085992  -0.169063
    4  C  1  Y   -0.027695   0.126228   0.068046  -0.015790   0.047474
    5  C  1  Z   -0.022379   0.134323   0.068815   0.000796   0.048144
    6  C  1  S    0.465260  -0.431394  -1.232454   0.063955  -0.058530
    7  C  1  X    0.771636   0.215830   1.177537  -0.152436   0.249258
    8  C  1  Y   -0.037532   0.747783   0.434355   0.004635  -0.006118
    9  C  1  Z    0.000345   0.791438   0.445198  -0.019958  -0.001829
   10  H  2  S   -0.017235  -0.001176  -0.041136  -0.004822   0.055614
   11  H  2  S   -0.102548  -0.552071   0.019711  -0.008969  -0.032388
   12  C  3  S   -0.002555   0.031297  -0.123194   0.007340   0.007221
   13  C  3  S    0.011375   0.002453   0.007242   0.007038  -0.067822
   14  C  3  X    0.122567   0.229534   0.099616  -0.079319   0.122806
   15  C  3  Y   -0.024366  -0.022046   0.151895  -0.018695   0.102603
   16  C  3  Z   -0.031245  -0.022806   0.159104  -0.023213   0.090405
   17  C  3  S   -0.037349  -0.476917   1.953527  -0.175539   0.375597
   18  C  3  X    0.594075   1.726936   0.257194   0.073931   0.023202
   19  C  3  Y   -0.176360  -0.077203   0.980861  -0.059258  -0.129158
   20  C  3  Z   -0.218215  -0.079566   1.024090  -0.043464  -0.109653
   21  C  4  S    0.041605  -0.089209   0.060713   0.004373  -0.016858
   22  C  4  S    0.011241  -0.004505  -0.003125  -0.036566   0.011939
   23  C  4  X    0.256939   0.067530  -0.098815   0.021461   0.418178
   24  C  4  Y    0.066892  -0.136689   0.055401   0.039730  -0.055305
   25  C  4  Z    0.070716  -0.146255   0.066671  -0.094122  -0.123361
   26  C  4  S   -0.730667   1.524533  -0.982944   0.203274   0.117632
   27  C  4  X    1.464642   0.371837  -0.897043   0.081085  -0.426307
   28  C  4  Y    0.250353  -0.963321   0.232038  -0.087361   0.112855
   29  C  4  Z    0.270972  -1.033984   0.285624   0.134957   0.204301
   30  C  5  S   -0.077185   0.052926   0.023829  -0.012381   0.012962
   31  C  5  S    0.023821  -0.004067   0.028346   0.006302  -0.026036
   32  C  5  X    0.113889   0.037105   0.169996   0.191162  -0.325722
   33  C  5  Y    0.081338  -0.060795  -0.062866   0.241626   0.103410
   34  C  5  Z    0.081040  -0.069192  -0.068058  -0.130827   0.004178
   35  C  5  S    1.125981  -0.903060  -0.638139   0.057078  -0.066897
   36  C  5  X    0.832339  -0.655055   0.777381  -0.234899   0.321343
[...]
   11            -0.000003   0.000002   0.006943   0.006374   0.004413
   12            -0.000000   0.000203   0.012132   0.000457   0.010490
   13            -0.000000   0.000087   0.012769   0.000379   0.012267
   14             0.000000   0.003341   0.005612   0.008120   0.012721
   15             0.000000   0.000707   0.008386   0.012139   0.022356
   16            -0.000000   0.045525   0.012178   0.012303   0.024866
   17             0.000000   0.044947   0.018049   0.014397   0.006434
   18             0.001351  -0.000000  -0.000104   0.004507   0.016502
   19             0.001429  -0.000000   0.000399   0.006134   0.014131

                     11         12         13         14         15

                  1.000000   1.000000   1.000000   1.000000   1.000000

    1             0.126052   0.093188   0.144130   0.011559   0.002804
    2             0.010487   0.010234   0.025266   0.002453   0.001424
    3             0.019109   0.041258   0.258678   0.043187   0.016660
    4             0.129285   0.049233   0.161643   0.040908   0.069715
    5             0.130118   0.117682   0.067658   0.030684   0.197608
    6             0.101699   0.039005   0.039312   0.320002   0.324368
    7             0.244452   0.371092   0.042187   0.345470   0.075599
    8             0.000083   0.003102   0.050164   0.007923   0.007317
    9             0.000077   0.003408   0.049139   0.011691   0.001328
   10             0.015252   0.006506   0.035754   0.003746   0.019728
   11             0.016636   0.004775   0.031559   0.013196   0.015262
   12             0.016188   0.025062   0.017420   0.008357   0.036273
   13             0.024539   0.012778   0.011130   0.001342   0.069459
   14             0.004347   0.007814   0.011226   0.100891   0.033499
   15             0.022627   0.000254   0.001720   0.009697   0.103212
   16             0.070079   0.060390   0.012103   0.025093   0.024059
   17             0.044244   0.130781   0.000514   0.020404   0.001614
   18             0.014327   0.013104   0.015493   0.000374   0.000018
   19             0.010399   0.010334   0.024905   0.003025   0.000054

                     16         17         18         19         20

                  1.000000   1.000000   1.000000   1.000000   1.000000

    1             0.055121   0.035858   0.198028   0.150939   0.202083
    2             0.013325   0.010197   0.008637   0.041538   0.041833
    3             0.182295   0.050647   0.165683   0.124302   0.082002
    4             0.196070   0.091157   0.197449   0.008672   0.199716
    5             0.034819   0.275920   0.204233   0.217053   0.155562
    6             0.169311   0.356262   0.006990   0.085583   0.047675
    7             0.014287   0.023027   0.020993   0.006095   0.001647
    8             0.043143   0.006731   0.025488   0.031879   0.001103
    9             0.054285   0.000048   0.014849   0.042571   0.000661
   10             0.061794   0.005935   0.002409   0.001637   0.051809
   11             0.050745   0.015164   0.002216   0.002993   0.041543
   12             0.013158   0.025430   0.026947   0.071518   0.034170
   13             0.002311   0.021558   0.013537   0.084782   0.036580
   14             0.044978   0.012238   0.004106   0.028368   0.004553
   15             0.041594   0.045171   0.002077   0.044417   0.007444
   16             0.002644   0.008431   0.000571   0.002189   0.001103
   17             0.000335   0.012735   0.002718   0.000482   0.000030
   18             0.000003   0.001641   0.100227   0.000961   0.058906
   19             0.019780   0.001852   0.002839   0.054021   0.031581

                     21         22         23         24

                  1.000000   1.000000   1.000000   1.000000

    1             0.162727   0.313405   0.213700   0.182136
    2             0.057619   0.022067   0.037808   0.090139
    3             0.002481   0.328669   0.197516   0.234784
    4             0.234219   0.079508   0.229509   0.053646
    5             0.118463   0.108627   0.011504   0.001382
    6             0.007541   0.017085   0.020646   0.000082
    7             0.000415   0.007637   0.003765   0.000062
    8             0.001035   0.027263   0.044095   0.120563
    9             0.000836   0.023853   0.037353   0.131148
   10             0.096283   0.009997   0.019363   0.038267
   11             0.103282   0.009849   0.016955   0.041989
   12             0.064147   0.001921   0.002688   0.003061
   13             0.068983   0.001995   0.003105   0.003448
   14             0.007740   0.000106   0.000309   0.000095
   15             0.008826   0.000008   0.000470   0.000061
   16             0.000303   0.000014   0.000024   0.000002
   17             0.000010   0.001830   0.000784   0.000005
   18             0.000039   0.027561   0.129452   0.000061
   19             0.065051   0.018605   0.030956   0.099069

     ATOMIC SPIN POPULATION (ALPHA MINUS BETA)
       ATOM         MULL.POP.                    LOW.POP.
    1 C             0.000361                     0.000266
    2 H            -0.000023                    -0.000019
    3 C            -0.000668                    -0.000439
    4 C            -0.001278                    -0.001476
    5 C             0.026217                     0.018776
    6 C            -0.139147                    -0.073862
    7 N             1.131534                     1.057844
    8 H             0.000117                     0.000111
    9 H             0.000041                     0.000019
   10 H             0.000091                     0.000128
   11 H             0.000233                     0.000214
   12 H            -0.000554                    -0.000733
   13 H            -0.002700                    -0.001883
   14 H             0.083783                     0.066779
   15 H             0.012389                     0.009299
   16 H            -0.055501                    -0.037823
   17 H            -0.054818                    -0.037154
   18 H            -0.000046                    -0.000025
   19 H            -0.000031                    -0.000020


          ********* ALL ELECTRONS ********

               ----- POPULATIONS IN EACH AO -----
                             MULLIKEN      LOWDIN
              1  C  1  S      1.98822     1.97643
              2  C  1  S      0.35119     0.41263
              3  C  1  X      0.52886     0.50559
              4  C  1  Y      0.54096     0.50936
              5  C  1  Z      0.54010     0.50862
              6  C  1  S      1.12787     0.58438
              7  C  1  X      0.44221     0.56052
              8  C  1  Y      0.53298     0.59898
              9  C  1  Z      0.52891     0.59753
             10  H  2  S      0.46536     0.46746
             11  H  2  S      0.32497     0.43889
             12  C  3  S      1.98922     1.97623
             13  C  3  S      0.34360     0.40946
             14  C  3  X      0.51301     0.49773
             15  C  3  Y      0.54116     0.51312
             16  C  3  Z      0.54087     0.51331
             17  C  3  S      1.12095     0.56706
             18  C  3  X      0.33101     0.51631
             19  C  3  Y      0.52415     0.58274
             20  C  3  Z      0.51973     0.58175
             21  C  4  S      1.98930     1.97624
             22  C  4  S      0.34421     0.41209
             23  C  4  X      0.51621     0.50419
             24  C  4  Y      0.54077     0.51323
             25  C  4  Z      0.53754     0.50981
             26  C  4  S      1.11514     0.56662
             27  C  4  X      0.33096     0.51339
             28  C  4  Y      0.52402     0.58390
             29  C  4  Z      0.51194     0.58067
             30  C  5  S      1.98942     1.97632
             31  C  5  S      0.34486     0.41470
             32  C  5  X      0.50812     0.49609
             33  C  5  Y      0.54474     0.51765
             34  C  5  Z      0.54896     0.52314
             35  C  5  S      1.12315     0.56801
             36  C  5  X      0.30315     0.50465
             37  C  5  Y      0.53317     0.58661
             38  C  5  Z      0.53423     0.58606
             39  C  6  S      1.98898     1.97630
             40  C  6  S      0.35556     0.42321
             41  C  6  X      0.48094     0.46997
             42  C  6  Y      0.56557     0.54077
             43  C  6  Z      0.53253     0.50441
             44  C  6  S      1.09392     0.57729
             45  C  6  X      0.26716     0.45851
             46  C  6  Y      0.54104     0.57204
             47  C  6  Z      0.50094     0.56493
             48  N  7  S      1.98810     1.97922
             49  N  7  S      0.38854     0.50479
             50  N  7  X      0.64003     0.61891
             51  N  7  Y      0.63590     0.60947
             52  N  7  Z      0.49197     0.49039
             53  N  7  S      1.34988     0.79162
             54  N  7  X      0.69712     0.69027
             55  N  7  Y      0.70455     0.68548
             56  N  7  Z      0.53157     0.53081
             57  H  8  S      0.46592     0.47560
             58  H  8  S      0.31226     0.43282
             59  H  9  S      0.46614     0.47596
             60  H  9  S      0.31488     0.43412
             61  H 10  S      0.46441     0.47412
             62  H 10  S      0.31256     0.43387
             63  H 11  S      0.46376     0.47345
             64  H 11  S      0.30723     0.43127
             65  H 12  S      0.46224     0.47165
             66  H 12  S      0.27943     0.41839
             67  H 13  S      0.46207     0.47184
             68  H 13  S      0.30028     0.42870
             69  H 14  S      0.44010     0.44256
             70  H 14  S      0.22657     0.39473
             71  H 15  S      0.45708     0.46494
             72  H 15  S      0.22076     0.39483
             73  H 16  S      0.41826     0.42297
             74  H 16  S      0.13144     0.29874
             75  H 17  S      0.41891     0.42432
             76  H 17  S      0.12833     0.29649
             77  H 18  S      0.46307     0.46385
             78  H 18  S      0.30572     0.42927
             79  H 19  S      0.46517     0.46728
             80  H 19  S      0.32393     0.43840

          ----- MULLIKEN ATOMIC OVERLAP POPULATIONS -----
          (OFF-DIAGONAL ELEMENTS NEED TO BE MULTIPLIED BY 2)

             1           2           3           4           5

    1    5.3433451
    2    0.3768344   0.5064640
    3    0.2509507  -0.0457641   5.4316891
    4   -0.0733945  -0.0018598   0.2395100   5.4762236
    5    0.0032658  -0.0000301  -0.0628057   0.2311200   5.5335010
    6   -0.0000568   0.0000008   0.0032050  -0.0658761   0.1856792
    7    0.0000000   0.0000000  -0.0000188   0.0017748  -0.0512899
    8   -0.0385841   0.0027761   0.3861508  -0.0488179  -0.0014490
    9   -0.0388987  -0.0017424   0.3857295  -0.0490703  -0.0016109
   10   -0.0001053   0.0022367  -0.0405194   0.3834133  -0.0485874
   11   -0.0001247   0.0000078  -0.0403442   0.3840603  -0.0482273
   12   -0.0000158   0.0000005  -0.0001446  -0.0342202   0.3841901
   13   -0.0000150   0.0000031  -0.0003987  -0.0371886   0.3807141
   14   -0.0000002  -0.0000003  -0.0000451   0.0017198  -0.0369730
   15   -0.0000001   0.0000001  -0.0000452   0.0014435  -0.0395957
   16    0.0000000   0.0000000  -0.0000012  -0.0000111  -0.0006934
   17   -0.0000000   0.0000000   0.0000004  -0.0000533   0.0026621
   18    0.3811824  -0.0228694  -0.0377274   0.0031132  -0.0000527
   19    0.3769015  -0.0257287  -0.0457161  -0.0017965  -0.0000314

             6           7           8           9          10

    6    5.5596028
    7    0.0861081   6.8588520
    8   -0.0000214   0.0000002   0.5041154
    9   -0.0000299   0.0000001  -0.0258325   0.5078867
   10   -0.0018192  -0.0000110   0.0029653  -0.0018636   0.5032845
   11   -0.0018854  -0.0000101  -0.0018426   0.0029485  -0.0253617
   12   -0.0503931  -0.0002026   0.0018956   0.0000471   0.0026092
   13   -0.0515989  -0.0000762   0.0000544   0.0021527  -0.0015776
   14    0.3502960  -0.0206979   0.0000008   0.0000042   0.0023218
   15    0.3681426  -0.0294639   0.0000043   0.0000004   0.0000075
   16   -0.0288734   0.2901323   0.0000001  -0.0000002   0.0000025
   17   -0.0258418   0.2925538   0.0000000   0.0000000   0.0000008
   18    0.0000002  -0.0000000  -0.0014387  -0.0014957  -0.0000270
   19    0.0000006   0.0000000  -0.0017924   0.0027954   0.0000058

            11          12          13          14          15

   11    0.4964762
   12   -0.0017432   0.4621164
   13    0.0028203  -0.0231378   0.4874013
   14   -0.0000481   0.0025353  -0.0018744   0.3882878
   15    0.0020665  -0.0018931   0.0026281  -0.0186018   0.3934892
   16    0.0000019   0.0000548   0.0025140  -0.0004540   0.0022459
   17    0.0000012  -0.0000345  -0.0000761   0.0001968  -0.0025951
   18   -0.0000253   0.0000000   0.0000000   0.0000000   0.0000000
   19    0.0022128   0.0000030   0.0000007   0.0000001  -0.0000003

            16          17          18          19

   16    0.3025026
   17   -0.0177179   0.2981447
   18   -0.0000000   0.0000000   0.4709740
   19   -0.0000000   0.0000000  -0.0228387   0.5050838

          TOTAL MULLIKEN AND LOWDIN ATOMIC POPULATIONS
       ATOM         MULL.POP.    CHARGE          LOW.POP.     CHARGE
    1 C             6.581285   -0.581285         6.254041   -0.254041
    2 H             0.790329    0.209671         0.906353    0.093647
    3 C             6.423705   -0.423705         6.157709   -0.157709
    4 C             6.410090   -0.410090         6.160137   -0.160137
    5 C             6.429786   -0.429786         6.173225   -0.173225
    6 C             6.326639   -0.326639         6.087417   -0.087417
    7 N             7.427651   -0.427651         6.900950    0.099050
    8 H             0.778184    0.221816         0.908424    0.091576
    9 H             0.781021    0.218979         0.910089    0.089911
   10 H             0.776975    0.223025         0.907988    0.092012
   11 H             0.770983    0.229017         0.904718    0.095282
   12 H             0.741667    0.258333         0.890038    0.109962
   13 H             0.762346    0.237654         0.900538    0.099462
   14 H             0.666668    0.333332         0.837282    0.162718
   15 H             0.677833    0.322167         0.859766    0.140234
   16 H             0.549703    0.450297         0.721717    0.278283
   17 H             0.547241    0.452759         0.720812    0.279188
   18 H             0.768795    0.231205         0.893117    0.106883
   19 H             0.789100    0.210900         0.905679    0.094321

          -------------------------------
          BOND ORDER AND VALENCE ANALYSIS     BOND ORDER THRESHOLD=0.050
          -------------------------------

                   BOND                       BOND                       BOND
  ATOM PAIR DIST  ORDER      ATOM PAIR DIST  ORDER      ATOM PAIR DIST  ORDER
    1   2  1.097  0.923        1   3  1.544  0.917        1  18  1.096  0.921
    1  19  1.097  0.923        3   4  1.545  0.900        3   8  1.098  0.916
    3   9  1.099  0.917        4   5  1.543  0.896        4  10  1.100  0.913
    4  11  1.100  0.912        5   6  1.540  0.867        5  12  1.096  0.901
    5  13  1.100  0.906        6   7  1.483  0.710        6  14  1.108  0.836
    6  15  1.097  0.868        7  16  1.026  0.762        7  17  1.025  0.764

                       TOTAL       BONDED        FREE
      ATOM            VALENCE     VALENCE     VALENCE
    1 C                 3.651       3.651       0.000
    2 H                 0.913       0.913       0.000
    3 C                 3.596       3.596       0.000
    4 C                 3.563       3.563       0.000
    5 C                 3.518       3.518       0.000
    6 C                 3.261       3.253       0.008
    7 N                 3.148       2.256       0.892
    8 H                 0.904       0.904       0.000
    9 H                 0.905       0.905       0.000
   10 H                 0.905       0.905       0.000
   11 H                 0.903       0.903       0.000
   12 H                 0.891       0.891       0.000
   13 H                 0.900       0.900       0.000
   14 H                 0.855       0.849       0.007
   15 H                 0.859       0.859       0.000
   16 H                 0.771       0.768       0.003
   17 H                 0.769       0.765       0.003
   18 H                 0.909       0.909       0.000
   19 H                 0.913       0.913       0.000

          -----------------------------------------
          ATOMIC SPIN DENSITY AT THE NUCLEUS (A.U.)
          -----------------------------------------
                            SPIN DENS    ALPHA DENS     BETA DENS
    1  C            6.0     0.0001121      46.98615      46.98604
    2  H            1.0    -0.0000100       0.18222       0.18223
    3  C            6.0    -0.0001060      47.02582      47.02593
    4  C            6.0    -0.0022126      47.03255      47.03476
    5  C            6.0     0.0101380      47.04785      47.03771
    6  C            6.0    -0.0375625      47.01817      47.05573
    7  N            7.0     0.4791212      76.95170      76.47258
    8  H            1.0     0.0000633       0.18310       0.18303
    9  H            1.0     0.0000045       0.18316       0.18315
   10  H            1.0     0.0001488       0.18252       0.18237
   11  H            1.0     0.0001043       0.18223       0.18213
   12  H            1.0    -0.0009656       0.18117       0.18213
   13  H            1.0    -0.0008688       0.18103       0.18190
   14  H            1.0     0.0344474       0.18823       0.15378
   15  H            1.0     0.0049661       0.18146       0.17649
   16  H            1.0    -0.0185952       0.15508       0.17367
   17  H            1.0    -0.0181646       0.15558       0.17375
   18  H            1.0    -0.0000098       0.18107       0.18108
   19  H            1.0    -0.0000091       0.18214       0.18215

          ---------------------
          ELECTROSTATIC MOMENTS
          ---------------------

 POINT   1           X           Y           Z (BOHR)    CHARGE
                -3.345109   -0.086689    0.103205        1.00 (A.U.)
         DX          DY          DZ         /D/  (DEBYE)
   -11.631241   -1.372618   -0.032758   11.711999
 ...... END OF PROPERTY EVALUATION ......
 CPU     0: STEP CPU TIME=     0.02 TOTAL CPU TIME=          0.9 (      0.0 MIN)
 TOTAL WALL CLOCK TIME=          0.9 SECONDS, CPU UTILIZATION IS    95.51%
               580000  WORDS OF DYNAMIC MEMORY USED
 EXECUTION OF GAMESS TERMINATED NORMALLY Sun May 17 15:35:26 2020
 DDI: 263640 bytes (0.3 MB / 0 MWords) used by master data server.
Note: The following floating-point exceptions are signalling: IEEE_DENORMALNote: The following floating-point exceptions are signalling: IEEE_DENORMALNote: The following floating-point exceptions are signalling:
 ----------------------------------------
 CPU timing information for all processes
 ========================================
 0: 0.771 + 0.96 = 0.867
 1: 0.751 + 0.12 = 0.764
 2: 0.725 + 0.20 = 0.745
 3: 0.743 + 0.16 = 0.759
 4: 0.739 + 0.16 = 0.755
 5: 0.742 + 0.12 = 0.754
 ----------------------------------------


 IEEE_DENORMAL
Note: The following floating-point exceptions are signalling: IEEE_DENORMALNote: The following floating-point exceptions are signalling: IEEE_DENORMALNote: The following floating-point exceptions are signalling: IEEE_DENORMAL


 ddikick.x: exited gracefully.
unset echo
----- accounting info -----
Files used on the master node pietdev were:
-rwxr-xr-x 1 piet piet     1199 mei 17 15:35 /home/piet/scr/lysine_fukui_base.F05*
-rw-r--r-- 1 piet piet 68812800 mei 17 15:35 /home/piet/scr/lysine_fukui_base.F10
ls: No match.
ls: No match.
ls: No match.
zo 17 mei 2020 15:35:29 CEST
0.084u 0.053s 0:04.02 3.2%	0+0k 0+8io 0pf+0w
