----- GAMESS execution script 'rungms' -----
This job is running on host pietdev
under operating system Linux at zo 17 mei 2020 15:31:39 CEST
Available scratch disk space (Kbyte units) at beginning of the job is
Filesystem     1K-blocks     Used Available Use% Mounted on
/dev/sda2      244568380 30380124 201695200  14% /
GAMESS temporary binary files will be written to /home/piet/scr
GAMESS supplementary output files will be written to /home/piet/gamess/scr
Copying input file lysine_fukui_acid.inp to your run's scratch directory...
cp lysine_fukui_acid.inp /home/piet/scr/lysine_fukui_acid.F05
unset echo
 
Assuming a single but multicore node.
 
/home/piet/gamess/ddikick.x /home/piet/gamess/gamess.03.x lysine_fukui_acid -ddi 1 6 pietdev:cpus=6 -scr /home/piet/scr

 Distributed Data Interface kickoff program.
 Initiating 6 compute processes on 1 nodes to run the following command:
 /home/piet/gamess/gamess.03.x lysine_fukui_acid 

          ******************************************************
          *         GAMESS VERSION = 30 SEP 2019 (R2)          *
          *             FROM IOWA STATE UNIVERSITY             *
          * M.W.SCHMIDT, K.K.BALDRIDGE, J.A.BOATZ, S.T.ELBERT, *
          *   M.S.GORDON, J.H.JENSEN, S.KOSEKI, N.MATSUNAGA,   *
          *          K.A.NGUYEN, S.J.SU, T.L.WINDUS,           *
          *       TOGETHER WITH M.DUPUIS, J.A.MONTGOMERY       *
          *         J.COMPUT.CHEM.  14, 1347-1363(1993)        *
          **************** 64 BIT LINUX VERSION ****************

  SINCE 1993, STUDENTS AND POSTDOCS WORKING AT IOWA STATE UNIVERSITY
  AND ALSO IN THEIR VARIOUS JOBS AFTER LEAVING ISU HAVE MADE IMPORTANT
  CONTRIBUTIONS TO THE CODE:
     IVANA ADAMOVIC, CHRISTINE AIKENS, YURI ALEXEEV, POOJA ARORA,
     ANDREY ASADCHEV, ROB BELL, PRADIPTA BANDYOPADHYAY, JONATHAN BENTZ,
     COLLEEN BERTONI, BRETT BODE, KURT BRORSEN, CALEB CARLIN, GALINA CHABAN,
     WEI CHEN, CHEOL HO CHOI, PAUL DAY, ALBERT DEFUSCO, NUWAN DESILVA,
     TIM DUDLEY, DMITRI FEDOROV, ALEX FINDLATER, GRAHAM FLETCHER, 
     MARK FREITAG, KURT GLAESEMANN, EMILIE B GUIDEZ, ANASTASIA GUNINA, 
     DAN KEMP, SAROM SOK LEANG, GRANT MERRILL,
     NORIYUKI MINEZAWA, JONATHAN MULLIN,
     TAKESHI NAGATA, SEAN NEDD, HEATHER NETZLOFF, BOSILJKA NJEGIC, RYAN OLSON,
     MIKE PAK, BUU PHAM, DAVID POOLE,
     SPENCER PRUITT, LUKE ROSKOP, TOSAPORN SATTASATHUCHANA,
     JIM SHOEMAKER, LYUDMILA SLIPCHENKO,
     TONY SMITH, JIE SONG, TETSUYA TAKETSUGU, SIMON WEBB,
     JORGE LUIS GALVEZ VALLEJO, PENG XU, SOOHAENG YOO,
     FEDERICO ZAHARIEV

  ADDITIONAL CODE HAS BEEN PROVIDED BY COLLABORATORS IN OTHER GROUPS:
     IOWA STATE UNIVERSITY:
          JOE IVANIC, AARON WEST, LAIMUTIS BYTAUTAS, KLAUS RUEDENBERG
     UNIVERSITY OF TOKYO: KIMIHIKO HIRAO, TAKAHITO NAKAJIMA,
          TAKAO TSUNEDA, MUNEAKI KAMIYA, SUSUMU YANAGISAWA,
          KIYOSHI YAGI, MAHITO CHIBA, SEIKEN TOKURA, NAOAKI KAWAKAMI
     UNIVERSITY OF AARHUS: FRANK JENSEN
     UNIVERSITY OF IOWA: VISVALDAS KAIRYS, HUI LI
     NATIONAL INST. OF STANDARDS AND TECHNOLOGY: WALT STEVENS, DAVID GARMER
     UNIVERSITY OF PISA: BENEDETTA MENNUCCI, JACOPO TOMASI
     UNIVERSITY OF MEMPHIS: HENRY KURTZ, PRAKASHAN KORAMBATH
     UNIVERSITY OF ALBERTA: TOBY ZENG, MARIUSZ KLOBUKOWSKI
     UNIVERSITY OF NEW ENGLAND: MARK SPACKMAN
     MIE UNIVERSITY: HIROAKI UMEDA
     NAT. INST. OF ADVANCED INDUSTRIAL SCIENCE AND TECHNOLOGY: KAZUO KITAURA
     MICHIGAN STATE UNIVERSITY:
          KAROL KOWALSKI, MARTA WLOCH, JEFFREY GOUR, JESSE LUTZ,
          WEI LI, JUN SHEN, J. EMILIANO DEUSTUA, PIOTR PIECUCH
     UNIVERSITY OF MINNESOTA:
          ANDREW SAND, PRACHI SHARMA, YINAN SHU
     UNIVERSITY OF SILESIA: MONIKA MUSIAL, STANISLAW KUCHARSKI
     FACULTES UNIVERSITAIRES NOTRE-DAME DE LA PAIX:
          OLIVIER QUINET, BENOIT CHAMPAGNE
     UNIVERSITY OF CALIFORNIA - SANTA BARBARA: BERNARD KIRTMAN
     INSTITUTE FOR MOLECULAR SCIENCE:
          KAZUYA ISHIMURA, MICHIO KATOUDA, AND SHIGERU NAGASE
     UNIVERSITY OF NOTRE DAME: ANNA POMOGAEVA, DAN CHIPMAN
     KYUSHU UNIVERSITY:
          HARUYUKI NAKANO,
          FENG LONG GU, JACEK KORCHOWIEC, MARCIN MAKOWSKI, AND YURIKO AOKI,
          HIROTOSHI MORI AND EISAKU MIYOSHI
     PENNSYLVANIA STATE UNIVERSITY:
          TZVETELIN IORDANOV, CHET SWALINA, JONATHAN SKONE,
          SHARON HAMMES-SCHIFFER
     WASEDA UNIVERSITY:
          MASATO KOBAYASHI, TOMOKO AKAMA, TSUGUKI TOUMA,
          TAKESHI YOSHIKAWA, YASUHIRO IKABATA, JUNJI SEINO,
          YUYA NAKAJIMA, HIROMI NAKAI
     NANJING UNIVERSITY: SHUHUA LI
     UNIVERSITY OF NEBRASKA:
          PEIFENG SU, DEJUN SI, NANDUN THELLAMUREGE, YALI WANG, HUI LI
     UNIVERSITY OF ZURICH: ROBERTO PEVERATI, KIM BALDRIDGE
     N. COPERNICUS UNIVERSITY AND JACKSON STATE UNIVERSITY:
          MARIA BARYSZ
     UNIVERSITY OF COPENHAGEN: Jimmy Kromann, CASPER STEINMANN
     TOKYO INSTITUTE OF TECHNOLOGY: HIROYA NAKATA
     NAGOYA UNIVERSITY: YOSHIO NISHIMOTO, STEPHAN IRLE
     MOSCOW STATE UNIVERSITY: VLADIMIR MIRONOV
     A.N.NESMEYANOV INSTITUTE OF ORGANOELEMENT COMPOUNDS OF RUSSIAN ACADEMY OF SCIENCES:
          IGOR S. GERASIMOV
     JOHANNES KEPLER UNIVERSITY LINZ:
          CHRISTIAN FRIEDL


 PARALLEL VERSION RUNNING ON        6 PROCESSORS IN        1 NODES.

 EXECUTION OF GAMESS BEGUN Sun May 17 15:31:39 2020

            ECHO OF THE FIRST FEW INPUT CARDS -
 INPUT CARD> $BASIS GBASIS=N21 NGAUSS=3 $END                                                
 INPUT CARD> $CONTRL SCFTYP=UHF MAXIT=60 MULT=2 ICHARG=-1 $END                              
 INPUT CARD> $SYSTEM MEMDDI=1000 MWORDS=30 $END                                             
 INPUT CARD> $SCF DIRSCF=.TRUE. $END                                                        
 INPUT CARD> $STATPT OPTTOL=0.0001 NSTEP=999 $END                                           
 INPUT CARD> $DATA                                                                          
 INPUT CARD>                                                                                
 INPUT CARD>C1                                                                              
 INPUT CARD>C 6.0000000 1.4324414348 0.3605472402 0.4744060451                              
 INPUT CARD>H 1.0000000 1.4328480696 0.1609517568 1.5528676662                              
 INPUT CARD>C 6.0000000 0.1940749575 -0.2746130033 -0.1945361431                            
 INPUT CARD>C 6.0000000 -1.1297201168 0.2686470497 0.3882790394                             
 INPUT CARD>C 6.0000000 -2.3740033780 -0.3556198154 -0.2774338276                           
 INPUT CARD>C 6.0000000 -3.6923962825 0.1732930187 0.3176731882                             
 INPUT CARD>N 7.0000000 -4.8410802466 -0.4174382083 -0.4109315568                           
 INPUT CARD>H 1.0000000 0.2173621931 -0.0791536048 -1.2749764291                            
 INPUT CARD>H 1.0000000 0.2231287117 -1.3648749374 -0.0625046000                            
 INPUT CARD>H 1.0000000 -1.1532142929 0.0714890563 1.4697897997                             
 INPUT CARD>H 1.0000000 -1.1573324643 1.3601262841 0.2576151661                             
 INPUT CARD>H 1.0000000 -2.3812386103 -0.1449417311 -1.3529953093                           
 INPUT CARD>H 1.0000000 -2.3392513614 -1.4487753719 -0.1564136968                           
 INPUT CARD>H 1.0000000 -3.6908668981 -0.0123205448 1.4095540659                            
 INPUT CARD>H 1.0000000 -3.7332598515 1.2599055303 0.1740714606                             
 INPUT CARD>H 1.0000000 -4.8912439826 -1.4320507538 -0.2680630178                           
 INPUT CARD>H 1.0000000 -5.7318093132 0.0071927823 -0.1344214936                            
 INPUT CARD>H 1.0000000 2.3602414625 -0.0411189934 0.0511897151                             
 INPUT CARD>H 1.0000000 1.4327199691 1.4477942458 0.3294399277                              
 INPUT CARD> $END                                                                           
   30000000 WORDS OF MEMORY AVAILABLE

     BASIS OPTIONS
     -------------
     GBASIS=N21          IGAUSS=       3      POLAR=NONE    
     NDFUNC=       0     NFFUNC=       0     DIFFSP=       F
     NPFUNC=       0      DIFFS=       F     BASNAM=        


     RUN TITLE
     ---------
                                                                                 

 THE POINT GROUP OF THE MOLECULE IS C1      
 THE ORDER OF THE PRINCIPAL AXIS IS     0

 ATOM      ATOMIC                      COORDINATES (BOHR)
           CHARGE         X                   Y                   Z
 C           6.0     2.7069218052        0.6813354896        0.8964974322
 H           1.0     2.7076902336        0.3041547176        2.9344943843
 C           6.0     0.3667484908       -0.5189433289       -0.3676200052
 C           6.0    -2.1348614636        0.5076693113        0.7337409912
 C           6.0    -4.4862158783       -0.6720240069       -0.5242739139
 C           6.0    -6.9776172120        0.3274763209        0.6003152793
 N           7.0    -9.1483151506       -0.7888438305       -0.7765480421
 H           1.0     0.4107549850       -0.1495786240       -2.4093560918
 H           1.0     0.4216521251       -2.5792396392       -0.1181165670
 H           1.0    -2.1792590187        0.1350947275        2.7774999810
 H           1.0    -2.1870412342        2.5702659856        0.4868220742
 H           1.0    -4.4998884849       -0.2739001560       -2.5567903972
 H           1.0    -4.4205440895       -2.7377884707       -0.2955790277
 H           1.0    -6.9747270946       -0.0232824537        2.6636709494
 H           1.0    -7.0548381603        2.3808762227        0.3289473628
 H           1.0    -9.2431108662       -2.7061835252       -0.5065656511
 H           1.0   -10.8315490158        0.0135923876       -0.2540197898
 H           1.0     4.4602096290       -0.0777036304        0.0967345349
 H           1.0     2.7074481587        2.7359344112        0.6225511928

          INTERNUCLEAR DISTANCES (ANGS.)
          ------------------------------

                1 C          2 H          3 C          4 C          5 C     

   1 C       0.0000000    1.0967762 *  1.5441709 *  2.5652554 *  3.9455267  
   2 H       1.0967762 *  0.0000000    2.1857940 *  2.8168459 *  4.2554633  
   3 C       1.5441709 *  2.1857940 *  0.0000000    1.5450691 *  2.5706926 *
   4 C       2.5652554 *  2.8168459 *  1.5450691 *  0.0000000    1.5430890 *
   5 C       3.9455267    4.2554633    2.5706926 *  1.5430890 *  0.0000000  
   6 C       5.1306521    5.2720003    3.9455845    2.5654214 *  1.5401497 *
   7 N       6.3832718    6.5994863    5.0418264    3.8579327    2.4714594 *
   8 H       2.1748778 *  3.0873546    1.0982249 *  2.1684130 *  2.7904660 *
   9 H       2.1743486 *  2.5300189 *  1.0986116 *  2.1683634 *  2.7946172 *
  10 H       2.7856703 *  2.5889427 *  2.1690910 *  1.0995857 *  2.1738303 *
  11 H       2.7844363 *  3.1344431    2.1686667 *  1.0996192 *  2.1703341 *
  12 H       4.2589987    4.8046714    2.8268502 *  2.1838934 *  1.0960247 *
  13 H       4.2305140    4.4431518    2.7924636 *  2.1700682 *  1.1003830 *
  14 H       5.2212853    5.1286467    4.2112559    2.7715372 *  2.1674667 *
  15 H       5.2520011    5.4587040    4.2325616    2.7940826 *  2.1590177 *
  16 H       6.6146553    6.7710845    5.2158927    4.1799784    2.7377530 *
  17 H       7.1987512    7.3622620    5.9328857    4.6390515    3.3803766  
  18 H       1.0960204 *  1.7764931 *  2.1925278 *  3.5198602    4.7560465  
  19 H       1.0968689 *  1.7755954 *  2.1852870 *  2.8213382 *  4.2557891  

                6 C          7 N          8 H          9 H         10 H     

   1 C       5.1306521    6.3832718    2.1748778 *  2.1743486 *  2.7856703 *
   2 H       5.2720003    6.5994863    3.0873546    2.5300189 *  2.5889427 *
   3 C       3.9455845    5.0418264    1.0982249 *  1.0986116 *  2.1690910 *
   4 C       2.5654214 *  3.8579327    2.1684130 *  2.1683634 *  1.0995857 *
   5 C       1.5401497 *  2.4714594 *  2.7904660 *  2.7946172 *  2.1738303 *
   6 C       0.0000000    1.4830048 *  4.2292403    4.2239593    2.7901939 *
   7 N       1.4830048 *  0.0000000    5.1428445    5.1638406    4.1685151  
   8 H       4.2292403    5.1428445    0.0000000    1.7672579 *  3.0716306  
   9 H       4.2239593    5.1638406    1.7672579 *  0.0000000    2.5110531 *
  10 H       2.7901939 *  4.1685151    3.0716306    2.5110531 *  0.0000000  
  11 H       2.7997730 *  4.1444768    2.5120010 *  3.0714461    1.7691722 *
  12 H       2.1474499 *  2.6481237 *  2.6006040 *  3.1521949    3.0859361  
  13 H       2.1649170 *  2.7180109 *  3.1085880    2.5654726 *  2.5223849 *
  14 H       1.1075462 *  2.1911821 *  4.7418799    4.3949655    2.5397506 *
  15 H       1.0968218 *  2.0935560 *  4.4159069    4.7537828    3.1221555  
  16 H       2.0874509 *  1.0258491 *  5.3797827    5.1189428    4.3878959  
  17 H       2.0955153 *  1.0247768 *  6.0581320    6.1113852    4.8519234  
  18 H       6.0622941    7.2259398    2.5203363 *  2.5164473 *  3.7907094  
  19 H       5.2812222    6.5869425    2.5264236 *  3.0867199    3.1435123  

               11 H         12 H         13 H         14 H         15 H     

   1 C       2.7844363 *  4.2589987    4.2305140    5.2212853    5.2520011  
   2 H       3.1344431    4.8046714    4.4431518    5.1286467    5.4587040  
   3 C       2.1686667 *  2.8268502 *  2.7924636 *  4.2112559    4.2325616  
   4 C       1.0996192 *  2.1838934 *  2.1700682 *  2.7715372 *  2.7940826 *
   5 C       2.1703341 *  1.0960247 *  1.1003830 *  2.1674667 *  2.1590177 *
   6 C       2.7997730 *  2.1474499 *  2.1649170 *  1.1075462 *  1.0968218 *
   7 N       4.1444768    2.6481237 *  2.7180109 *  2.1911821 *  2.0935560 *
   8 H       2.5120010 *  2.6006040 *  3.1085880    4.7418799    4.4159069  
   9 H       3.0714461    3.1521949    2.5654726 *  4.3949655    4.7537828  
  10 H       1.7691722 *  3.0859361    2.5223849 *  2.5397506 *  3.1221555  
  11 H       0.0000000    2.5213572 *  3.0754318    3.1031227    2.5792297 *
  12 H       2.5213572 *  0.0000000    1.7701844 *  3.0601297    2.4765884 *
  13 H       3.0754318    1.7701844 *  0.0000000    2.5184364 *  3.0642181  
  14 H       3.1031227    3.0601297    2.5184364 *  0.0000000    1.7739148 *
  15 H       2.5792297 *  2.4765884 *  3.0642181    1.7739148 *  0.0000000  
  16 H       4.6919810    3.0222268    2.5544885 *  2.5041841 *  2.9636192 *
  17 H       4.7864350    3.5685279    3.6918527    2.5592357 *  2.3787932 *
  18 H       3.7920214    4.9461245    4.9101760    6.2017655    6.2320561  
  19 H       2.5925308 *  4.4624742    4.7805792    5.4359658    5.1717298  

               16 H         17 H         18 H         19 H     

   1 C       6.6146553    7.1987512    1.0960204 *  1.0968689 *
   2 H       6.7710845    7.3622620    1.7764931 *  1.7755954 *
   3 C       5.2158927    5.9328857    2.1925278 *  2.1852870 *
   4 C       4.1799784    4.6390515    3.5198602    2.8213382 *
   5 C       2.7377530 *  3.3803766    4.7560465    4.2557891  
   6 C       2.0874509 *  2.0955153 *  6.0622941    5.2812222  
   7 N       1.0258491 *  1.0247768 *  7.2259398    6.5869425  
   8 H       5.3797827    6.0581320    2.5203363 *  2.5264236 *
   9 H       5.1189428    6.1113852    2.5164473 *  3.0867199  
  10 H       4.3878959    4.8519234    3.7907094    3.1435123  
  11 H       4.6919810    4.7864350    3.7920214    2.5925308 *
  12 H       3.0222268    3.5685279    4.9461245    4.4624742  
  13 H       2.5544885 *  3.6918527    4.9101760    4.7805792  
  14 H       2.5041841 *  2.5592357 *  6.2017655    5.4359658  
  15 H       2.9636192 *  2.3787932 *  6.2320561    5.1717298  
  16 H       0.0000000    1.6720742 *  7.3905788    6.9744560  
  17 H       1.6720742 *  0.0000000    8.0943234    7.3226348  
  18 H       7.3905788    8.0943234    0.0000000    1.7761143 *
  19 H       6.9744560    7.3226348    1.7761143 *  0.0000000  

  * ... LESS THAN  3.000


     ATOMIC BASIS SET
     ----------------
 THE CONTRACTED PRIMITIVE FUNCTIONS HAVE BEEN UNNORMALIZED
 THE CONTRACTED BASIS FUNCTIONS ARE NOW NORMALIZED TO UNITY

  SHELL TYPE  PRIMITIVE        EXPONENT          CONTRACTION COEFFICIENT(S)

 C         

      1   S       1           172.2560000    0.061766907377
      1   S       2            25.9109000    0.358794042852
      1   S       3             5.5333500    0.700713083689

      2   L       4             3.6649800   -0.395895162119    0.236459946619
      2   L       5             0.7705450    1.215834355681    0.860618805716

      3   L       6             0.1958570    1.000000000000    1.000000000000

 H         

      4   S       7             5.4471780    0.156284978695
      4   S       8             0.8245472    0.904690876670

      5   S       9             0.1831916    1.000000000000

 C         

      6   S      10           172.2560000    0.061766907377
      6   S      11            25.9109000    0.358794042852
      6   S      12             5.5333500    0.700713083689

      7   L      13             3.6649800   -0.395895162119    0.236459946619
      7   L      14             0.7705450    1.215834355681    0.860618805716

      8   L      15             0.1958570    1.000000000000    1.000000000000

 C         

      9   S      16           172.2560000    0.061766907377
      9   S      17            25.9109000    0.358794042852
      9   S      18             5.5333500    0.700713083689

     10   L      19             3.6649800   -0.395895162119    0.236459946619
     10   L      20             0.7705450    1.215834355681    0.860618805716

     11   L      21             0.1958570    1.000000000000    1.000000000000

 C         

     12   S      22           172.2560000    0.061766907377
     12   S      23            25.9109000    0.358794042852
     12   S      24             5.5333500    0.700713083689

     13   L      25             3.6649800   -0.395895162119    0.236459946619
     13   L      26             0.7705450    1.215834355681    0.860618805716

     14   L      27             0.1958570    1.000000000000    1.000000000000

 C         

     15   S      28           172.2560000    0.061766907377
     15   S      29            25.9109000    0.358794042852
     15   S      30             5.5333500    0.700713083689

     16   L      31             3.6649800   -0.395895162119    0.236459946619
     16   L      32             0.7705450    1.215834355681    0.860618805716

     17   L      33             0.1958570    1.000000000000    1.000000000000

 N         

     18   S      34           242.7660000    0.059865700508
     18   S      35            36.4851000    0.352955002994
     18   S      36             7.8144900    0.706513005993

     19   L      37             5.4252200   -0.413300077430    0.237972016222
     19   L      38             1.1491500    1.224417266851    0.858953058551

     20   L      39             0.2832050    1.000000000000    1.000000000000

 H         

     21   S      40             5.4471780    0.156284978695
     21   S      41             0.8245472    0.904690876670

     22   S      42             0.1831916    1.000000000000

 H         

     23   S      43             5.4471780    0.156284978695
     23   S      44             0.8245472    0.904690876670

     24   S      45             0.1831916    1.000000000000

 H         

     25   S      46             5.4471780    0.156284978695
     25   S      47             0.8245472    0.904690876670

     26   S      48             0.1831916    1.000000000000

 H         

     27   S      49             5.4471780    0.156284978695
     27   S      50             0.8245472    0.904690876670

     28   S      51             0.1831916    1.000000000000

 H         

     29   S      52             5.4471780    0.156284978695
     29   S      53             0.8245472    0.904690876670

     30   S      54             0.1831916    1.000000000000

 H         

     31   S      55             5.4471780    0.156284978695
     31   S      56             0.8245472    0.904690876670

     32   S      57             0.1831916    1.000000000000

 H         

     33   S      58             5.4471780    0.156284978695
     33   S      59             0.8245472    0.904690876670

     34   S      60             0.1831916    1.000000000000

 H         

     35   S      61             5.4471780    0.156284978695
     35   S      62             0.8245472    0.904690876670

     36   S      63             0.1831916    1.000000000000

 H         

     37   S      64             5.4471780    0.156284978695
     37   S      65             0.8245472    0.904690876670

     38   S      66             0.1831916    1.000000000000

 H         

     39   S      67             5.4471780    0.156284978695
     39   S      68             0.8245472    0.904690876670

     40   S      69             0.1831916    1.000000000000

 H         

     41   S      70             5.4471780    0.156284978695
     41   S      71             0.8245472    0.904690876670

     42   S      72             0.1831916    1.000000000000

 H         

     43   S      73             5.4471780    0.156284978695
     43   S      74             0.8245472    0.904690876670

     44   S      75             0.1831916    1.000000000000

 TOTAL NUMBER OF BASIS SET SHELLS             =   44
 NUMBER OF CARTESIAN GAUSSIAN BASIS FUNCTIONS =   80
 NUMBER OF ELECTRONS                          =   51
 CHARGE OF MOLECULE                           =   -1
 SPIN MULTIPLICITY                            =    2
 NUMBER OF OCCUPIED ORBITALS (ALPHA)          =   26
 NUMBER OF OCCUPIED ORBITALS (BETA )          =   25
 TOTAL NUMBER OF ATOMS                        =   19
 THE NUCLEAR REPULSION ENERGY IS      243.2305611184

     $CONTRL OPTIONS
     ---------------
 SCFTYP=UHF          RUNTYP=ENERGY       EXETYP=RUN     
 MPLEVL=       0     CITYP =NONE         CCTYP =NONE         VBTYP =NONE    
 DFTTYP=NONE         TDDFT =NONE    
 MULT  =       2     ICHARG=      -1     NZVAR =       0     COORD =UNIQUE  
 PP    =NONE         RELWFN=NONE         LOCAL =NONE         NUMGRD=       F
 ISPHER=      -1     NOSYM =       0     MAXIT =      60     UNITS =ANGS    
 PLTORB=       F     MOLPLT=       F     AIMPAC=       F     FRIEND=        
 NPRINT=       7     IREST =       0     GEOM  =INPUT   
 NORMF =       0     NORMP =       0     ITOL  =      20     ICUT  =       9
 INTTYP=BEST         GRDTYP=BEST         QMTTOL= 1.0E-06

     $SYSTEM OPTIONS
     ---------------
  REPLICATED MEMORY=    30000000 WORDS (ON EVERY NODE).
 DISTRIBUTED MEMDDI=        1000 MILLION WORDS IN AGGREGATE,
 MEMDDI DISTRIBUTED OVER   6 PROCESSORS IS   166666666 WORDS/PROCESSOR.
 TOTAL MEMORY REQUESTED ON EACH PROCESSOR=   196666666 WORDS.
 TIMLIM=      525600.00 MINUTES, OR     365.0 DAYS.
 PARALL= T  BALTYP=  DLB     KDIAG=    0  COREFL= F
 MXSEQ2=     300 MXSEQ3=     150  mem10=         0

          ----------------
          PROPERTIES INPUT
          ----------------

     MOMENTS            FIELD           POTENTIAL          DENSITY
 IEMOM =       1   IEFLD =       0   IEPOT =       0   IEDEN =       0
 WHERE =COMASS     WHERE =NUCLEI     WHERE =NUCLEI     WHERE =NUCLEI  
 OUTPUT=BOTH       OUTPUT=BOTH       OUTPUT=BOTH       OUTPUT=BOTH    
 IEMINT=       0   IEFINT=       0                     IEDINT=       0
                                                       MORB  =       0
          EXTRAPOLATION IN EFFECT
          SOSCF IN EFFECT
          DIIS or SOSCF will be reset if energy rises
 ORBITAL PRINTING OPTION: NPREO=     1    80     2     1

     -------------------------------
     INTEGRAL TRANSFORMATION OPTIONS
     -------------------------------
     NWORD  =            0
     CUTOFF = 1.0E-09     MPTRAN =       0
     DIRTRF =       T     AOINTS =DUP     

          ----------------------
          INTEGRAL INPUT OPTIONS
          ----------------------
 NOPK  =       1 NORDER=       0 SCHWRZ=       T

     ------------------------------------------
     THE POINT GROUP IS C1 , NAXIS= 0, ORDER= 1
     ------------------------------------------

     DIMENSIONS OF THE SYMMETRY SUBSPACES ARE
 A   =   80

 ..... DONE SETTING UP THE RUN .....
 CPU     0: STEP CPU TIME=     0.02 TOTAL CPU TIME=          0.0 (      0.0 MIN)
 TOTAL WALL CLOCK TIME=          0.0 SECONDS, CPU UTILIZATION IS    66.67%

          ********************
          1 ELECTRON INTEGRALS
          ********************
 ...... END OF ONE-ELECTRON INTEGRALS ......
 CPU     0: STEP CPU TIME=     0.01 TOTAL CPU TIME=          0.0 (      0.0 MIN)
 TOTAL WALL CLOCK TIME=          0.0 SECONDS, CPU UTILIZATION IS    75.00%

          -------------
          GUESS OPTIONS
          -------------
          GUESS =HUCKEL            NORB  =       0          NORDER=       0
          MIX   =       F          PRTMO =       F          PUNMO =       F
          TOLZ  = 1.0E-08          TOLE  = 1.0E-05
          SYMDEN=       F          PURIFY=       F

 INITIAL GUESS ORBITALS GENERATED BY HUCKEL   ROUTINE.
 HUCKEL GUESS REQUIRES     67450 WORDS.

 SYMMETRIES FOR INITIAL GUESS ORBITALS FOLLOW.  ALPHA SET(S).
    26 ORBITALS ARE OCCUPIED (    6 CORE ORBITALS).
     7=A        8=A        9=A       10=A       11=A       12=A       13=A   
    14=A       15=A       16=A       17=A       18=A       19=A       20=A   
    21=A       22=A       23=A       24=A       25=A       26=A       27=A   
    28=A       29=A       30=A       31=A       32=A       33=A       34=A   
    35=A       36=A   

 SYMMETRIES FOR INITIAL GUESS ORBITALS FOLLOW.   BETA SET(S).
    25 ORBITALS ARE OCCUPIED (    6 CORE ORBITALS).
     7=A        8=A        9=A       10=A       11=A       12=A       13=A   
    14=A       15=A       16=A       17=A       18=A       19=A       20=A   
    21=A       22=A       23=A       24=A       25=A       26=A       27=A   
    28=A       29=A       30=A       31=A       32=A       33=A       34=A   
    35=A   
 ...... END OF INITIAL ORBITAL SELECTION ......
 CPU     0: STEP CPU TIME=     0.02 TOTAL CPU TIME=          0.0 (      0.0 MIN)
 TOTAL WALL CLOCK TIME=          0.1 SECONDS, CPU UTILIZATION IS    83.33%

                    ----------------------
                    AO INTEGRAL TECHNOLOGY
                    ----------------------
     S,P,L SHELL ROTATED AXIS INTEGRALS, REPROGRAMMED BY
        KAZUYA ISHIMURA (IMS) AND JOSE SIERRA (SYNSTAR).
     S,P,D,L SHELL ROTATED AXIS INTEGRALS PROGRAMMED BY
        KAZUYA ISHIMURA (INSTITUTE FOR MOLECULAR SCIENCE).
     S,P,D,F,G SHELL TO TOTAL QUARTET ANGULAR MOMENTUM SUM 5,
        ERIC PROGRAM BY GRAHAM FLETCHER (ELORET AND NASA ADVANCED
        SUPERCOMPUTING DIVISION, AMES RESEARCH CENTER).
     S,P,D,F,G,L SHELL GENERAL RYS QUADRATURE PROGRAMMED BY
        MICHEL DUPUIS (PACIFIC NORTHWEST NATIONAL LABORATORY).

          --------------------
          2 ELECTRON INTEGRALS
          --------------------

 DIRECT SCF METHOD SKIPS INTEGRAL STORAGE ON DISK.
 DIRECT TRANSFORMATION SKIPS AO INTEGRAL STORAGE ON DISK.
  ...... END OF TWO-ELECTRON INTEGRALS .....
 CPU     0: STEP CPU TIME=     0.01 TOTAL CPU TIME=          0.1 (      0.0 MIN)
 TOTAL WALL CLOCK TIME=          0.1 SECONDS, CPU UTILIZATION IS    85.71%

          ---------------------------
                  UHF SCF CALCULATION
          ---------------------------

     NUCLEAR ENERGY =       243.2305611184
     MAXIT = 60     NPUNCH=  2     MULT=  2
     EXTRAP=T  DAMP=F  SHIFT=F  RSTRCT=F  DIIS=F  SOSCF=T
     DENSITY MATRIX CONV=  2.00E-05
     SOSCF WILL OPTIMIZE    1404 ALPHA AND    1375 BETA ROTATION ANGLES.
     SOGTOL= 2.500E-01
     MEMORY REQUIRED FOR UHF/ROHF ITERS=    131069 WORDS.

 DIRECT SCF CALCULATION, SCHWRZ=T   FDIFF=T
 SCHWARZ INEQUALITY OVERHEAD:      3063 INTEGRALS, T=        0.00

                                                                                NONZERO     BLOCKS
 ITER EX      TOTAL ENERGY        E CHANGE  DENSITY CHANGE    ORB. GRAD       INTEGRALS    SKIPPED
   1  0     -248.9139415865  -248.9139415865   0.605006905   0.000000000        3513373     189642
          ---------------START SECOND ORDER SCF---------------
   2  1     -249.5774446551    -0.6635030686   0.598224727   0.044856583        3513634     188511
   3  2     -249.6589577411    -0.0815130860   1.099833336   0.022801840        3508495     190486
   4  3     -249.6684359967    -0.0094782556   0.454048900   0.037173612        3510563     187618
   5  4     -249.6873586774    -0.0189226807   0.371362391   0.018406780        3505437     191780
   6  5     -249.6965470432    -0.0091883658   0.385983171   0.008264516        3493041     196460
   7  6     -249.7007309352    -0.0041838920   0.246991450   0.008383555        3493524     195919
   8  7     -249.7035065195    -0.0027755843   0.199692938   0.005495160        3481135     200626
   9  8     -249.7051836303    -0.0016771107   0.124375693   0.003228988        3479045     200770
  10  9     -249.7056564349    -0.0004728046   0.212502551   0.002246999        3441658     211647
  11 10     -249.7060422132    -0.0003857783   0.086970438   0.001111579        3465896     205164
  12 11     -249.7061964364    -0.0001542232   0.128180145   0.000769409        3421208     215805
  13 12     -249.7063351756    -0.0001387392   0.077640305   0.000733713        3445812     209924
  14 13     -249.7063947458    -0.0000595702   0.031939353   0.000669321        3409700     217400
  15 14     -249.7064202425    -0.0000254967   0.019986956   0.000277179        3381464     222796
  16 15     -249.7064306776    -0.0000104351   0.014734596   0.000239670        3333017     231311
  17 16     -249.7064355483    -0.0000048707   0.015696900   0.000141110        3323890     233108
  18 17     -249.7064389801    -0.0000034318   0.008115008   0.000117194        3334755     231523
  19 18     -249.7064402710    -0.0000012909   0.003851235   0.000044047        3294610     238022
  20 19     -249.7064406451    -0.0000003741   0.001427060   0.000022178        3214785     249459
  21 20     -249.7064407307    -0.0000000856   0.000795292   0.000012913        3100606     263804
  22 21     -249.7064407580    -0.0000000274   0.000654690   0.000012117        3034935     270125
  23 22     -249.7064407698    -0.0000000117   0.000568473   0.000008443        2989468     274009
  24 23     -249.7064407757    -0.0000000059   0.000312181   0.000003531        2973860     275575
  25 24     -249.7064407782    -0.0000000025   0.000084506   0.000001944        2904789     283215
  26 25     -249.7064407790    -0.0000000008   0.000025848   0.000001085        2770479     296861
  27 26     -249.7064407790     0.0000000001   0.000013489   0.000000336        2569389     315592

          -----------------
          DENSITY CONVERGED
          -----------------
     TIME TO FORM FOCK OPERATORS=       1.8 SECONDS (       0.1 SEC/ITER)
     FOCK TIME ON FIRST ITERATION=       0.1, LAST ITERATION=       0.1
     TIME TO SOLVE SCF EQUATIONS=       0.1 SECONDS (       0.0 SEC/ITER)

 FINAL UHF ENERGY IS     -249.7064407790 AFTER  27 ITERATIONS

          --------------------
          SPIN SZ   =    0.500
          S-SQUARED =    0.753
          --------------------

  ----- ALPHA SET ----- 

          ------------
          EIGENVECTORS
          ------------

                      1          2          3          4          5
                  -15.3066   -11.0191   -10.9755   -10.9647   -10.9633
                     A          A          A          A          A   
    1  C  1  S    0.000005  -0.000450   0.987471   0.006791   0.007882
    2  C  1  S   -0.000017  -0.000261   0.101665  -0.000025  -0.001571
    3  C  1  X    0.000168   0.000022  -0.000045   0.000433  -0.000515
    4  C  1  Y   -0.000016   0.000033   0.000056  -0.000074  -0.000146
    5  C  1  Z   -0.000016   0.000028   0.000025  -0.000086  -0.000155
    6  C  1  S   -0.000700   0.001531  -0.080675   0.000552   0.020762
    7  C  1  X   -0.000125  -0.000607   0.004445  -0.002166  -0.010352
    8  C  1  Y    0.000265  -0.000790   0.001543   0.000728  -0.004633
    9  C  1  Z    0.000344  -0.000742   0.001663   0.000758  -0.004866
   10  H  2  S   -0.000022  -0.000085   0.000330  -0.000314  -0.001370
   11  H  2  S   -0.000040   0.000269   0.014319  -0.000089   0.000647
   12  C  3  S   -0.000048  -0.001659  -0.008105  -0.075378   0.985082
   13  C  3  S   -0.000274  -0.001107  -0.002745  -0.008444   0.104111
   14  C  3  X   -0.000141   0.000458   0.000047   0.000660   0.000167
   15  C  3  Y   -0.000068   0.000087  -0.000045   0.000163   0.000281
   16  C  3  Z   -0.000039   0.000120  -0.000050   0.000158   0.000249
   17  C  3  S    0.002207   0.003227   0.018666   0.006140  -0.092044
   18  C  3  X   -0.000280  -0.004134   0.009948  -0.000490   0.001440
   19  C  3  Y    0.001058  -0.000301   0.004757  -0.001021  -0.004688
   20  C  3  Z    0.000796  -0.000586   0.004994  -0.000889  -0.004975
   21  C  4  S   -0.000108  -0.001670  -0.003874  -0.004527  -0.005411
   22  C  4  S   -0.000688  -0.000880  -0.001234  -0.002840  -0.003305
   23  C  4  X    0.000607   0.000890  -0.001009  -0.000317   0.000261
   24  C  4  Y   -0.000031  -0.000173  -0.000296   0.000027   0.000075
   25  C  4  Z   -0.000144  -0.000264  -0.000312   0.000077   0.000076
   26  C  4  S    0.001571  -0.000566  -0.000273   0.021263   0.024934
   27  C  4  X   -0.004183  -0.002003   0.003156  -0.012367   0.011049
   28  C  4  Y    0.000157   0.001470   0.002092  -0.004989  -0.005308
   29  C  4  Z    0.000741   0.002180   0.002233  -0.005589  -0.005661
   30  C  5  S    0.000140  -0.002852  -0.007659   0.985106   0.075329
   31  C  5  S    0.000374  -0.002974  -0.001743   0.104467   0.007531
   32  C  5  X    0.000612  -0.000074  -0.000350  -0.000133  -0.000684
   33  C  5  Y    0.000064  -0.000123   0.000036   0.000214   0.000159
   34  C  5  Z    0.000123  -0.000021   0.000032   0.000268   0.000191
   35  C  5  S   -0.005161   0.023336   0.004545  -0.093384  -0.008437
   36  C  5  X    0.001572  -0.013066   0.003646   0.000256   0.000559
   37  C  5  Y   -0.001299   0.005522   0.000339  -0.004843  -0.001781
   38  C  5  Z   -0.001440   0.005075   0.000404  -0.005161  -0.002027
   39  C  6  S   -0.000663   0.987822   0.000368   0.001813   0.001544
   40  C  6  S   -0.002896   0.102710  -0.000094  -0.002363  -0.000938
   41  C  6  X   -0.001028   0.000398  -0.000051   0.000578  -0.000322
   42  C  6  Y   -0.000468   0.000194   0.000011   0.000035  -0.000066
   43  C  6  Z   -0.000455  -0.000086   0.000033  -0.000009  -0.000068
   44  C  6  S    0.021014  -0.085112   0.000631   0.022417   0.004360
   45  C  6  X   -0.007960  -0.007033   0.000369   0.011104   0.004088
   46  C  6  Y   -0.005292   0.001323  -0.000332  -0.004373   0.000073
   47  C  6  Z   -0.005873   0.004282  -0.000493  -0.005118   0.000103
   48  N  7  S    0.985852  -0.000229  -0.000002   0.000043  -0.000018
   49  N  7  S    0.100159  -0.000991  -0.000047  -0.000117  -0.000192
   50  N  7  X    0.000056   0.000012  -0.000088  -0.000518  -0.000056
   51  N  7  Y   -0.000223  -0.000080   0.000022   0.000142  -0.000067
   52  N  7  Z    0.003417   0.000159   0.000015  -0.000079  -0.000055
   53  N  7  S   -0.057369   0.011289  -0.000044  -0.001312   0.000879
   54  N  7  X   -0.004025   0.005920   0.000275  -0.000147   0.000238
   55  N  7  Y   -0.001446   0.002834  -0.000115  -0.000862   0.000473
   56  N  7  Z   -0.009035   0.002362  -0.000063   0.000077   0.000461
   57  H  8  S   -0.000044  -0.000446  -0.001119  -0.000033   0.001012
   58  H  8  S    0.000028  -0.000213   0.000829  -0.002184   0.014363
   59  H  9  S   -0.000055  -0.000409  -0.001119  -0.000009   0.001028
   60  H  9  S    0.000330  -0.000082   0.000840  -0.002426   0.014337
   61  H 10  S   -0.000459  -0.000092  -0.000191  -0.001193  -0.001409
   62  H 10  S   -0.000103  -0.001639  -0.001385   0.000705   0.000754
   63  H 11  S   -0.000360  -0.000014  -0.000200  -0.001245  -0.001415
   64  H 11  S    0.000143  -0.001325  -0.001345   0.000595   0.000794
   65  H 12  S    0.000043  -0.001562  -0.000358   0.001050   0.000152
   66  H 12  S    0.000028   0.001004  -0.000149   0.014621  -0.000178
   67  H 13  S    0.000489  -0.001289  -0.000393   0.001036   0.000149
   68  H 13  S   -0.001101   0.001202  -0.000151   0.014575  -0.000152
   69  H 14  S   -0.001299   0.000548  -0.000053  -0.001324  -0.000541
   70  H 14  S   -0.000757   0.014115   0.000304   0.000709   0.000036
   71  H 15  S   -0.001324   0.000866  -0.000067  -0.001376  -0.000503
   72  H 15  S   -0.000968   0.015644   0.000214   0.000642   0.000058
   73  H 16  S    0.002105  -0.000733  -0.000076  -0.000048  -0.000023
   74  H 16  S    0.007551   0.002309   0.000073  -0.001018   0.000213
   75  H 17  S    0.002145  -0.000530   0.000072   0.000039  -0.000172
   76  H 17  S    0.007564   0.001490   0.000131   0.001357   0.000315
   77  H 18  S    0.000054  -0.000156   0.000146   0.000131  -0.001042
   78  H 18  S    0.000360   0.000014   0.013685   0.001237   0.000289
   79  H 19  S   -0.000013  -0.000071   0.000327  -0.000308  -0.001373
   80  H 19  S   -0.000018   0.000304   0.014343  -0.000104   0.000666

                      6          7          8          9         10
                  -10.9386    -1.0110    -0.8772    -0.8163    -0.7203
                     A          A          A          A          A   
    1  C  1  S    0.003840  -0.000983  -0.087308   0.121589  -0.117676
    2  C  1  S   -0.000560   0.001542   0.089618  -0.117190   0.108725
    3  C  1  X    0.000788  -0.001161  -0.032171   0.015909   0.039820
    4  C  1  Y   -0.000034  -0.000215  -0.012180   0.010008   0.011916
    5  C  1  Z   -0.000036  -0.000198  -0.012823   0.010622   0.012433
    6  C  1  S    0.001100   0.001013   0.203993  -0.331323   0.376049
    7  C  1  X   -0.000605   0.001722   0.007823   0.000528   0.015629
    8  C  1  Y    0.000212   0.000526   0.001589   0.000206   0.004217
    9  C  1  Z    0.000222   0.000225   0.001416   0.000580   0.003912
   10  H  2  S    0.000022   0.000613   0.042686  -0.062527   0.072988
   11  H  2  S   -0.001062  -0.000120   0.002342  -0.006023   0.016505
   12  C  3  S    0.004142  -0.003234  -0.124647   0.085801   0.041814
   13  C  3  S   -0.001963   0.005092   0.121791  -0.079245  -0.038538
   14  C  3  X   -0.000535  -0.002675  -0.012252  -0.053929   0.094211
   15  C  3  Y   -0.000009   0.000528   0.016902  -0.011670   0.006925
   16  C  3  Z   -0.000002   0.000497   0.018242  -0.012320   0.006920
   17  C  3  S    0.020834  -0.002442   0.308449  -0.240746  -0.131056
   18  C  3  X   -0.011792   0.006621   0.006531  -0.001423   0.019980
   19  C  3  Y    0.004138  -0.002424   0.004323  -0.002879   0.000665
   20  C  3  Z    0.004378  -0.001538   0.003975  -0.002271   0.000613
   21  C  4  S    0.987971  -0.011037  -0.123821  -0.032579   0.113148
   22  C  4  S    0.104571   0.013046   0.123971   0.031483  -0.101995
   23  C  4  X    0.000011  -0.009424   0.009613  -0.073512  -0.023200
   24  C  4  Y   -0.000453  -0.002016  -0.016641  -0.005918   0.002767
   25  C  4  Z   -0.000596  -0.001726  -0.017142  -0.005772   0.002699
   26  C  4  S   -0.092534   0.021030   0.291235   0.082842  -0.354735
   27  C  4  X    0.000056   0.012607  -0.005043   0.008258   0.000741
   28  C  4  Y    0.004821  -0.001611  -0.002505   0.001417   0.001335
   29  C  4  Z    0.005299  -0.004262  -0.003733   0.001249   0.003088
   30  C  5  S    0.003991  -0.037422  -0.096680  -0.121156  -0.013037
   31  C  5  S   -0.002108   0.037838   0.095591   0.112984   0.011837
   32  C  5  X    0.000386  -0.026390   0.025421  -0.022962  -0.098588
   33  C  5  Y   -0.000037   0.005489   0.014554   0.013085   0.000999
   34  C  5  Z   -0.000069   0.006597   0.016619   0.015265   0.000583
   35  C  5  S    0.022226   0.076455   0.233197   0.338501   0.043471
   36  C  5  X    0.010956  -0.003453  -0.006193   0.004897  -0.013094
   37  C  5  Y    0.005384  -0.003686   0.003192   0.007896   0.004460
   38  C  5  Z    0.005866   0.000015   0.003090   0.006804   0.000740
   39  C  6  S    0.001664  -0.101361  -0.035036  -0.083194  -0.115535
   40  C  6  S   -0.000535   0.103764   0.037606   0.081318   0.106909
   41  C  6  X   -0.000603  -0.050756   0.049306   0.069665   0.021723
   42  C  6  Y   -0.000126  -0.030504   0.000413   0.001333   0.019359
   43  C  6  Z   -0.000099  -0.032873  -0.001364  -0.003091   0.011312
   44  C  6  S   -0.000132   0.201135   0.079391   0.226909   0.370670
   45  C  6  X    0.000076   0.005883  -0.001910   0.013336   0.009553
   46  C  6  Y    0.001108   0.005895  -0.000395  -0.000598   0.006564
   47  C  6  Z    0.001127   0.002023   0.002393   0.004456   0.011977
   48  N  7  S   -0.000047  -0.196872   0.041997   0.059138   0.049126
   49  N  7  S   -0.000485   0.175906  -0.035238  -0.049651  -0.040862
   50  N  7  X   -0.000424   0.005166   0.023285   0.053779   0.082684
   51  N  7  Y    0.000053  -0.004106   0.008640   0.021950   0.046007
   52  N  7  Z    0.000061   0.062331  -0.008823  -0.006306   0.012229
   53  N  7  S    0.001238   0.592635  -0.144887  -0.212833  -0.191881
   54  N  7  X    0.002144   0.003512   0.006735   0.027070   0.053057
   55  N  7  Y   -0.000235  -0.003846   0.004267   0.012939   0.030708
   56  N  7  Z   -0.000131   0.073153  -0.015934  -0.018921  -0.004092
   57  H  8  S   -0.001344   0.002011   0.058057  -0.041030  -0.025595
   58  H  8  S    0.000780   0.000072  -0.000485   0.000965  -0.006067
   59  H  9  S   -0.001336   0.001908   0.057498  -0.040670  -0.025251
   60  H  9  S    0.000818  -0.000504  -0.000853   0.001087  -0.005826
   61  H 10  S    0.001010   0.005416   0.054694   0.014836  -0.056925
   62  H 10  S    0.014406   0.001052  -0.002285  -0.000850  -0.000975
   63  H 11  S    0.001013   0.005200   0.055646   0.015039  -0.058070
   64  H 11  S    0.014499  -0.000148  -0.001623  -0.000675  -0.001925
   65  H 12  S   -0.001328   0.015697   0.045205   0.059302   0.007266
   66  H 12  S    0.000993  -0.000557  -0.001312  -0.001601  -0.003188
   67  H 13  S   -0.001337   0.014994   0.045467   0.058643   0.005015
   68  H 13  S    0.000866  -0.000671   0.000404   0.001386  -0.001148
   69  H 14  S    0.000008   0.037783   0.019103   0.044561   0.071210
   70  H 14  S   -0.001158  -0.004025  -0.000319   0.001208   0.010372
   71  H 15  S    0.000020   0.039212   0.019797   0.046995   0.077202
   72  H 15  S   -0.001195  -0.004704   0.001490   0.005262   0.017370
   73  H 16  S   -0.000403   0.100808  -0.026569  -0.044760  -0.055754
   74  H 16  S    0.000526   0.018710  -0.011039  -0.020573  -0.033848
   75  H 17  S    0.000294   0.100680  -0.031220  -0.052884  -0.057663
   76  H 17  S    0.000652   0.020567  -0.015921  -0.028241  -0.035872
   77  H 18  S   -0.000279   0.000474   0.040652  -0.065029   0.081712
   78  H 18  S    0.001470  -0.001353  -0.002338  -0.011969   0.028813
   79  H 19  S    0.000026   0.000577   0.042923  -0.062940   0.073489
   80  H 19  S   -0.001073  -0.000260   0.002746  -0.006542   0.017123

                     11         12         13         14         15
                   -0.6369    -0.5996    -0.4980    -0.4597    -0.4347
                     A          A          A          A          A   
    1  C  1  S   -0.073627  -0.037258  -0.003680  -0.002413   0.000661
    2  C  1  S    0.066019   0.033563   0.002678   0.001659   0.000175
    3  C  1  X    0.068803   0.038751   0.019913   0.032326  -0.045757
    4  C  1  Y    0.038197   0.049609   0.008694  -0.068319  -0.077442
    5  C  1  Z    0.040354   0.052391  -0.009566   0.041732   0.134590
    6  C  1  S    0.269078   0.147165   0.016863   0.011393  -0.001334
    7  C  1  X    0.028961   0.012469   0.012837   0.022282  -0.031987
    8  C  1  Y    0.016254   0.025203   0.005087  -0.048805  -0.059851
    9  C  1  Z    0.016526   0.026397  -0.006701   0.030074   0.101842
   10  H  2  S    0.062110   0.047016  -0.005069   0.036761   0.098503
   11  H  2  S    0.026816   0.029466  -0.007536   0.035612   0.095835
   12  C  3  S    0.099147   0.093566   0.003824   0.001450  -0.000336
   13  C  3  S   -0.087984  -0.082801  -0.002854  -0.000141  -0.000039
   14  C  3  X    0.018602  -0.040618  -0.000752   0.011291  -0.030563
   15  C  3  Y    0.029796   0.074832   0.002956  -0.111606  -0.080915
   16  C  3  Z    0.031745   0.079350  -0.032543   0.046994   0.161134
   17  C  3  S   -0.349055  -0.352858  -0.014165  -0.003640  -0.001788
   18  C  3  X   -0.000821  -0.013582  -0.003279   0.007059  -0.023645
   19  C  3  Y    0.010854   0.036393   0.002170  -0.081185  -0.060906
   20  C  3  Z    0.013043   0.039142  -0.021999   0.033341   0.118911
   21  C  4  S   -0.003313  -0.115672   0.011239   0.011541  -0.010077
   22  C  4  S    0.001786   0.104648  -0.011191  -0.009593   0.009292
   23  C  4  X   -0.081751  -0.018742  -0.028027  -0.049517   0.072476
   24  C  4  Y   -0.006067   0.081671  -0.001547  -0.120574  -0.065723
   25  C  4  Z   -0.005322   0.086200  -0.062593   0.056382   0.091763
   26  C  4  S    0.014031   0.431415  -0.049060  -0.052173   0.043146
   27  C  4  X   -0.019858  -0.009855  -0.012881  -0.026614   0.043735
   28  C  4  Y   -0.001893   0.035617  -0.000730  -0.079761  -0.047684
   29  C  4  Z   -0.003187   0.036813  -0.039293   0.040100   0.064425
   30  C  5  S   -0.105812   0.072223  -0.030667  -0.017573   0.008561
   31  C  5  S    0.092848  -0.063464   0.022470   0.012720  -0.006139
   32  C  5  X    0.033755   0.045944   0.054914   0.057362  -0.033403
   33  C  5  Y   -0.040846   0.074680   0.038137  -0.101860  -0.072382
   34  C  5  Z   -0.039236   0.076062  -0.082176   0.115060  -0.028923
   35  C  5  S    0.375212  -0.279737   0.139649   0.079349  -0.030376
   36  C  5  X   -0.003094   0.014907   0.024704   0.036872  -0.030685
   37  C  5  Y   -0.020128   0.035624   0.027833  -0.070781  -0.056885
   38  C  5  Z   -0.015940   0.036946  -0.047732   0.090728  -0.021005
   39  C  6  S    0.101410  -0.023463   0.018930   0.003488   0.001097
   40  C  6  S   -0.091346   0.021357  -0.014870  -0.002013  -0.000888
   41  C  6  X    0.061228  -0.032499  -0.029346   0.036375  -0.101281
   42  C  6  Y   -0.069351   0.057750   0.142015  -0.018607  -0.045237
   43  C  6  Z   -0.056865   0.052816  -0.066183   0.198115  -0.160898
   44  C  6  S   -0.370246   0.098321  -0.079849  -0.008229  -0.025756
   45  C  6  X    0.023456  -0.011037  -0.038943   0.004250  -0.058474
   46  C  6  Y   -0.035801   0.035515   0.118371  -0.013427  -0.025077
   47  C  6  Z   -0.034806   0.029824  -0.045239   0.140277  -0.108621
   48  N  7  S   -0.028085   0.002732  -0.006201   0.019956  -0.019740
   49  N  7  S    0.023922  -0.003036   0.006612  -0.017026   0.014978
   50  N  7  X   -0.059922  -0.023723  -0.164143  -0.190466   0.158121
   51  N  7  Y   -0.079210   0.039461   0.263787   0.024400   0.134815
   52  N  7  Z   -0.036488   0.018823  -0.014281   0.055224  -0.007515
   53  N  7  S    0.118728  -0.012601   0.021755  -0.087574   0.092494
   54  N  7  X   -0.042533  -0.020953  -0.142205  -0.176616   0.158836
   55  N  7  Y   -0.059300   0.031326   0.231597   0.017745   0.133699
   56  N  7  Z   -0.022131   0.016538  -0.017214   0.054167  -0.007631
   57  H  8  S   -0.072481  -0.093339   0.017872  -0.044521  -0.112705
   58  H  8  S   -0.022707  -0.047311   0.020159  -0.045567  -0.107859
   59  H  9  S   -0.071435  -0.092434  -0.007267   0.073424   0.066241
   60  H  9  S   -0.021974  -0.046846  -0.005534   0.072214   0.066611
   61  H 10  S    0.000332   0.101214  -0.042411   0.043248   0.068636
   62  H 10  S   -0.000884   0.044472  -0.036770   0.055955   0.067423
   63  H 11  S   -0.000270   0.104234  -0.001442  -0.085120  -0.044086
   64  H 11  S   -0.002018   0.047078   0.008508  -0.083068  -0.054110
   65  H 12  S    0.079444  -0.077282   0.073527  -0.072386   0.000952
   66  H 12  S    0.026725  -0.038937   0.055281  -0.070045  -0.001703
   67  H 13  S    0.082816  -0.079676  -0.009817   0.087287   0.036453
   68  H 13  S    0.030033  -0.045705  -0.026368   0.076066   0.038094
   69  H 14  S   -0.085936   0.038101  -0.069355   0.123714  -0.096579
   70  H 14  S   -0.032847   0.026100  -0.058809   0.117760  -0.088830
   71  H 15  S   -0.097528   0.043900   0.079867  -0.033489  -0.016056
   72  H 15  S   -0.041374   0.027483   0.065715  -0.037505  -0.012422
   73  H 16  S    0.065736  -0.026035  -0.177503  -0.024996  -0.089158
   74  H 16  S    0.049127  -0.021297  -0.148045  -0.018589  -0.085784
   75  H 17  S    0.024871   0.024406   0.189099   0.125553  -0.045461
   76  H 17  S    0.018643   0.017826   0.166562   0.117854  -0.046056
   77  H 18  S    0.062283   0.022064   0.013374   0.025694  -0.043345
   78  H 18  S    0.029615   0.009019   0.011273   0.024184  -0.043961
   79  H 19  S    0.062427   0.047225   0.008536  -0.047493  -0.064540
   80  H 19  S    0.027084   0.029771   0.006882  -0.048843  -0.063881

                     16         17         18         19         20
                   -0.4086    -0.3862    -0.3639    -0.3443    -0.3168
                     A          A          A          A          A   
    1  C  1  S   -0.001080   0.003599   0.004073   0.004328   0.008183
    2  C  1  S    0.001355  -0.004293  -0.003954  -0.004059  -0.006787
    3  C  1  X   -0.079715   0.208386   0.159872   0.059051   0.028597
    4  C  1  Y    0.178769  -0.072442   0.009161   0.213469   0.083610
    5  C  1  Z   -0.024840  -0.174069   0.145075  -0.039318   0.193208
    6  C  1  S    0.007921  -0.014500  -0.003106  -0.010407  -0.025190
    7  C  1  X   -0.056373   0.154128   0.132415   0.052059   0.029624
    8  C  1  Y    0.139744  -0.056054   0.003323   0.186596   0.073842
    9  C  1  Z   -0.023623  -0.141437   0.122321  -0.038273   0.173939
   10  H  2  S   -0.038613  -0.115670   0.094364  -0.064173   0.125577
   11  H  2  S   -0.038805  -0.110792   0.092643  -0.064519   0.137552
   12  C  3  S   -0.001968   0.020094   0.016783   0.002849  -0.001560
   13  C  3  S    0.000372  -0.014809  -0.012707  -0.002071   0.000569
   14  C  3  X   -0.062665   0.026012  -0.178268  -0.097973  -0.046150
   15  C  3  Y    0.140756  -0.052943  -0.064845  -0.069619  -0.085609
   16  C  3  Z   -0.020201  -0.104527  -0.047688  -0.031076  -0.159324
   17  C  3  S    0.005277  -0.085315  -0.066177  -0.003514   0.030341
   18  C  3  X   -0.051168   0.026898  -0.128219  -0.069635  -0.023445
   19  C  3  Y    0.110283  -0.045967  -0.046851  -0.061661  -0.070636
   20  C  3  Z   -0.014483  -0.085269  -0.037728  -0.017300  -0.138510
   21  C  4  S    0.001029  -0.031404  -0.020546  -0.003868   0.004776
   22  C  4  S   -0.000592   0.023884   0.012221   0.001486  -0.003583
   23  C  4  X    0.089568  -0.082832   0.006382  -0.017864  -0.108560
   24  C  4  Y   -0.021404   0.011816  -0.063908  -0.179104   0.011075
   25  C  4  Z   -0.026803   0.053827  -0.169943   0.037284  -0.059656
   26  C  4  S   -0.014233   0.151416   0.073333   0.010688  -0.030881
   27  C  4  X    0.058140  -0.048903   0.010762  -0.012898  -0.068843
   28  C  4  Y   -0.017647   0.010910  -0.050376  -0.144834   0.011406
   29  C  4  Z   -0.019946   0.045144  -0.132028   0.028545  -0.049687
   30  C  5  S   -0.001040   0.009304   0.014996   0.009123  -0.006971
   31  C  5  S    0.000401  -0.007952  -0.011995  -0.005638   0.006459
   32  C  5  X    0.014112   0.035475   0.186307   0.062537  -0.055620
   33  C  5  Y   -0.161171  -0.027927   0.017306  -0.036391   0.134296
   34  C  5  Z   -0.005513   0.073793  -0.104422   0.102794   0.176501
   35  C  5  S    0.023398  -0.037987  -0.047380  -0.055812   0.000771
   36  C  5  X    0.000170   0.022796   0.134328   0.047407  -0.024741
   37  C  5  Y   -0.117613  -0.020609   0.030377  -0.044984   0.116907
   38  C  5  Z   -0.001318   0.061013  -0.086460   0.094111   0.154710
   39  C  6  S   -0.000767   0.005251   0.001496  -0.000951  -0.009477
   40  C  6  S    0.001598  -0.003406  -0.001133  -0.000875   0.007877
   41  C  6  X   -0.120960  -0.092193  -0.179118   0.011573   0.116195
   42  C  6  Y   -0.141895  -0.105127   0.045516   0.163823  -0.158241
   43  C  6  Z    0.059527  -0.065898   0.089943  -0.078825  -0.071321
   44  C  6  S   -0.021911  -0.044198  -0.011474   0.023948   0.035810
   45  C  6  X   -0.091084  -0.058699  -0.145490   0.011218   0.106707
   46  C  6  Y   -0.110745  -0.081622   0.035553   0.145296  -0.145166
   47  C  6  Z    0.071813  -0.036494   0.094269  -0.087776  -0.070496
   48  N  7  S    0.003983  -0.016964   0.005434  -0.012640  -0.015320
   49  N  7  S   -0.007597   0.010347  -0.009303   0.014181   0.012870
   50  N  7  X    0.050672   0.124255   0.086959   0.026272   0.011629
   51  N  7  Y    0.127086   0.108057  -0.048384  -0.052116   0.077116
   52  N  7  Z    0.101627   0.038458   0.099759  -0.107693  -0.030531
   53  N  7  S   -0.004969   0.087188  -0.012647   0.045667   0.068862
   54  N  7  X    0.061909   0.133729   0.096195   0.020717   0.008951
   55  N  7  Y    0.127274   0.113059  -0.046062  -0.052835   0.081440
   56  N  7  Z    0.107750   0.044375   0.112953  -0.123607  -0.034293
   57  H  8  S    0.032294   0.046798   0.010643   0.007012   0.103110
   58  H  8  S    0.033222   0.047491   0.020412   0.004969   0.105436
   59  H  9  S   -0.091524   0.010718   0.024771   0.043990   0.043861
   60  H  9  S   -0.082970   0.014001   0.031733   0.049277   0.040238
   61  H 10  S   -0.014424   0.050169  -0.083317   0.050800  -0.041946
   62  H 10  S   -0.010791   0.026891  -0.084042   0.057241  -0.039227
   63  H 11  S   -0.011954   0.022405  -0.010764  -0.117408   0.011291
   64  H 11  S   -0.007093  -0.000099  -0.008425  -0.115965   0.013622
   65  H 12  S   -0.018618  -0.059957   0.063223  -0.083032  -0.099544
   66  H 12  S   -0.019503  -0.051355   0.067905  -0.072630  -0.096611
   67  H 13  S    0.104196   0.017695  -0.026630   0.033654  -0.078560
   68  H 13  S    0.094794   0.020458  -0.012090   0.045413  -0.088588
   69  H 14  S    0.058067  -0.033996   0.052916  -0.077864  -0.021803
   70  H 14  S    0.053598  -0.032117   0.049835  -0.080414  -0.028766
   71  H 15  S   -0.100523  -0.070794   0.025110   0.128208  -0.108779
   72  H 15  S   -0.091471  -0.062302   0.027558   0.125262  -0.118635
   73  H 16  S   -0.096102  -0.073399   0.037852   0.049555  -0.058890
   74  H 16  S   -0.094567  -0.078940   0.038242   0.060005  -0.077286
   75  H 17  S    0.023381  -0.028884  -0.070595  -0.048312   0.030428
   76  H 17  S    0.020536  -0.033072  -0.081678  -0.053255   0.037498
   77  H 18  S   -0.087793   0.197282   0.051450  -0.016961  -0.079168
   78  H 18  S   -0.093419   0.216869   0.057449  -0.019437  -0.096316
   79  H 19  S    0.126157  -0.038845  -0.014978   0.156343   0.034632
   80  H 19  S    0.122100  -0.036190  -0.014869   0.161214   0.039569

                     21         22         23         24         25
                   -0.2921    -0.2700    -0.2596    -0.2534    -0.2184
                     A          A          A          A          A   
    1  C  1  S    0.000714   0.022515   0.018082  -0.000605   0.007600
    2  C  1  S   -0.000659  -0.017907  -0.014144   0.000696  -0.005511
    3  C  1  X   -0.011822   0.101041   0.174263  -0.004791   0.050535
    4  C  1  Y    0.144957   0.088896   0.005997  -0.038622   0.005509
    5  C  1  Z   -0.098570   0.096972  -0.006451   0.034586   0.012915
    6  C  1  S   -0.001821  -0.094248  -0.079854   0.001092  -0.032664
    7  C  1  X   -0.010074   0.084344   0.167479  -0.004279   0.054686
    8  C  1  Y    0.130013   0.085055   0.003616  -0.030449   0.005271
    9  C  1  Z   -0.087850   0.092697  -0.006901   0.026589   0.010096
   10  H  2  S   -0.101962   0.045730  -0.027309   0.043247   0.002154
   11  H  2  S   -0.121470   0.071239  -0.030473   0.074168   0.006398
   12  C  3  S    0.000606   0.014702  -0.017373   0.000454  -0.008602
   13  C  3  S   -0.000218  -0.012568   0.013142  -0.000780   0.006184
   14  C  3  X    0.021755  -0.003660  -0.252690   0.006113  -0.074194
   15  C  3  Y   -0.175072  -0.144336   0.045710   0.129065   0.021083
   16  C  3  Z    0.111756  -0.160931   0.070530  -0.122442  -0.003214
   17  C  3  S    0.001874  -0.035965   0.075659   0.000684   0.042533
   18  C  3  X    0.019741   0.002640  -0.218377   0.005297  -0.068923
   19  C  3  Y   -0.160198  -0.133230   0.046225   0.115721   0.017414
   20  C  3  Z    0.102225  -0.146552   0.068571  -0.109223  -0.003578
   21  C  4  S    0.002320   0.015839  -0.009682  -0.000321   0.000899
   22  C  4  S   -0.000335  -0.011118   0.005668   0.001734   0.003623
   23  C  4  X   -0.037418   0.048310   0.264138  -0.007294   0.080691
   24  C  4  Y   -0.017379   0.186629  -0.037950  -0.186541  -0.013273
   25  C  4  Z    0.038983   0.201855  -0.045198   0.175845   0.018492
   26  C  4  S   -0.017080  -0.025067   0.042707  -0.005382  -0.031364
   27  C  4  X   -0.023337   0.036694   0.218634  -0.005891   0.096946
   28  C  4  Y   -0.015770   0.164862  -0.034238  -0.171211  -0.007506
   29  C  4  Z    0.039560   0.178757  -0.045485   0.162691   0.030705
   30  C  5  S   -0.006945   0.023607   0.017823  -0.001910  -0.011873
   31  C  5  S    0.004619  -0.019192  -0.011437   0.001069   0.006630
   32  C  5  X   -0.015631  -0.119593  -0.192611   0.004759  -0.132533
   33  C  5  Y    0.176987  -0.143270   0.007214   0.111375   0.005063
   34  C  5  Z   -0.116640  -0.150805  -0.036710  -0.103618   0.045517
   35  C  5  S    0.038479  -0.084553  -0.105163   0.015054   0.087693
   36  C  5  X   -0.001437  -0.108298  -0.166025   0.008611  -0.092372
   37  C  5  Y    0.171127  -0.136042  -0.008277   0.101069   0.042463
   38  C  5  Z   -0.107749  -0.142678  -0.036956  -0.095212   0.046546
   39  C  6  S   -0.001172   0.006472  -0.023845   0.001261  -0.017643
   40  C  6  S    0.002361  -0.004940   0.016662  -0.000763   0.021508
   41  C  6  X    0.000889  -0.017555   0.160706  -0.007499   0.062490
   42  C  6  Y   -0.111949   0.044288  -0.074895  -0.021222   0.016258
   43  C  6  Z    0.033202   0.036497   0.017490   0.018714  -0.171342
   44  C  6  S   -0.009002  -0.026259   0.132113  -0.007479   0.031916
   45  C  6  X    0.000484  -0.010215   0.148528  -0.006690   0.056306
   46  C  6  Y   -0.101434   0.045832  -0.070719  -0.015213   0.001696
   47  C  6  Z    0.038725   0.037275  -0.013192   0.013658  -0.105030
   48  N  7  S    0.007530   0.011060  -0.001794   0.000330   0.057932
   49  N  7  S   -0.009983  -0.007956   0.007833  -0.001431  -0.053810
   50  N  7  X   -0.003540  -0.040890  -0.074229   0.002380  -0.080251
   51  N  7  Y    0.013494  -0.017552   0.020077  -0.003789  -0.074300
   52  N  7  Z    0.096204  -0.015693  -0.148108   0.016129   0.375648
   53  N  7  S   -0.024527  -0.051028  -0.006972   0.002854  -0.274062
   54  N  7  X   -0.001299  -0.041308  -0.093239   0.002702  -0.090767
   55  N  7  Y    0.011731  -0.019438   0.018239  -0.004506  -0.093424
   56  N  7  Z    0.118081  -0.021602  -0.192149   0.018990   0.508083
   57  H  8  S   -0.111543   0.092454  -0.037006   0.125338   0.011255
   58  H  8  S   -0.124961   0.118643  -0.049936   0.166363   0.009619
   59  H  9  S    0.143356   0.084062  -0.018578  -0.124982  -0.012473
   60  H  9  S    0.158849   0.108787  -0.028887  -0.167944  -0.023178
   61  H 10  S    0.028378   0.104811  -0.023292   0.168129   0.010205
   62  H 10  S    0.029941   0.132167  -0.028406   0.229999  -0.006840
   63  H 11  S   -0.017201   0.105051  -0.023119  -0.168938  -0.013387
   64  H 11  S   -0.018012   0.130189  -0.036144  -0.225624  -0.016731
   65  H 12  S    0.120560   0.074485   0.014074   0.109753  -0.034112
   66  H 12  S    0.120345   0.094345   0.025846   0.138636  -0.091250
   67  H 13  S   -0.142053   0.077003  -0.032825  -0.107449   0.008083
   68  H 13  S   -0.160164   0.105388  -0.046505  -0.148997   0.016537
   69  H 14  S    0.044932   0.021201   0.051711   0.025441  -0.149662
   70  H 14  S    0.060836   0.037748   0.060472   0.054767  -0.224260
   71  H 15  S   -0.093435   0.031228  -0.047953  -0.028178   0.060994
   72  H 15  S   -0.112391   0.047231  -0.071403  -0.053226   0.075998
   73  H 16  S   -0.017857   0.009427  -0.025932   0.000372   0.047880
   74  H 16  S   -0.034611   0.021915  -0.031472  -0.007155   0.055088
   75  H 17  S    0.019715   0.013311   0.044637  -0.001200   0.062028
   76  H 17  S    0.023380   0.019212   0.065172  -0.000708   0.078143
   77  H 18  S   -0.022878  -0.012952   0.115312  -0.002269   0.026582
   78  H 18  S   -0.029094  -0.008590   0.157196  -0.003403   0.037190
   79  H 19  S    0.128554   0.042822  -0.015009  -0.043339  -0.005970
   80  H 19  S    0.153352   0.066893  -0.013439  -0.072939  -0.008398

                     26         27         28         29         30
                    0.2420     0.3974     0.4368     0.4470     0.4618
                     A          A          A          A          A   
    1  C  1  S   -0.045067   0.046682  -0.098173  -0.036278  -0.040789
    2  C  1  S    0.011580  -0.012577   0.022868   0.003876   0.003983
    3  C  1  X    0.043898  -0.032278   0.075930   0.000810  -0.019610
    4  C  1  Y    0.037488  -0.014605   0.015321   0.068562  -0.022448
    5  C  1  Z    0.049967  -0.013493   0.022750  -0.001311   0.096726
    6  C  1  S    0.653606  -0.627836   1.362895   0.534355   0.588028
    7  C  1  X    0.203600  -0.180394   0.349545   0.015718  -0.069770
    8  C  1  Y    0.203482  -0.093869   0.118686   0.244022  -0.122844
    9  C  1  Z    0.247749  -0.092319   0.150410  -0.009532   0.329962
   10  H  2  S    0.005326  -0.002818  -0.006950  -0.000571  -0.011013
   11  H  2  S   -0.434511   0.300202  -0.658728  -0.120075  -0.745870
   12  C  3  S   -0.059446   0.027364  -0.045629   0.023894   0.055594
   13  C  3  S    0.017618  -0.007568   0.006479   0.000244  -0.004589
   14  C  3  X    0.024397  -0.009113  -0.028054  -0.013513  -0.013608
   15  C  3  Y   -0.059600   0.022811  -0.022960   0.089499  -0.006018
   16  C  3  Z   -0.045885   0.026777  -0.018603  -0.006938   0.124930
   17  C  3  S    0.856864  -0.382380   0.675163  -0.360432  -0.807215
   18  C  3  X    0.099039  -0.023599  -0.227389  -0.110634  -0.128947
   19  C  3  Y   -0.321635   0.113832  -0.074017   0.294901  -0.003860
   20  C  3  Z   -0.287858   0.121219  -0.061912  -0.031642   0.431843
   21  C  4  S   -0.086113   0.027973   0.039052  -0.013123  -0.021832
   22  C  4  S    0.025145  -0.012524  -0.005024  -0.001839  -0.001318
   23  C  4  X   -0.008880   0.040529   0.012286   0.002273  -0.010268
   24  C  4  Y    0.071871   0.004181  -0.015703   0.106416  -0.036838
   25  C  4  Z    0.102826   0.015298  -0.011133  -0.006663   0.123661
   26  C  4  S    1.237079  -0.303200  -0.584063   0.209774   0.318484
   27  C  4  X   -0.074226   0.126253  -0.216212  -0.002358  -0.023436
   28  C  4  Y    0.387335   0.009736  -0.068648   0.340307  -0.146306
   29  C  4  Z    0.495317   0.053819  -0.041302  -0.010929   0.385004
   30  C  5  S   -0.047882  -0.031339   0.042310   0.042215   0.059300
   31  C  5  S    0.014964   0.014100  -0.008898   0.001491  -0.007610
   32  C  5  X   -0.020158   0.012698  -0.018789  -0.011625   0.007565
   33  C  5  Y   -0.063238  -0.034124  -0.004855   0.134705  -0.000288
   34  C  5  Z   -0.040118   0.002485   0.011656  -0.007806   0.121943
   35  C  5  S    0.693114   0.342301  -0.641883  -0.651426  -0.847963
   36  C  5  X   -0.116906   0.185073   0.076671   0.073643   0.099142
   37  C  5  Y   -0.359841  -0.162929   0.080552   0.482486   0.040782
   38  C  5  Z   -0.287930  -0.047827   0.115760   0.012543   0.429675
   39  C  6  S   -0.034336  -0.044605   0.063004  -0.034705  -0.031492
   40  C  6  S    0.007778  -0.002988  -0.028970  -0.000014   0.001234
   41  C  6  X   -0.032108   0.042461   0.069837   0.007137   0.006104
   42  C  6  Y    0.043223   0.064906  -0.035679   0.130264  -0.051730
   43  C  6  Z    0.065605   0.092167  -0.032684  -0.024268   0.102091
   44  C  6  S    0.507470   0.749878  -0.747795   0.537931   0.454389
   45  C  6  X   -0.116646   0.155835   0.303768   0.039100   0.035850
   46  C  6  Y    0.250658   0.247093  -0.290562   0.445457  -0.250807
   47  C  6  Z    0.281738   0.265601  -0.253002  -0.154308   0.346683
   48  N  7  S   -0.006335  -0.110137  -0.076418  -0.002340   0.011588
   49  N  7  S    0.000664   0.029130   0.018671   0.004362  -0.002425
   50  N  7  X   -0.024106  -0.104318  -0.040455  -0.055350   0.011543
   51  N  7  Y   -0.022449  -0.056367  -0.018002   0.121582   0.006028
   52  N  7  Z   -0.017975   0.058503   0.079057   0.023583  -0.013073
   53  N  7  S    0.087073   1.138993   0.793150  -0.002671  -0.131071
   54  N  7  X   -0.041026  -0.329052  -0.147056  -0.202690   0.043805
   55  N  7  Y   -0.077000  -0.186968  -0.030304   0.353576   0.041555
   56  N  7  Z   -0.049041   0.161250   0.227580   0.073255  -0.082772
   57  H  8  S    0.008325   0.000305  -0.001024  -0.001634   0.019434
   58  H  8  S   -0.477581   0.261141  -0.305860  -0.001684   0.980519
   59  H  9  S    0.004257   0.000848  -0.003302   0.011815  -0.008671
   60  H  9  S   -0.575374   0.253678  -0.340450   0.608809   0.156421
   61  H 10  S   -0.003395  -0.006184   0.005137  -0.000267  -0.008408
   62  H 10  S   -0.889278   0.056117   0.256984   0.063181  -0.774275
   63  H 11  S    0.002401  -0.002991   0.006733  -0.007932  -0.002350
   64  H 11  S   -0.740283   0.139494   0.308839  -0.627285   0.145273
   65  H 12  S    0.009172   0.012050   0.010550   0.000228   0.017732
   66  H 12  S   -0.383733  -0.098459   0.340131   0.062871   0.980791
   67  H 13  S    0.005921   0.022209   0.018059   0.022831  -0.015694
   68  H 13  S   -0.537572  -0.272541   0.290255   0.963479   0.199234
   69  H 14  S    0.004224  -0.002054  -0.001415   0.007470  -0.010519
   70  H 14  S   -0.426143  -0.536433   0.526399   0.104676  -0.732360
   71  H 15  S    0.002486   0.003968   0.008544  -0.028400   0.001213
   72  H 15  S   -0.368983  -0.438577   0.629290  -0.900193   0.186022
   73  H 16  S    0.001254  -0.022645  -0.026796   0.016640  -0.004529
   74  H 16  S   -0.092313  -0.744476  -0.480689   0.579347   0.069223
   75  H 17  S   -0.006554  -0.030846  -0.006609  -0.012304   0.005630
   76  H 17  S   -0.068827  -0.847361  -0.511086  -0.543868   0.111017
   77  H 18  S   -0.013744   0.008126   0.008009   0.005888   0.005228
   78  H 18  S   -0.280747   0.355177  -0.730465  -0.065180   0.010073
   79  H 19  S    0.006021  -0.004173  -0.005490  -0.008700   0.003419
   80  H 19  S   -0.376860   0.307590  -0.618555  -0.561553  -0.010995

                     31         32         33         34         35
                    0.4862     0.4969     0.5138     0.5252     0.5356
                     A          A          A          A          A   
    1  C  1  S    0.045293   0.056105   0.048666   0.046505   0.054029
    2  C  1  S   -0.005011  -0.011781  -0.006859  -0.008795  -0.005493
    3  C  1  X    0.016061  -0.146737   0.026047   0.086028  -0.051803
    4  C  1  Y   -0.115133   0.121845   0.088653  -0.114779  -0.057845
    5  C  1  Z    0.055352   0.126003  -0.149375  -0.012847   0.022436
    6  C  1  S   -0.639909  -0.752779  -0.698906  -0.683732  -0.772715
    7  C  1  X    0.098142  -0.654455   0.234626   0.629836  -0.154302
    8  C  1  Y   -0.427808   0.603888   0.458995  -0.640985  -0.201433
    9  C  1  Z    0.275265   0.633360  -0.679634  -0.100302   0.256345
   10  H  2  S   -0.014033  -0.015399   0.036681   0.009578  -0.008061
   11  H  2  S   -0.218842  -0.336685   1.258336   0.239460   0.006222
   12  C  3  S   -0.053132  -0.023902  -0.038612   0.014486  -0.094049
   13  C  3  S    0.009507   0.011962   0.009535  -0.000844   0.017206
   14  C  3  X    0.011933  -0.004518   0.024286   0.030870  -0.002623
   15  C  3  Y   -0.107344   0.036163   0.015833   0.065466  -0.023406
   16  C  3  Z    0.030657   0.029957  -0.037563   0.039030  -0.067626
   17  C  3  S    0.733532   0.287763   0.515392  -0.243527   1.353249
   18  C  3  X    0.128794   0.169670   0.182331   0.241584  -0.106915
   19  C  3  Y   -0.375049  -0.022546   0.029472   0.448669  -0.110678
   20  C  3  Z    0.097338  -0.067258  -0.056272   0.248109  -0.382121
   21  C  4  S    0.012927  -0.010518  -0.031857  -0.090157   0.019344
   22  C  4  S    0.003406  -0.009500   0.011355   0.026726  -0.013718
   23  C  4  X    0.008088  -0.022942  -0.005225   0.013555  -0.038915
   24  C  4  Y   -0.064307   0.050478   0.008568   0.059870   0.009240
   25  C  4  Z    0.029981   0.050948   0.023991   0.051178   0.006634
   26  C  4  S   -0.201022   0.349469   0.411735   1.192079  -0.158015
   27  C  4  X    0.049612   0.014543  -0.026354  -0.114521  -0.269035
   28  C  4  Y   -0.201771   0.244282   0.010530   0.139485   0.033300
   29  C  4  Z    0.093842   0.265724   0.056214   0.160225   0.105450
   30  C  5  S   -0.015086  -0.027070   0.026737   0.016954   0.085866
   31  C  5  S    0.008234   0.008391  -0.000537   0.002271  -0.021540
   32  C  5  X   -0.022479   0.008583  -0.023224  -0.054711   0.040675
   33  C  5  Y   -0.009646   0.025035   0.001634   0.048288   0.098863
   34  C  5  Z    0.023823   0.027277   0.073104   0.002228   0.028625
   35  C  5  S    0.157184   0.315997  -0.427887  -0.293940  -1.222411
   36  C  5  X   -0.092693  -0.029918  -0.185356  -0.341580   0.032451
   37  C  5  Y    0.013463   0.128016   0.117475   0.217433   0.360151
   38  C  5  Z    0.184470   0.135698   0.329625   0.031086  -0.002755
   39  C  6  S    0.017984   0.086980   0.019093   0.063906  -0.026213
   40  C  6  S   -0.005277  -0.030630  -0.009802  -0.022906  -0.004007
   41  C  6  X   -0.021303   0.002204  -0.023105   0.005048   0.043972
   42  C  6  Y    0.049168  -0.025318  -0.116010   0.024379   0.059923
   43  C  6  Z   -0.032110  -0.048989   0.126814  -0.067191   0.073106
   44  C  6  S   -0.254368  -1.141147  -0.283494  -0.864220   0.488989
   45  C  6  X   -0.102234  -0.076812  -0.148281  -0.182142   0.376490
   46  C  6  Y    0.160966  -0.183331  -0.596134   0.038144   0.223731
   47  C  6  Z   -0.200083  -0.253940   0.446552  -0.315641   0.342855
   48  N  7  S    0.001840  -0.025409  -0.005022  -0.026584  -0.017309
   49  N  7  S   -0.000128   0.009348   0.000658   0.008056   0.002937
   50  N  7  X   -0.094816   0.006928  -0.067955  -0.002696   0.105099
   51  N  7  Y    0.173764   0.003939   0.075662  -0.073457  -0.059326
   52  N  7  Z    0.025872   0.031311  -0.004868   0.030658   0.020060
   53  N  7  S   -0.029984   0.238083   0.051942   0.276458   0.198361
   54  N  7  X   -0.336413   0.000683  -0.201226   0.004093   0.404261
   55  N  7  Y    0.561813   0.028403   0.304834  -0.255982  -0.191985
   56  N  7  Z    0.083129   0.099234  -0.060309   0.078873   0.052513
   57  H  8  S    0.018139   0.015393  -0.029140   0.014982  -0.008726
   58  H  8  S    0.015406  -0.060464  -0.437064   0.285912  -0.906443
   59  H  9  S   -0.024664   0.016168   0.022673  -0.005449  -0.028376
   60  H  9  S   -0.909627  -0.000841  -0.064348   0.471011  -0.653996
   61  H 10  S   -0.008552  -0.037107  -0.010580  -0.009870  -0.002074
   62  H 10  S   -0.161932  -0.409794  -0.284664  -0.682697   0.028546
   63  H 11  S    0.004570  -0.034355  -0.003646  -0.021076  -0.027554
   64  H 11  S    0.418087  -0.408026  -0.198233  -0.756374  -0.020687
   65  H 12  S    0.012500   0.010109   0.043280   0.001560   0.013546
   66  H 12  S    0.123072  -0.007342   0.649343   0.057517   0.488381
   67  H 13  S    0.012377   0.013867  -0.013083   0.025483   0.027023
   68  H 13  S   -0.104790   0.013896   0.119745   0.436222   1.002410
   69  H 14  S    0.009426   0.004625  -0.013805   0.016275  -0.014502
   70  H 14  S    0.353945   0.720070  -0.644004   0.755535  -0.492357
   71  H 15  S   -0.023032   0.002919   0.013647   0.013172  -0.019383
   72  H 15  S   -0.194909   0.622467   0.888420   0.224609  -0.411561
   73  H 16  S    0.029147  -0.002125  -0.008020  -0.019214  -0.025325
   74  H 16  S    0.858873  -0.108867   0.307297  -0.499534  -0.364246
   75  H 17  S   -0.025435  -0.013489  -0.008817   0.003739   0.027592
   76  H 17  S   -0.836783  -0.155704  -0.468733   0.012681   0.539546
   77  H 18  S   -0.005336   0.026174  -0.022492  -0.053622   0.004011
   78  H 18  S    0.048597   1.576561  -0.104413  -0.696320   0.480157
   79  H 19  S    0.017571  -0.016969  -0.018800   0.030757   0.009344
   80  H 19  S    0.912603  -0.349010  -0.412886   1.006418   0.612770

                     36         37         38         39         40
                    0.5490     0.5605     0.5698     0.5837     0.5941
                     A          A          A          A          A   
    1  C  1  S   -0.011670   0.004617  -0.003809  -0.038755  -0.010554
    2  C  1  S    0.002081   0.000556   0.000042  -0.003573  -0.000573
    3  C  1  X   -0.001780   0.012628  -0.002584  -0.119542  -0.005644
    4  C  1  Y   -0.092954   0.002071   0.024207  -0.081296   0.022227
    5  C  1  Z    0.108066   0.008877  -0.034363  -0.086231   0.019617
    6  C  1  S    0.168463  -0.070643   0.054527   0.615628   0.182145
    7  C  1  X   -0.063028   0.096554  -0.025485  -0.878815  -0.245482
    8  C  1  Y   -0.656885  -0.126429   0.101264  -0.523597   0.214621
    9  C  1  Z    0.723255   0.189211  -0.178793  -0.520034   0.176804
   10  H  2  S   -0.020025   0.011443   0.046520   0.041580   0.007329
   11  H  2  S   -0.937190  -0.100165   0.305786   0.285686  -0.165531
   12  C  3  S    0.012686  -0.015765   0.004518   0.076029   0.032854
   13  C  3  S   -0.002043   0.003234  -0.002355  -0.021278   0.009974
   14  C  3  X    0.008994  -0.005527  -0.012712  -0.064259   0.110839
   15  C  3  Y    0.135736   0.118339   0.056950  -0.072144  -0.088466
   16  C  3  Z   -0.147600  -0.094434  -0.050193  -0.096855  -0.084688
   17  C  3  S   -0.183116   0.204146  -0.053920  -0.934868  -0.566788
   18  C  3  X    0.066690  -0.002786  -0.080877  -0.676067   0.716758
   19  C  3  Y    0.749142   0.705373   0.429425  -0.579081  -0.560970
   20  C  3  Z   -0.824386  -0.511622  -0.386765  -0.730304  -0.560831
   21  C  4  S    0.000837   0.012260   0.004314  -0.052519  -0.041391
   22  C  4  S    0.001826  -0.003600  -0.000102   0.024455   0.019331
   23  C  4  X    0.004070  -0.009251   0.001034   0.031147   0.055859
   24  C  4  Y   -0.017361  -0.024551  -0.194012   0.024343  -0.052839
   25  C  4  Z   -0.008168   0.021797   0.180236   0.023104  -0.038992
   26  C  4  S   -0.042039  -0.165416  -0.052133   0.662896   0.421544
   27  C  4  X    0.133175  -0.081356  -0.035796   0.243374   0.997895
   28  C  4  Y   -0.194673  -0.130918  -1.102781   0.447395  -0.390982
   29  C  4  Z    0.058922   0.065105   1.067671   0.440239  -0.315286
   30  C  5  S   -0.017467  -0.000701  -0.005409   0.067814   0.019463
   31  C  5  S    0.004025   0.001518   0.000557  -0.021127  -0.011677
   32  C  5  X   -0.000991  -0.015489   0.000193   0.076820  -0.014780
   33  C  5  Y    0.042187  -0.145385   0.079323  -0.070245   0.051998
   34  C  5  Z   -0.066103   0.162941  -0.093115  -0.032489   0.057239
   35  C  5  S    0.259589  -0.013467   0.092586  -0.810396  -0.194482
   36  C  5  X    0.011727  -0.094756   0.007779   0.949220   0.006254
   37  C  5  Y    0.308510  -0.810912   0.546737  -0.413427   0.603849
   38  C  5  Z   -0.293390   0.871793  -0.640765  -0.195024   0.694474
   39  C  6  S   -0.009780   0.006841   0.005038  -0.040729  -0.063683
   40  C  6  S    0.006992  -0.002751  -0.001588   0.003078   0.037255
   41  C  6  X   -0.029728  -0.007970   0.012914   0.138307  -0.119972
   42  C  6  Y   -0.131532   0.112149   0.015157  -0.069312  -0.006015
   43  C  6  Z    0.094099  -0.064891  -0.022054  -0.111455  -0.084719
   44  C  6  S    0.055908  -0.057073  -0.052727   0.611279   0.545289
   45  C  6  X   -0.146656  -0.055295   0.072557   0.769475  -0.974731
   46  C  6  Y   -0.663264   0.689746   0.054500  -0.465600  -0.192165
   47  C  6  Z    0.427857  -0.403728  -0.029588  -0.666247  -0.640732
   48  N  7  S    0.008519   0.007154  -0.004086   0.006128   0.040852
   49  N  7  S   -0.001057  -0.006753   0.002117   0.000848  -0.004218
   50  N  7  X   -0.062682   0.028368   0.015561  -0.023635  -0.146019
   51  N  7  Y    0.039828  -0.004070   0.002841   0.026826  -0.141413
   52  N  7  Z   -0.041101   0.040439   0.000119   0.028210  -0.067950
   53  N  7  S   -0.095369  -0.063058   0.042017  -0.079423  -0.506832
   54  N  7  X   -0.205834   0.085248   0.052213  -0.172410  -0.606856
   55  N  7  Y    0.178912  -0.050198  -0.005986   0.110030  -0.532102
   56  N  7  Z   -0.135987   0.095921   0.024621   0.090068  -0.286964
   57  H  8  S    0.005367  -0.028498   0.019851  -0.055053  -0.017509
   58  H  8  S   -0.943603  -0.842475  -0.351268  -0.284873  -0.306962
   59  H  9  S   -0.002268   0.040005  -0.020745  -0.043693  -0.024478
   60  H  9  S    0.976366   0.821056   0.413057  -0.117054  -0.373128
   61  H 10  S    0.062860  -0.023963  -0.018965  -0.002753   0.032530
   62  H 10  S    0.156602  -0.127255  -1.342011  -0.536214   0.082934
   63  H 11  S   -0.044803   0.018256   0.014056   0.003765   0.049469
   64  H 11  S    0.029432   0.271452   1.368188  -0.553716   0.246457
   65  H 12  S    0.021121   0.043352   0.012511  -0.028895  -0.002522
   66  H 12  S   -0.430826   1.204614  -0.727157   0.176415   0.535250
   67  H 13  S   -0.032783  -0.028668  -0.015785  -0.040284   0.014606
   68  H 13  S    0.137260  -1.037657   0.527692  -0.166731   0.556831
   69  H 14  S   -0.008183  -0.014976   0.045167   0.036025   0.027333
   70  H 14  S   -0.680778   0.517555   0.220639   0.423829   0.255417
   71  H 15  S    0.018534  -0.006171  -0.047337   0.047690   0.042458
   72  H 15  S    0.775874  -0.721822  -0.159565   0.248281  -0.306858
   73  H 16  S   -0.009644   0.036156  -0.005073  -0.002897  -0.009379
   74  H 16  S    0.194942   0.080381  -0.021852   0.119653  -0.515920
   75  H 17  S   -0.006492  -0.010842   0.005178   0.028035  -0.021984
   76  H 17  S   -0.281222   0.099134   0.049340  -0.104392  -0.140696
   77  H 18  S    0.003971   0.001231   0.002155   0.012809  -0.006699
   78  H 18  S    0.025489  -0.019901  -0.028268   0.099259   0.185415
   79  H 19  S    0.016467  -0.019719  -0.044288   0.038918   0.000336
   80  H 19  S    0.710174   0.076890  -0.274792   0.302276  -0.224206

                     41         42         43         44         45
                    0.6351     0.6730     0.7031     1.0885     1.1020
                     A          A          A          A          A   
    1  C  1  S    0.044786  -0.034873   0.039147   0.000092  -0.003771
    2  C  1  S   -0.026089  -0.022150  -0.005217  -0.002050   0.027813
    3  C  1  X    0.153193   0.071874  -0.003290   0.059992  -0.417820
    4  C  1  Y    0.027351  -0.081682  -0.012048   0.246610   0.216033
    5  C  1  Z    0.027076  -0.084928  -0.014290  -0.246133  -0.056984
    6  C  1  S   -0.503572   0.796523  -0.534924   0.000258  -0.037549
    7  C  1  X    0.745417  -0.368147   0.580474  -0.095758   0.653889
    8  C  1  Y    0.360404  -0.478071   0.030579  -0.385871  -0.386338
    9  C  1  Z    0.383648  -0.496757   0.021998   0.390118   0.049061
   10  H  2  S   -0.048231  -0.015468  -0.043510  -0.352318  -0.057106
   11  H  2  S   -0.086882   0.182540   0.159839   0.049193  -0.001782
   12  C  3  S   -0.017421  -0.000400  -0.098008   0.001291  -0.005867
   13  C  3  S   -0.004843   0.019285   0.001176   0.009934  -0.048005
   14  C  3  X    0.211510  -0.165186   0.012275  -0.029818   0.071664
   15  C  3  Y    0.043193  -0.035926   0.100499   0.187605   0.148729
   16  C  3  Z    0.038834  -0.037281   0.107834  -0.201580  -0.006812
   17  C  3  S    0.327401  -0.178466   1.627490  -0.088283   0.506109
[...]
   14            -0.000002   0.003671   0.001322   0.007375   0.020112
   15            -0.000002   0.003920   0.001645   0.009154   0.025400
   16             0.000000   0.049530   0.003544   0.009639   0.014576
   17             0.000000   0.050584   0.005304   0.014421   0.015334
   18             0.000001  -0.000003   0.005598   0.018720   0.033151
   19            -0.000002  -0.000000   0.007461   0.015731   0.023780

                     11         12         13         14         15

                  1.000000   1.000000   1.000000   1.000000   1.000000

    1             0.114166   0.049435   0.002504   0.030056   0.132269
    2             0.018791   0.012579   0.000179   0.004395   0.055667
    3             0.153407   0.186123   0.005376   0.060424   0.165956
    4             0.023760   0.258767   0.022365   0.087409   0.085503
    5             0.189341   0.127495   0.057422   0.129236   0.030935
    6             0.191284   0.040598   0.122872   0.185706   0.112179
    7             0.061123   0.017945   0.408516   0.179058   0.159130
    8             0.023076   0.046310   0.002192   0.006954   0.073279
    9             0.022129   0.044879   0.000003   0.027072   0.026535
   10             0.000029   0.052149   0.009459   0.007923   0.024741
   11             0.000058   0.058179   0.000333   0.035659   0.013566
   12             0.030095   0.029472   0.027746   0.030930   0.000139
   13             0.033085   0.033237   0.000568   0.036831   0.009412
   14             0.032639   0.007806   0.023723   0.091780   0.037528
   15             0.043657   0.010694   0.029333   0.006738   0.002129
   16             0.021510   0.004313   0.133612   0.000573   0.030147
   17             0.002287   0.005345   0.152596   0.064043   0.008162
   18             0.020441   0.001788   0.001114   0.003995   0.008425
   19             0.019119   0.012887   0.000088   0.011218   0.024298

                     16         17         18         19         20

                  1.000000   1.000000   1.000000   1.000000   1.000000

    1             0.158078   0.338465   0.157511   0.186378   0.168871
    2             0.009372   0.052065   0.058196   0.010624   0.081742
    3             0.092208   0.062351   0.105611   0.075827   0.140808
    4             0.026427   0.040660   0.123546   0.137853   0.047515
    5             0.104014   0.030317   0.178702   0.060958   0.168719
    6             0.160955   0.066073   0.152688   0.131931   0.117120
    7             0.130061   0.105209   0.086794   0.049257   0.030840
    8             0.005843   0.009430   0.000970   0.000036   0.062285
    9             0.039035   0.001794   0.001475   0.011391   0.007990
   10             0.000557   0.008573   0.044172   0.006316   0.007473
   11             0.000701   0.001659   0.000074   0.067130   0.000147
   12             0.002425   0.014413   0.036338   0.017304   0.056343
   13             0.053637   0.000392   0.003048   0.008351   0.024530
   14             0.011972   0.005156   0.024228   0.016948   0.005593
   15             0.054348   0.015769   0.000856   0.086080   0.039930
   16             0.041999   0.016520   0.003716   0.014304   0.011866
   17             0.001401   0.007251   0.012081   0.011671   0.001548
   18             0.030821   0.213611   0.006788   0.000206   0.020098
   19             0.076146   0.010291   0.003206   0.107436   0.006582

                     21         22         23         24         25

                  1.000000   1.000000   1.000000   1.000000   1.000000

    1             0.102482   0.121771   0.051652   0.008659   0.011918
    2             0.039987   0.004853   0.005836   0.012865   0.000068
    3             0.156864   0.101677   0.253034   0.102305   0.023692
    4             0.011288   0.241181   0.245032   0.260818   0.029977
    5             0.167209   0.251171   0.051311   0.069800   0.058674
    6             0.050681   0.011403   0.082375   0.002256   0.083402
    7             0.032807   0.042466   0.091335   0.003308   0.638771
    8             0.048038   0.016411   0.021633   0.085204   0.000145
    9             0.095462   0.028504   0.027824   0.059931   0.000923
   10             0.002662   0.037553   0.019417   0.157784   0.000109
   11             0.001500   0.054470   0.042455   0.116538   0.000675
   12             0.049084   0.028258   0.000314   0.059898   0.011528
   13             0.101898   0.025595   0.023629   0.044692   0.000087
   14             0.007791   0.009646   0.006588   0.003866   0.104694
   15             0.047857   0.000603   0.016603   0.003265   0.010207
   16             0.003249   0.000265   0.002330   0.000046   0.006747
   17             0.001485   0.004726   0.003681   0.000002   0.013666
   18             0.002469   0.011160   0.049014   0.000313   0.004621
   19             0.077188   0.008287   0.005939   0.008451   0.000096

     ATOMIC SPIN POPULATION (ALPHA MINUS BETA)
       ATOM         MULL.POP.                    LOW.POP.
    1 C             0.024902                     0.067998
    2 H             0.053247                     0.031769
    3 C             0.019103                     0.095410
    4 C             0.023679                     0.190695
    5 C             0.033091                     0.079281
    6 C             0.030445                     0.059108
    7 N             0.001544                     0.004225
    8 H             0.061154                     0.032954
    9 H             0.094491                     0.054229
   10 H             0.230806                     0.137583
   11 H             0.156633                     0.089770
   12 H             0.035530                     0.019038
   13 H             0.076848                     0.045014
   14 H             0.050378                     0.030891
   15 H             0.033812                     0.019807
   16 H             0.003160                     0.002333
   17 H             0.002832                     0.001725
   18 H             0.029800                     0.016023
   19 H             0.038544                     0.022146


          ********* ALL ELECTRONS ********

               ----- POPULATIONS IN EACH AO -----
                             MULLIKEN      LOWDIN
              1  C  1  S      1.98852     1.97674
              2  C  1  S      0.35384     0.42917
              3  C  1  X      0.52995     0.50689
              4  C  1  Y      0.52971     0.49835
              5  C  1  Z      0.53366     0.50368
              6  C  1  S      1.08797     0.59870
              7  C  1  X      0.46011     0.57240
              8  C  1  Y      0.52490     0.60077
              9  C  1  Z      0.53018     0.60397
             10  H  2  S      0.46240     0.46846
             11  H  2  S      0.41957     0.49152
             12  C  3  S      1.98970     1.97670
             13  C  3  S      0.34781     0.43764
             14  C  3  X      0.51839     0.50439
             15  C  3  Y      0.53222     0.50585
             16  C  3  Z      0.52724     0.49965
             17  C  3  S      1.07245     0.59565
             18  C  3  X      0.35375     0.52607
             19  C  3  Y      0.50764     0.58327
             20  C  3  Z      0.49531     0.57795
             21  C  4  S      1.99025     1.97710
             22  C  4  S      0.34947     0.46707
             23  C  4  X      0.50088     0.48936
             24  C  4  Y      0.52871     0.50448
             25  C  4  Z      0.54290     0.52436
             26  C  4  S      1.04517     0.61461
             27  C  4  X      0.30639     0.50452
             28  C  4  Y      0.49617     0.58672
             29  C  4  Z      0.50826     0.59607
             30  C  5  S      1.98968     1.97657
             31  C  5  S      0.34785     0.43135
             32  C  5  X      0.52400     0.51232
             33  C  5  Y      0.53178     0.50637
             34  C  5  Z      0.53308     0.50649
             35  C  5  S      1.07695     0.58559
             36  C  5  X      0.32698     0.51252
             37  C  5  Y      0.51270     0.58761
             38  C  5  Z      0.50807     0.58244
             39  C  6  S      1.98888     1.97615
             40  C  6  S      0.35417     0.42027
             41  C  6  X      0.49637     0.48656
             42  C  6  Y      0.53368     0.50733
             43  C  6  Z      0.52849     0.49809
             44  C  6  S      1.02123     0.57773
             45  C  6  X      0.30847     0.48227
             46  C  6  Y      0.49210     0.56741
             47  C  6  Z      0.45150     0.56239
             48  N  7  S      1.98760     1.97884
             49  N  7  S      0.36264     0.48438
             50  N  7  X      0.52526     0.50174
             51  N  7  Y      0.52970     0.50107
             52  N  7  Z      0.74264     0.75995
             53  N  7  S      1.34980     0.81937
             54  N  7  X      0.60781     0.66807
             55  N  7  Y      0.62263     0.67281
             56  N  7  Z      1.04782     1.03733
             57  H  8  S      0.46502     0.47884
             58  H  8  S      0.44427     0.50015
             59  H  9  S      0.46162     0.47579
             60  H  9  S      0.46548     0.51569
             61  H 10  S      0.44683     0.46403
             62  H 10  S      0.58439     0.59174
             63  H 11  S      0.45353     0.46942
             64  H 11  S      0.53577     0.55623
             65  H 12  S      0.46474     0.47728
             66  H 12  S      0.40103     0.47773
             67  H 13  S      0.46197     0.47554
             68  H 13  S      0.45658     0.51122
             69  H 14  S      0.46890     0.48365
             70  H 14  S      0.42913     0.50476
             71  H 15  S      0.47164     0.48352
             72  H 15  S      0.38167     0.47301
             73  H 16  S      0.45218     0.46296
             74  H 16  S      0.28942     0.38988
             75  H 17  S      0.45750     0.46875
             76  H 17  S      0.29796     0.39315
             77  H 18  S      0.47181     0.47874
             78  H 18  S      0.42538     0.48658
             79  H 19  S      0.46436     0.47035
             80  H 19  S      0.41346     0.48585

          ----- MULLIKEN ATOMIC OVERLAP POPULATIONS -----
          (OFF-DIAGONAL ELEMENTS NEED TO BE MULTIPLIED BY 2)

             1           2           3           4           5

    1    5.8941733
    2    0.1325292   0.7355435
    3    0.2652038  -0.0783379   6.2806981
    4   -0.0354837  -0.0464940   0.2908165   7.2992755
    5    0.0027608   0.0002034  -0.0223860   0.2089610   6.1045323
    6   -0.0000532  -0.0000108   0.0025285  -0.0044173   0.2180382
    7    0.0000000   0.0000000  -0.0000195   0.0016049  -0.0553718
    8   -0.0466863   0.0124488   0.0461828  -0.0804581  -0.0212362
    9   -0.0496316   0.0283304  -0.0474810  -0.0960953  -0.0294577
   10   -0.0251443   0.0460443  -0.0897530  -0.5881184  -0.0493873
   11   -0.0193362   0.0128463  -0.0760052  -0.3745875  -0.0366216
   12    0.0003335   0.0000888  -0.0239592  -0.0734503   0.1548998
   13    0.0004732   0.0003702  -0.0378848  -0.1006069   0.0269767
   14    0.0000044   0.0000337  -0.0001910  -0.0515663  -0.0843488
   15    0.0000038   0.0000095  -0.0000933  -0.0431705  -0.0589797
   16    0.0000000   0.0000000  -0.0000074  -0.0002221  -0.0109618
   17   -0.0000000   0.0000000   0.0000005  -0.0001592   0.0032958
   18    0.2457024   0.0119625  -0.0943257   0.0001825  -0.0000755
   19    0.1739893   0.0264020  -0.0704858  -0.0378372   0.0002440

             6           7           8           9          10

    6    5.6132744
    7    0.2217359   7.0382052
    8    0.0002697   0.0000009   0.8031398
    9    0.0003174   0.0000007   0.0617537   0.8946975
   10   -0.0343005   0.0001071   0.0228263   0.0621907   1.3338606
   11   -0.0274992   0.0001222   0.0421610   0.0229205   0.1995958
   12   -0.0431453   0.0037087   0.0224335   0.0085268   0.0182869
   13   -0.0410229  -0.0021122   0.0108266   0.0387137   0.0570021
   14    0.1650685  -0.0396586   0.0001311   0.0004487   0.0490335
   15    0.2081343  -0.0311972   0.0003049   0.0001319   0.0134212
   16   -0.0502731   0.3180068   0.0000036   0.0000098   0.0001534
   17   -0.0537614   0.3207699   0.0000002   0.0000002   0.0000282
   18    0.0000005   0.0000000   0.0153218   0.0188460   0.0022238
   19   -0.0000085   0.0000000   0.0198630   0.0128732   0.0131444

            11          12          13          14          15

   11    1.1086633
   12    0.0329147   0.6971307
   13    0.0214622   0.0387482   0.8581747
   14    0.0133697   0.0117555   0.0252394   0.7891720
   15    0.0336414   0.0152918   0.0127315   0.0139485   0.6823112
   16    0.0000530   0.0016422   0.0089428   0.0028642   0.0060288
   17    0.0000296   0.0003087   0.0003473   0.0027181   0.0007777
   18    0.0018369   0.0000366   0.0000574   0.0000004   0.0000003
   19    0.0337302   0.0002183   0.0001163   0.0000103   0.0000218

            16          17          18          19

   16    0.4999232
   17   -0.0345549   0.5156670
   18    0.0000000   0.0000000   0.6897646
   19    0.0000000   0.0000000   0.0056526   0.6998859

          TOTAL MULLIKEN AND LOWDIN ATOMIC POPULATIONS
       ATOM         MULL.POP.    CHARGE          LOW.POP.     CHARGE
    1 C             6.538838   -0.538838         6.290670   -0.290670
    2 H             0.881970    0.118030         0.959979    0.040021
    3 C             6.344500   -0.344500         6.207184   -0.207184
    4 C             6.268173   -0.268173         6.264295   -0.264295
    5 C             6.351086   -0.351086         6.201265   -0.201265
    6 C             6.174875   -0.174875         6.078193   -0.078193
    7 N             7.775903   -0.775903         7.423558   -0.423558
    8 H             0.909287    0.090713         0.978984    0.021016
    9 H             0.927095    0.072905         0.991484    0.008516
   10 H             1.031215   -0.031215         1.055772   -0.055772
   11 H             0.989297    0.010703         1.025646   -0.025646
   12 H             0.865770    0.134230         0.955005    0.044995
   13 H             0.918556    0.081444         0.986753    0.013247
   14 H             0.898033    0.101967         0.988417    0.011583
   15 H             0.853318    0.146682         0.956533    0.043467
   16 H             0.741608    0.258392         0.852841    0.147159
   17 H             0.755468    0.244532         0.861907    0.138093
   18 H             0.897187    0.102813         0.965322    0.034678
   19 H             0.877820    0.122180         0.956195    0.043805

          -------------------------------
          BOND ORDER AND VALENCE ANALYSIS     BOND ORDER THRESHOLD=0.050
          -------------------------------

                   BOND                       BOND                       BOND
  ATOM PAIR DIST  ORDER      ATOM PAIR DIST  ORDER      ATOM PAIR DIST  ORDER
    1   2  1.097  0.889        1   3  1.544  0.923        1  18  1.096  0.929
    1  19  1.097  0.903        3   4  1.545  0.918        3   8  1.098  0.880
    3   9  1.099  0.849        4   5  1.543  0.910        4  10  1.100  0.732
    4  11  1.100  0.803        5   6  1.540  0.903        5  12  1.096  0.895
    5  13  1.100  0.859        6   7  1.483  0.857        6  14  1.108  0.865
    6  15  1.097  0.892        7  16  1.026  0.877        7  17  1.025  0.889

                       TOTAL       BONDED        FREE
      ATOM            VALENCE     VALENCE     VALENCE
    1 C                 3.630       3.625       0.004
    2 H                 0.983       0.980       0.003
    3 C                 3.517       3.511       0.006
    4 C                 3.317       3.293       0.024
    5 C                 3.527       3.522       0.005
    6 C                 3.505       3.502       0.003
    7 N                 2.637       2.637       0.000
    8 H                 0.999       0.994       0.004
    9 H                 1.017       1.007       0.010
   10 H                 1.092       1.036       0.057
   11 H                 1.065       1.038       0.027
   12 H                 0.978       0.976       0.002
   13 H                 1.009       1.002       0.007
   14 H                 0.973       0.970       0.003
   15 H                 0.961       0.960       0.001
   16 H                 0.899       0.899       0.000
   17 H                 0.901       0.901       0.000
   18 H                 0.951       0.950       0.001
   19 H                 0.973       0.972       0.002

          -----------------------------------------
          ATOMIC SPIN DENSITY AT THE NUCLEUS (A.U.)
          -----------------------------------------
                            SPIN DENS    ALPHA DENS     BETA DENS
    1  C            6.0     0.0791853      47.06031      46.98112
    2  H            1.0    -0.0032067       0.17994       0.18315
    3  C            6.0     0.1365660      47.14947      47.01291
    4  C            6.0     0.2979223      47.29535      46.99743
    5  C            6.0     0.0891644      47.11700      47.02784
    6  C            6.0     0.0490460      47.04552      46.99647
    7  N            7.0     0.0020635      76.64477      76.64270
    8  H            1.0    -0.0043193       0.18108       0.18540
    9  H            1.0    -0.0044469       0.17967       0.18411
   10  H            1.0    -0.0067965       0.17294       0.17973
   11  H            1.0    -0.0071034       0.17533       0.18244
   12  H            1.0    -0.0039365       0.18110       0.18504
   13  H            1.0    -0.0044243       0.17971       0.18413
   14  H            1.0    -0.0032348       0.18246       0.18569
   15  H            1.0    -0.0029565       0.18397       0.18693
   16  H            1.0    -0.0004709       0.17926       0.17973
   17  H            1.0     0.0002679       0.18179       0.18153
   18  H            1.0    -0.0000797       0.18538       0.18546
   19  H            1.0    -0.0030363       0.18081       0.18384

          ---------------------
          ELECTROSTATIC MOMENTS
          ---------------------

 POINT   1           X           Y           Z (BOHR)    CHARGE
                -3.345109   -0.086689    0.103205       -1.00 (A.U.)
         DX          DY          DZ         /D/  (DEBYE)
    -3.577568   -0.732957    0.067494    3.652502
 ...... END OF PROPERTY EVALUATION ......
 CPU     0: STEP CPU TIME=     0.02 TOTAL CPU TIME=          2.1 (      0.0 MIN)
 TOTAL WALL CLOCK TIME=          2.5 SECONDS, CPU UTILIZATION IS    83.94%
               580000  WORDS OF DYNAMIC MEMORY USED
 EXECUTION OF GAMESS TERMINATED NORMALLY Sun May 17 15:31:41 2020
 DDI: 263640 bytes (0.3 MB / 0 MWords) used by master data server.
Note: The following floating-point exceptions are signalling: IEEE_DENORMALNote: The following floating-point exceptions are signalling: IEEE_DENORMALNote: The following floating-point exceptions are signalling: IEEE_DENORMAL
Note: The following floating-point exceptions are signalling:
 ----------------------------------------
 CPU timing information for all processes
 ========================================
 0: 1.988 + 0.115 = 2.104
 1: 1.917 + 0.31 = 1.948
 2: 1.927 + 0.16 = 1.943
 3: 1.907 + 0.27 = 1.935
 4: 1.902 + 0.16 = 1.918
 5: 1.872 + 0.23 = 1.895
 ----------------------------------------

Note: The following floating-point exceptions are signalling:
 IEEE_DENORMALNote: The following floating-point exceptions are signalling: IEEE_DENORMAL IEEE_DENORMAL


 ddikick.x: exited gracefully.
unset echo
----- accounting info -----
Files used on the master node pietdev were:
-rwxr-xr-x 1 piet piet     1200 mei 17 15:31 /home/piet/scr/lysine_fukui_acid.F05*
-rw-r--r-- 1 piet piet 68812800 mei 17 15:31 /home/piet/scr/lysine_fukui_acid.F10
ls: No match.
ls: No match.
ls: No match.
zo 17 mei 2020 15:31:45 CEST
0.110u 0.019s 0:05.64 2.1%	0+0k 0+8io 0pf+0w
