----- GAMESS execution script 'rungms' -----
This job is running on host pietdev
under operating system Linux at zo 17 mei 2020 12:37:31 CEST
Available scratch disk space (Kbyte units) at beginning of the job is
Filesystem     1K-blocks     Used Available Use% Mounted on
/dev/sda2      244568380 30347436 201727888  14% /
GAMESS temporary binary files will be written to /home/piet/scr
GAMESS supplementary output files will be written to /home/piet/gamess/scr
Copying input file glutamine_geoopt.inp to your run's scratch directory...
cp glutamine_geoopt.inp /home/piet/scr/glutamine_geoopt.F05
unset echo
 
Assuming a single but multicore node.
 
/home/piet/gamess/ddikick.x /home/piet/gamess/gamess.03.x glutamine_geoopt -ddi 1 6 pietdev:cpus=6 -scr /home/piet/scr

 Distributed Data Interface kickoff program.
 Initiating 6 compute processes on 1 nodes to run the following command:
 /home/piet/gamess/gamess.03.x glutamine_geoopt 

          ******************************************************
          *         GAMESS VERSION = 30 SEP 2019 (R2)          *
          *             FROM IOWA STATE UNIVERSITY             *
          * M.W.SCHMIDT, K.K.BALDRIDGE, J.A.BOATZ, S.T.ELBERT, *
          *   M.S.GORDON, J.H.JENSEN, S.KOSEKI, N.MATSUNAGA,   *
          *          K.A.NGUYEN, S.J.SU, T.L.WINDUS,           *
          *       TOGETHER WITH M.DUPUIS, J.A.MONTGOMERY       *
          *         J.COMPUT.CHEM.  14, 1347-1363(1993)        *
          **************** 64 BIT LINUX VERSION ****************

  SINCE 1993, STUDENTS AND POSTDOCS WORKING AT IOWA STATE UNIVERSITY
  AND ALSO IN THEIR VARIOUS JOBS AFTER LEAVING ISU HAVE MADE IMPORTANT
  CONTRIBUTIONS TO THE CODE:
     IVANA ADAMOVIC, CHRISTINE AIKENS, YURI ALEXEEV, POOJA ARORA,
     ANDREY ASADCHEV, ROB BELL, PRADIPTA BANDYOPADHYAY, JONATHAN BENTZ,
     COLLEEN BERTONI, BRETT BODE, KURT BRORSEN, CALEB CARLIN, GALINA CHABAN,
     WEI CHEN, CHEOL HO CHOI, PAUL DAY, ALBERT DEFUSCO, NUWAN DESILVA,
     TIM DUDLEY, DMITRI FEDOROV, ALEX FINDLATER, GRAHAM FLETCHER, 
     MARK FREITAG, KURT GLAESEMANN, EMILIE B GUIDEZ, ANASTASIA GUNINA, 
     DAN KEMP, SAROM SOK LEANG, GRANT MERRILL,
     NORIYUKI MINEZAWA, JONATHAN MULLIN,
     TAKESHI NAGATA, SEAN NEDD, HEATHER NETZLOFF, BOSILJKA NJEGIC, RYAN OLSON,
     MIKE PAK, BUU PHAM, DAVID POOLE,
     SPENCER PRUITT, LUKE ROSKOP, TOSAPORN SATTASATHUCHANA,
     JIM SHOEMAKER, LYUDMILA SLIPCHENKO,
     TONY SMITH, JIE SONG, TETSUYA TAKETSUGU, SIMON WEBB,
     JORGE LUIS GALVEZ VALLEJO, PENG XU, SOOHAENG YOO,
     FEDERICO ZAHARIEV

  ADDITIONAL CODE HAS BEEN PROVIDED BY COLLABORATORS IN OTHER GROUPS:
     IOWA STATE UNIVERSITY:
          JOE IVANIC, AARON WEST, LAIMUTIS BYTAUTAS, KLAUS RUEDENBERG
     UNIVERSITY OF TOKYO: KIMIHIKO HIRAO, TAKAHITO NAKAJIMA,
          TAKAO TSUNEDA, MUNEAKI KAMIYA, SUSUMU YANAGISAWA,
          KIYOSHI YAGI, MAHITO CHIBA, SEIKEN TOKURA, NAOAKI KAWAKAMI
     UNIVERSITY OF AARHUS: FRANK JENSEN
     UNIVERSITY OF IOWA: VISVALDAS KAIRYS, HUI LI
     NATIONAL INST. OF STANDARDS AND TECHNOLOGY: WALT STEVENS, DAVID GARMER
     UNIVERSITY OF PISA: BENEDETTA MENNUCCI, JACOPO TOMASI
     UNIVERSITY OF MEMPHIS: HENRY KURTZ, PRAKASHAN KORAMBATH
     UNIVERSITY OF ALBERTA: TOBY ZENG, MARIUSZ KLOBUKOWSKI
     UNIVERSITY OF NEW ENGLAND: MARK SPACKMAN
     MIE UNIVERSITY: HIROAKI UMEDA
     NAT. INST. OF ADVANCED INDUSTRIAL SCIENCE AND TECHNOLOGY: KAZUO KITAURA
     MICHIGAN STATE UNIVERSITY:
          KAROL KOWALSKI, MARTA WLOCH, JEFFREY GOUR, JESSE LUTZ,
          WEI LI, JUN SHEN, J. EMILIANO DEUSTUA, PIOTR PIECUCH
     UNIVERSITY OF MINNESOTA:
          ANDREW SAND, PRACHI SHARMA, YINAN SHU
     UNIVERSITY OF SILESIA: MONIKA MUSIAL, STANISLAW KUCHARSKI
     FACULTES UNIVERSITAIRES NOTRE-DAME DE LA PAIX:
          OLIVIER QUINET, BENOIT CHAMPAGNE
     UNIVERSITY OF CALIFORNIA - SANTA BARBARA: BERNARD KIRTMAN
     INSTITUTE FOR MOLECULAR SCIENCE:
          KAZUYA ISHIMURA, MICHIO KATOUDA, AND SHIGERU NAGASE
     UNIVERSITY OF NOTRE DAME: ANNA POMOGAEVA, DAN CHIPMAN
     KYUSHU UNIVERSITY:
          HARUYUKI NAKANO,
          FENG LONG GU, JACEK KORCHOWIEC, MARCIN MAKOWSKI, AND YURIKO AOKI,
          HIROTOSHI MORI AND EISAKU MIYOSHI
     PENNSYLVANIA STATE UNIVERSITY:
          TZVETELIN IORDANOV, CHET SWALINA, JONATHAN SKONE,
          SHARON HAMMES-SCHIFFER
     WASEDA UNIVERSITY:
          MASATO KOBAYASHI, TOMOKO AKAMA, TSUGUKI TOUMA,
          TAKESHI YOSHIKAWA, YASUHIRO IKABATA, JUNJI SEINO,
          YUYA NAKAJIMA, HIROMI NAKAI
     NANJING UNIVERSITY: SHUHUA LI
     UNIVERSITY OF NEBRASKA:
          PEIFENG SU, DEJUN SI, NANDUN THELLAMUREGE, YALI WANG, HUI LI
     UNIVERSITY OF ZURICH: ROBERTO PEVERATI, KIM BALDRIDGE
     N. COPERNICUS UNIVERSITY AND JACKSON STATE UNIVERSITY:
          MARIA BARYSZ
     UNIVERSITY OF COPENHAGEN: Jimmy Kromann, CASPER STEINMANN
     TOKYO INSTITUTE OF TECHNOLOGY: HIROYA NAKATA
     NAGOYA UNIVERSITY: YOSHIO NISHIMOTO, STEPHAN IRLE
     MOSCOW STATE UNIVERSITY: VLADIMIR MIRONOV
     A.N.NESMEYANOV INSTITUTE OF ORGANOELEMENT COMPOUNDS OF RUSSIAN ACADEMY OF SCIENCES:
          IGOR S. GERASIMOV
     JOHANNES KEPLER UNIVERSITY LINZ:
          CHRISTIAN FRIEDL


 PARALLEL VERSION RUNNING ON        6 PROCESSORS IN        1 NODES.

 EXECUTION OF GAMESS BEGUN Sun May 17 12:37:31 2020

            ECHO OF THE FIRST FEW INPUT CARDS -
 INPUT CARD> $BASIS GBASIS=N21 NGAUSS=3 $END                                                
 INPUT CARD> $CONTRL SCFTYP=RHF RUNTYP=OPTIMIZE DFTTYP=B3LYP MAXIT=60 MULT=1 ICHARG=0 $END  
 INPUT CARD> $SYSTEM MEMDDI=1000 MWORDS=30 $END                                             
 INPUT CARD> $STATPT NSTEP=999 $END                                                         
 INPUT CARD> $SCF DIRSCF=.TRUE. $END                                                        
 INPUT CARD> $DATA                                                                          
 INPUT CARD>                                                                                
 INPUT CARD>C1                                                                              
 INPUT CARD>C 6.0000000 1.13809 0.52621 0.47065                                             
 INPUT CARD>H 1.0000000 1.14905 0.65240 1.55999                                             
 INPUT CARD>C 6.0000000 -0.11243 -0.22227 0.00232                                           
 INPUT CARD>C 6.0000000 -1.40941 0.50657 0.36056                                            
 INPUT CARD>C 6.0000000 -2.65350 -0.20062 -0.17838                                          
 INPUT CARD>N 7.0000000 -3.83235 0.18205 0.40568                                            
 INPUT CARD>O 8.0000000 -2.61368 -1.04206 -1.06437                                          
 INPUT CARD>H 1.0000000 -0.08617 -0.37149 -1.08175                                          
 INPUT CARD>H 1.0000000 -0.13434 -1.22738 0.44023                                           
 INPUT CARD>H 1.0000000 -1.49887 0.63135 1.44849                                            
 INPUT CARD>H 1.0000000 -1.39746 1.52344 -0.05995                                           
 INPUT CARD>H 1.0000000 -3.88335 0.94063 1.06630                                            
 INPUT CARD>H 1.0000000 -4.68986 -0.17844 0.01494                                           
 INPUT CARD>H 1.0000000 2.04824 -0.01504 0.19238                                            
 INPUT CARD>H 1.0000000 1.19779 1.52558 0.02291                                             
 INPUT CARD> $END                                                                           
   30000000 WORDS OF MEMORY AVAILABLE

     BASIS OPTIONS
     -------------
     GBASIS=N21          IGAUSS=       3      POLAR=NONE    
     NDFUNC=       0     NFFUNC=       0     DIFFSP=       F
     NPFUNC=       0      DIFFS=       F     BASNAM=        


     RUN TITLE
     ---------
                                                                                 

 THE POINT GROUP OF THE MOLECULE IS C1      
 THE ORDER OF THE PRINCIPAL AXIS IS     0

 ATOM      ATOMIC                      COORDINATES (BOHR)
           CHARGE         X                   Y                   Z
 C           6.0     2.1506782494        0.9943927120        0.8893995361
 H           1.0     2.1713896462        1.2328572344        2.9479536436
 C           6.0    -0.2124618928       -0.4200293953        0.0043841643
 C           6.0    -2.6633987044        0.9572784936        0.6813596021
 C           6.0    -5.0143879084       -0.3791168277       -0.3370893217
 N           7.0    -7.2420913890        0.3440246161        0.7666240387
 O           8.0    -4.9391390196       -1.9692078628       -2.0113676496
 H           1.0    -0.1628376884       -0.7020143072       -2.0442110872
 H           1.0    -0.2538657892       -2.3194118828        0.8319140716
 H           1.0    -2.8324535912        1.1930785023        2.7372491960
 H           1.0    -2.6408164788        2.8788841587       -0.1132890730
 H           1.0    -7.3384674144        1.7775329558        2.0150148207
 H           1.0    -8.8625503208       -0.3372027052        0.0282325063
 H           1.0     3.8706123571       -0.0284214789        0.3635454855
 H           1.0     2.2634948908        2.8829281723        0.0432936224

          INTERNUCLEAR DISTANCES (ANGS.)
          ------------------------------

                1 C          2 H          3 C          4 C          5 C     

   1 C       0.0000000    1.0966794 *  1.5308023 *  2.5499533 *  3.9148022  
   2 H       1.0966794 *  0.0000000    2.1869420 *  2.8294198 *  4.2671958  
   3 C       1.5308023 *  2.1869420 *  0.0000000    1.5302617 *  2.5475788 *
   4 C       2.5499533 *  2.8294198 *  1.5302617 *  0.0000000    1.5291612 *
   5 C       3.9148022    4.2671958    2.5475788 *  1.5291612 *  0.0000000  
   6 N       4.9827644    5.1349787    3.7635062    2.4449923 *  1.3701276 *
   7 O       4.3464394    4.8904598    2.8400941 *  2.4246539 *  1.2225323 *
   8 H       2.1713184 *  3.0907781    1.0946068 *  2.1452766 *  2.7269868 *
   9 H       2.1668136 *  2.5366366 *  1.0965817 *  2.1537719 *  2.7898175 *
  10 H       2.8143887 *  2.6503501 *  2.1776801 *  1.0987105 *  2.1614927 *
  11 H       2.7757914 *  3.1412783    2.1685671 *  1.1004527 *  2.1363626 *
  12 H       5.0735986    5.0647661    4.0870806    2.6089952 *  2.0890694 *
  13 H       5.8880561    6.0967487    4.5776572    3.3689826    2.0456360 *
  14 H       1.0948784 *  1.7675904 *  2.1788901 *  3.5008149    4.7199854  
  15 H       1.0967113 *  1.7684552 *  2.1845091 *  2.8195533 *  4.2252478  

                6 N          7 O          8 H          9 H         10 H     

   1 C       4.9827644    4.3464394    2.1713184 *  2.1668136 *  2.8143887 *
   2 H       5.1349787    4.8904598    3.0907781    2.5366366 *  2.6503501 *
   3 C       3.7635062    2.8400941 *  1.0946068 *  1.0965817 *  2.1776801 *
   4 C       2.4449923 *  2.4246539 *  2.1452766 *  2.1537719 *  1.0987105 *
   5 C       1.3701276 *  1.2225323 *  2.7269868 *  2.7898175 *  2.1614927 *
   6 N       0.0000000    2.2681818 *  4.0685033    3.9576463    2.5950823 *
   7 O       2.2681818 *  0.0000000    2.6150092 *  2.9060784 *  3.2183175  
   8 H       4.0685033    2.6150092 *  0.0000000    1.7467945 *  3.0665166  
   9 H       3.9576463    2.9060784 *  1.7467945 *  0.0000000    2.5166262 *
  10 H       2.5950823 *  3.2183175    3.0665166    2.5166262 *  0.0000000  
  11 H       2.8186571 *  3.0116177    2.5207769 *  3.0680063    1.7554201 *
  12 H       1.0072057 *  3.1753545    4.5556946    4.3757636    2.4346392 *
  13 H       1.0089372 *  2.4942480 *  4.7364500    4.6940291    3.5907162  
  14 H       5.8877568    4.9363639    2.5112089 *  2.5089546 *  3.8180652  
  15 H       5.2205262    4.7225265    2.5431676 *  3.0866673    3.1786634  

               11 H         12 H         13 H         14 H         15 H     

   1 C       2.7757914 *  5.0735986    5.8880561    1.0948784 *  1.0967113 *
   2 H       3.1412783    5.0647661    6.0967487    1.7675904 *  1.7684552 *
   3 C       2.1685671 *  4.0870806    4.5776572    2.1788901 *  2.1845091 *
   4 C       1.1004527 *  2.6089952 *  3.3689826    3.5008149    2.8195533 *
   5 C       2.1363626 *  2.0890694 *  2.0456360 *  4.7199854    4.2252478  
   6 N       2.8186571 *  1.0072057 *  1.0089372 *  5.8877568    5.2205262  
   7 O       3.0116177    3.1753545    2.4942480 *  4.9363639    4.7225265  
   8 H       2.5207769 *  4.5556946    4.7364500    2.5112089 *  2.5431676 *
   9 H       3.0680063    4.3757636    4.6940291    2.5089546 *  3.0866673  
  10 H       1.7554201 *  2.4346392 *  3.5907162    3.8180652    3.1786634  
  11 H       0.0000000    2.7906551 *  3.7070071    3.7819888    2.5965733 *
  12 H       2.7906551 *  0.0000000    1.7343973 *  6.0713097    5.2200395  
  13 H       3.7070071    1.7343973 *  0.0000000    6.7424162    6.1292879  
  14 H       3.7819888    6.0713097    6.7424162    0.0000000    1.7679070 *
  15 H       2.5965733 *  5.2200395    6.1292879    1.7679070 *  0.0000000  

  * ... LESS THAN  3.000


     ATOMIC BASIS SET
     ----------------
 THE CONTRACTED PRIMITIVE FUNCTIONS HAVE BEEN UNNORMALIZED
 THE CONTRACTED BASIS FUNCTIONS ARE NOW NORMALIZED TO UNITY

  SHELL TYPE  PRIMITIVE        EXPONENT          CONTRACTION COEFFICIENT(S)

 C         

      1   S       1           172.2560000    0.061766907377
      1   S       2            25.9109000    0.358794042852
      1   S       3             5.5333500    0.700713083689

      2   L       4             3.6649800   -0.395895162119    0.236459946619
      2   L       5             0.7705450    1.215834355681    0.860618805716

      3   L       6             0.1958570    1.000000000000    1.000000000000

 H         

      4   S       7             5.4471780    0.156284978695
      4   S       8             0.8245472    0.904690876670

      5   S       9             0.1831916    1.000000000000

 C         

      6   S      10           172.2560000    0.061766907377
      6   S      11            25.9109000    0.358794042852
      6   S      12             5.5333500    0.700713083689

      7   L      13             3.6649800   -0.395895162119    0.236459946619
      7   L      14             0.7705450    1.215834355681    0.860618805716

      8   L      15             0.1958570    1.000000000000    1.000000000000

 C         

      9   S      16           172.2560000    0.061766907377
      9   S      17            25.9109000    0.358794042852
      9   S      18             5.5333500    0.700713083689

     10   L      19             3.6649800   -0.395895162119    0.236459946619
     10   L      20             0.7705450    1.215834355681    0.860618805716

     11   L      21             0.1958570    1.000000000000    1.000000000000

 C         

     12   S      22           172.2560000    0.061766907377
     12   S      23            25.9109000    0.358794042852
     12   S      24             5.5333500    0.700713083689

     13   L      25             3.6649800   -0.395895162119    0.236459946619
     13   L      26             0.7705450    1.215834355681    0.860618805716

     14   L      27             0.1958570    1.000000000000    1.000000000000

 N         

     15   S      28           242.7660000    0.059865700508
     15   S      29            36.4851000    0.352955002994
     15   S      30             7.8144900    0.706513005993

     16   L      31             5.4252200   -0.413300077430    0.237972016222
     16   L      32             1.1491500    1.224417266851    0.858953058551

     17   L      33             0.2832050    1.000000000000    1.000000000000

 O         

     18   S      34           322.0370000    0.059239393389
     18   S      35            48.4308000    0.351499960776
     18   S      36            10.4206000    0.707657921031

     19   L      37             7.4029400   -0.404453583190    0.244586106967
     19   L      38             1.5762000    1.221561761397    0.853955373466

     20   L      39             0.3736840    1.000000000000    1.000000000000

 H         

     21   S      40             5.4471780    0.156284978695
     21   S      41             0.8245472    0.904690876670

     22   S      42             0.1831916    1.000000000000

 H         

     23   S      43             5.4471780    0.156284978695
     23   S      44             0.8245472    0.904690876670

     24   S      45             0.1831916    1.000000000000

 H         

     25   S      46             5.4471780    0.156284978695
     25   S      47             0.8245472    0.904690876670

     26   S      48             0.1831916    1.000000000000

 H         

     27   S      49             5.4471780    0.156284978695
     27   S      50             0.8245472    0.904690876670

     28   S      51             0.1831916    1.000000000000

 H         

     29   S      52             5.4471780    0.156284978695
     29   S      53             0.8245472    0.904690876670

     30   S      54             0.1831916    1.000000000000

 H         

     31   S      55             5.4471780    0.156284978695
     31   S      56             0.8245472    0.904690876670

     32   S      57             0.1831916    1.000000000000

 H         

     33   S      58             5.4471780    0.156284978695
     33   S      59             0.8245472    0.904690876670

     34   S      60             0.1831916    1.000000000000

 H         

     35   S      61             5.4471780    0.156284978695
     35   S      62             0.8245472    0.904690876670

     36   S      63             0.1831916    1.000000000000

 TOTAL NUMBER OF BASIS SET SHELLS             =   36
 NUMBER OF CARTESIAN GAUSSIAN BASIS FUNCTIONS =   72
 NUMBER OF ELECTRONS                          =   48
 CHARGE OF MOLECULE                           =    0
 SPIN MULTIPLICITY                            =    1
 NUMBER OF OCCUPIED ORBITALS (ALPHA)          =   24
 NUMBER OF OCCUPIED ORBITALS (BETA )          =   24
 TOTAL NUMBER OF ATOMS                        =   15
 THE NUCLEAR REPULSION ENERGY IS      238.0154017019

 SELECTED MURRAY-HANDY-LAMING RADIAL GRID

 LEGACY BECKE'S FUZZY CELL METHOD

 SELECTED ORIGINAL BECKE'S PARTITION FUNCTION

     LEBEDEV GRID-BASED DFT OPTIONS
     ------------------------------
     DFTTYP=B3LYP   
     NRAD  =      96     NLEB  =     302
     NRAD0 =      24     NLEB0 =     110
     SWOFF =    5.00E-03 (PURE SCF -> DFT)
     SWITCH=    3.00E-04 (COARSE -> TIGHT GRID)
     THRESH=    0.00E+00 GTHRE=    1.00E+00

 GRIMME'S EMPIRICAL DISPERSION CORRECTION= F

     $CONTRL OPTIONS
     ---------------
 SCFTYP=RHF          RUNTYP=OPTIMIZE     EXETYP=RUN     
 MPLEVL=       0     CITYP =NONE         CCTYP =NONE         VBTYP =NONE    
 DFTTYP=B3LYP        TDDFT =NONE    
 MULT  =       1     ICHARG=       0     NZVAR =       0     COORD =UNIQUE  
 PP    =NONE         RELWFN=NONE         LOCAL =NONE         NUMGRD=       F
 ISPHER=      -1     NOSYM =       0     MAXIT =      60     UNITS =ANGS    
 PLTORB=       F     MOLPLT=       F     AIMPAC=       F     FRIEND=        
 NPRINT=       7     IREST =       0     GEOM  =INPUT   
 NORMF =       0     NORMP =       0     ITOL  =      20     ICUT  =       9
 INTTYP=BEST         GRDTYP=BEST         QMTTOL= 1.0E-06

     $SYSTEM OPTIONS
     ---------------
  REPLICATED MEMORY=    30000000 WORDS (ON EVERY NODE).
 DISTRIBUTED MEMDDI=        1000 MILLION WORDS IN AGGREGATE,
 MEMDDI DISTRIBUTED OVER   6 PROCESSORS IS   166666666 WORDS/PROCESSOR.
 TOTAL MEMORY REQUESTED ON EACH PROCESSOR=   196666666 WORDS.
 TIMLIM=      525600.00 MINUTES, OR     365.0 DAYS.
 PARALL= T  BALTYP=  DLB     KDIAG=    0  COREFL= F
 MXSEQ2=     300 MXSEQ3=     150  mem10=         0

          ----------------
          PROPERTIES INPUT
          ----------------

     MOMENTS            FIELD           POTENTIAL          DENSITY
 IEMOM =       1   IEFLD =       0   IEPOT =       0   IEDEN =       0
 WHERE =COMASS     WHERE =NUCLEI     WHERE =NUCLEI     WHERE =NUCLEI  
 OUTPUT=BOTH       OUTPUT=BOTH       OUTPUT=BOTH       OUTPUT=BOTH    
 IEMINT=       0   IEFINT=       0                     IEDINT=       0
                                                       MORB  =       0
          EXTRAPOLATION IN EFFECT
          DIIS IN EFFECT
 ORBITAL PRINTING OPTION: NPREO=     1    72     2     1

     -------------------------------
     INTEGRAL TRANSFORMATION OPTIONS
     -------------------------------
     NWORD  =            0
     CUTOFF = 1.0E-09     MPTRAN =       0
     DIRTRF =       T     AOINTS =DUP     

          ----------------------
          INTEGRAL INPUT OPTIONS
          ----------------------
 NOPK  =       1 NORDER=       0 SCHWRZ=       T

     ------------------------------------------
     THE POINT GROUP IS C1 , NAXIS= 0, ORDER= 1
     ------------------------------------------

     DIMENSIONS OF THE SYMMETRY SUBSPACES ARE
 A   =   72

 ..... DONE SETTING UP THE RUN .....
 CPU     0: STEP CPU TIME=     0.01 TOTAL CPU TIME=          0.0 (      0.0 MIN)
 TOTAL WALL CLOCK TIME=          0.0 SECONDS, CPU UTILIZATION IS    50.00%


          -----------------------------
          STATIONARY POINT LOCATION RUN
          -----------------------------

 OBTAINING INITIAL HESSIAN, HESS=GUESS   
 CARTESIAN COORDINATE OPTIMIZATION USING BADGER'S RULE FORCE CONSTANT GUESS

          PARAMETERS CONTROLLING GEOMETRY SEARCH ARE
          METHOD =QA                  UPHESS =BFGS    
          NNEG   =         0          NFRZ   =         0
          NSTEP  =       999          IFOLOW =         1
          HESS   =GUESS               RESTAR =         F
          IHREP  =         0          HSSEND =         F
          NPRT   =         0          NPUN   =         0
          OPTTOL = 1.000E-04          RMIN   = 1.500E-03
          RMAX   = 1.000E-01          RLIM   = 7.000E-02
          DXMAX  = 3.000E-01          PURIFY =         F
          MOVIE  =         F          TRUPD  =         T
          TRMAX  = 5.000E-01          TRMIN  = 5.000E-02
          ITBMAT =         5          STPT   =         F
          STSTEP = 1.000E-02          PROJCT=          T

 BEGINNING GEOMETRY SEARCH POINT NSERCH=   0 ...

 COORDINATES OF ALL ATOMS ARE (ANGS)
   ATOM   CHARGE       X              Y              Z
 ------------------------------------------------------------
 C           6.0   1.1380900000   0.5262100000   0.4706500000
 H           1.0   1.1490500000   0.6524000000   1.5599900000
 C           6.0  -0.1124300000  -0.2222700000   0.0023200000
 C           6.0  -1.4094100000   0.5065700000   0.3605600000
 C           6.0  -2.6535000000  -0.2006200000  -0.1783800000
 N           7.0  -3.8323500000   0.1820500000   0.4056800000
 O           8.0  -2.6136800000  -1.0420600000  -1.0643700000
 H           1.0  -0.0861700000  -0.3714900000  -1.0817500000
 H           1.0  -0.1343400000  -1.2273800000   0.4402300000
 H           1.0  -1.4988700000   0.6313500000   1.4484900000
 H           1.0  -1.3974600000   1.5234400000  -0.0599500000
 H           1.0  -3.8833500000   0.9406300000   1.0663000000
 H           1.0  -4.6898600000  -0.1784400000   0.0149400000
 H           1.0   2.0482400000  -0.0150400000   0.1923800000
 H           1.0   1.1977900000   1.5255800000   0.0229100000

          ********************
          1 ELECTRON INTEGRALS
          ********************
 ...... END OF ONE-ELECTRON INTEGRALS ......
 CPU     0: STEP CPU TIME=     0.01 TOTAL CPU TIME=          0.0 (      0.0 MIN)
 TOTAL WALL CLOCK TIME=          0.0 SECONDS, CPU UTILIZATION IS    66.67%

          -------------
          GUESS OPTIONS
          -------------
          GUESS =HUCKEL            NORB  =       0          NORDER=       0
          MIX   =       F          PRTMO =       F          PUNMO =       F
          TOLZ  = 1.0E-08          TOLE  = 1.0E-05
          SYMDEN=       F          PURIFY=       F

 INITIAL GUESS ORBITALS GENERATED BY HUCKEL   ROUTINE.
 HUCKEL GUESS REQUIRES     54630 WORDS.

 SYMMETRIES FOR INITIAL GUESS ORBITALS FOLLOW.   BOTH SET(S).
    24 ORBITALS ARE OCCUPIED (    6 CORE ORBITALS).
     7=A        8=A        9=A       10=A       11=A       12=A       13=A   
    14=A       15=A       16=A       17=A       18=A       19=A       20=A   
    21=A       22=A       23=A       24=A       25=A       26=A       27=A   
    28=A       29=A       30=A       31=A       32=A       33=A       34=A   
 ...... END OF INITIAL ORBITAL SELECTION ......
 CPU     0: STEP CPU TIME=     0.02 TOTAL CPU TIME=          0.0 (      0.0 MIN)
 TOTAL WALL CLOCK TIME=          0.1 SECONDS, CPU UTILIZATION IS    80.00%

                    ----------------------
                    AO INTEGRAL TECHNOLOGY
                    ----------------------
     S,P,L SHELL ROTATED AXIS INTEGRALS, REPROGRAMMED BY
        KAZUYA ISHIMURA (IMS) AND JOSE SIERRA (SYNSTAR).
     S,P,D,L SHELL ROTATED AXIS INTEGRALS PROGRAMMED BY
        KAZUYA ISHIMURA (INSTITUTE FOR MOLECULAR SCIENCE).
     S,P,D,F,G SHELL TO TOTAL QUARTET ANGULAR MOMENTUM SUM 5,
        ERIC PROGRAM BY GRAHAM FLETCHER (ELORET AND NASA ADVANCED
        SUPERCOMPUTING DIVISION, AMES RESEARCH CENTER).
     S,P,D,F,G,L SHELL GENERAL RYS QUADRATURE PROGRAMMED BY
        MICHEL DUPUIS (PACIFIC NORTHWEST NATIONAL LABORATORY).

          --------------------
          2 ELECTRON INTEGRALS
          --------------------

 DIRECT SCF METHOD SKIPS INTEGRAL STORAGE ON DISK.
 DIRECT TRANSFORMATION SKIPS AO INTEGRAL STORAGE ON DISK.
  ...... END OF TWO-ELECTRON INTEGRALS .....
 CPU     0: STEP CPU TIME=     0.01 TOTAL CPU TIME=          0.0 (      0.0 MIN)
 TOTAL WALL CLOCK TIME=          0.1 SECONDS, CPU UTILIZATION IS    83.33%

          --------------------------
             R-B3LYP SCF CALCULATION
          --------------------------

     NUCLEAR ENERGY =       238.0154017019
     MAXIT =   60     NPUNCH=    2
     EXTRAP=T  DAMP=F  SHIFT=F  RSTRCT=F  DIIS=T  DEM=F  SOSCF=F
         DENSITY MATRIX CONVERGENCE THRESHOLD=  2.00E-05
     COARSE -> FINE DFT GRID SWITCH THRESHOLD=  3.00E-04 (SWITCH IN $DFT)
                   HF -> DFT SWITCH THRESHOLD=  5.00E-03 (SWOFF IN $DFT)
     MEMORY REQUIRED FOR RHF ITERS=    585757 WORDS.

 DIRECT SCF CALCULATION, SCHWRZ=T   FDIFF=T,  DIRTHR=  0.00E+00 NITDIR=10
 SCHWARZ INEQUALITY OVERHEAD:      2533 INTEGRALS, T=        0.00

 DFT CODE IS SWITCHING FROM THE FINE GRID NRAD= 96,  NLEB=  302
                      TO THE COARSE GRID NRAD0= 24, NLEB0=  110

     EXCHANGE FUNCTIONAL   =B88&HFX   
     CORRELATION FUNCTIONAL=LYP88&VWN5
     DFT THRESHOLD         =.920E-08
     GRID CHANGE THRESHOLD =.300E-03
 FOR AN EULER-MACLAURIN QUADRATURE USING  96 RADIAL POINTS:
 SMALLEST GAUSSIAN PRIMITIVE EXPONENT=        0.1831915800 OF TYPE -S-
 ON ATOM NUMBER   2 HAS RADIAL NORMALIZATION=  1.000000
  LARGEST GAUSSIAN PRIMITIVE EXPONENT=      322.0370000000 OF TYPE -S-
 ON ATOM NUMBER   7 HAS RADIAL NORMALIZATION=  1.000000
 DFT IS SWITCHED OFF, PERFORMING PURE SCF UNTIL SWOFF THRESHOLD IS REACHED.

                                                                                   NONZERO     BLOCKS
 ITER EX DEM     TOTAL ENERGY        E CHANGE  DENSITY CHANGE    DIIS ERROR      INTEGRALS    SKIPPED
   1  0  0     -283.7177044189  -283.7177044189   0.788955369   0.620160968        2593795      72684
          * * *   INITIATING DIIS PROCEDURE   * * *
   2  1  0     -284.3461855895    -0.6284811706   0.184781885   0.216081956        2588269      75337
   3  2  0     -284.3990810922    -0.0528955027   0.103297771   0.159533338        2571222      80196
   4  3  0     -284.4543965559    -0.0553154636   0.027184478   0.007294555        2545649      85205
   5  4  0     -284.4550936348    -0.0006970789   0.005078066   0.002854763        2493764      91019
   6  5  0     -284.4551540037    -0.0000603689   0.001545243   0.001104383        2426318      97491
 CONVERGED TO SWOFF, SO DFT CALCULATION IS NOW SWITCHED ON.
          * * *   INITIATING DIIS PROCEDURE   * * *
   7  6  0     -286.0602951405    -1.6051411368   0.087997246   0.080638758        2595145      71823
   8  7  0     -286.0777261293    -0.0174309888   0.096709393   0.042418766        2570433      80707
   9  8  0     -286.0774424670     0.0002836623   0.056171831   0.062361623        2551678      83293
  10  9  0     -286.0860107646    -0.0085682976   0.016430174   0.023050772        2529042      87259
  11 10  0     -286.0867568685    -0.0007461040   0.003724915   0.003956328        2486002      91958
  12 11  0     -286.0867826107    -0.0000257422   0.000570934   0.000592925        2376976     101315
  13 12  0     -286.0867834363    -0.0000008255   0.000123844   0.000119330        2282118     109141
 DFT CODE IS SWITCHING BACK TO THE FINE GRID
          * * *   INITIATING DIIS PROCEDURE   * * *
  14 13  0     -286.0873082597    -0.0005248234   0.001956712   0.000987238        2595583      71488
  15 14  0     -286.0873162258    -0.0000079661   0.000861223   0.000598203        2406869      99159
  16 15  0     -286.0873154524     0.0000007734   0.000629778   0.001008866        2289853     109381
  17 16  0     -286.0873166535    -0.0000012011   0.000042716   0.000065742        2251577     113440
  18 17  0     -286.0873166635    -0.0000000101   0.000015019   0.000022266        2083041     123305
  19 18  0     -286.0873166650    -0.0000000014   0.000008338   0.000009098        1940496     133076

          -----------------
          DENSITY CONVERGED
          -----------------
     TIME TO FORM FOCK OPERATORS=       4.4 SECONDS (       0.2 SEC/ITER)
     FOCK TIME ON FIRST ITERATION=       0.0, LAST ITERATION=       0.6
     TIME TO SOLVE SCF EQUATIONS=       0.1 SECONDS (       0.0 SEC/ITER)

 FINAL R-B3LYP ENERGY IS     -286.0873166650 AFTER  19 ITERATIONS
 DFT EXCHANGE + CORRELATION ENERGY =       -32.5908134828
 TOTAL ELECTRON NUMBER             =        48.0002582614

          ------------
          EIGENVECTORS
          ------------

                      1          2          3          4          5
                  -18.9875   -14.2576   -10.2141   -10.1210   -10.1086
                     A          A          A          A          A   
    1  C  1  S    0.000063  -0.000118  -0.001194  -0.008079  -0.063427
    2  C  1  S    0.000226  -0.000615  -0.001366  -0.001797  -0.009950
    3  C  1  X    0.000494  -0.000207   0.000445   0.000945  -0.000263
    4  C  1  Y    0.000014   0.000014  -0.000199  -0.000072   0.000018
    5  C  1  Z   -0.000053  -0.000032  -0.000106  -0.000028   0.000021
    6  C  1  S   -0.003699   0.004764   0.004426   0.000789   0.029633
    7  C  1  X    0.000333  -0.001661  -0.003577  -0.000091  -0.011895
    8  C  1  Y    0.000986  -0.001549   0.000352   0.000421  -0.006391
    9  C  1  Z    0.001418  -0.001032   0.000177   0.000523  -0.004174
   10  H  2  S   -0.000021  -0.000200  -0.000506   0.000084  -0.001458
   11  H  2  S   -0.000278   0.000172  -0.000368  -0.001369  -0.000249
   12  C  3  S   -0.000082  -0.000041  -0.001075  -0.029268   0.984399
   13  C  3  S   -0.000372  -0.000451  -0.000761  -0.006240   0.115150
   14  C  3  X   -0.000823   0.001150   0.000998  -0.000416  -0.000107
   15  C  3  Y   -0.000258   0.000268   0.000162  -0.000274   0.000215
   16  C  3  Z    0.000046   0.000174   0.000170  -0.000093   0.000127
   17  C  3  S    0.006489  -0.003075  -0.000392   0.027963  -0.104841
   18  C  3  X    0.001311  -0.004458  -0.003373  -0.013485   0.000348
   19  C  3  Y    0.004639  -0.003793  -0.000229   0.007727  -0.006473
   20  C  3  Z    0.000727  -0.001274  -0.000780   0.002991  -0.003553
   21  C  4  S   -0.000050  -0.000060  -0.004769   0.986455   0.027910
   22  C  4  S   -0.000244  -0.000761  -0.003451   0.116131   0.000486
   23  C  4  X    0.000498   0.000158   0.000672  -0.000043   0.000174
   24  C  4  Y   -0.000123   0.000024   0.000599   0.000030   0.000241
   25  C  4  Z   -0.000379   0.000311   0.000226  -0.000196   0.000132
   26  C  4  S    0.007758   0.001644   0.026430  -0.109808   0.021947
   27  C  4  X   -0.011883   0.003621  -0.017817   0.000102   0.012966
   28  C  4  Y    0.001714  -0.001204  -0.008092   0.007757  -0.007106
   29  C  4  Z    0.004870  -0.004168  -0.004458   0.006463  -0.003204
   30  C  5  S    0.000302  -0.000342   0.985383   0.004004   0.001136
   31  C  5  S    0.002040  -0.001914   0.105529  -0.002526  -0.000346
   32  C  5  X    0.000081   0.000042   0.000880  -0.000104  -0.000671
   33  C  5  Y   -0.001140  -0.000097  -0.000263  -0.000251   0.000009
   34  C  5  Z   -0.001265  -0.000042  -0.000426  -0.000278  -0.000022
   35  C  5  S    0.016004   0.024594  -0.057981   0.025603  -0.002269
   36  C  5  X   -0.001549  -0.022789  -0.016461   0.018932   0.001529
   37  C  5  Y   -0.025085   0.007775  -0.017063   0.006228   0.000178
   38  C  5  Z   -0.026040   0.011430  -0.015395   0.004087  -0.000583
   39  N  6  S   -0.000095   0.984941   0.000238  -0.000052  -0.000064
   40  N  6  S   -0.000636   0.110467  -0.000281  -0.000890  -0.000615
   41  N  6  X   -0.000829   0.001081  -0.001351  -0.000719  -0.000408
   42  N  6  Y   -0.000777   0.000008  -0.000521   0.000100  -0.000077
   43  N  6  Z   -0.000702  -0.001018  -0.000377   0.000214   0.000059
   44  N  6  S    0.005256  -0.075163   0.006579   0.002570   0.002002
   45  N  6  X    0.006719  -0.011207   0.005259   0.001529   0.002390
   46  N  6  Y    0.006677   0.003265   0.005924  -0.001610   0.000059
   47  N  6  Z    0.005982   0.006931   0.005473  -0.001961  -0.000403
   48  O  7  S    0.982868  -0.000010   0.000455   0.000044  -0.000005
   49  O  7  S    0.108289  -0.000502   0.002144   0.000128  -0.000065
   50  O  7  X   -0.000327  -0.000651  -0.000503   0.000373   0.000014
   51  O  7  Y    0.003264  -0.000225  -0.000716  -0.000168   0.000006
   52  O  7  Z    0.003428  -0.000121  -0.000650  -0.000099  -0.000157
   53  O  7  S   -0.067153   0.002291  -0.007891  -0.001787   0.000245
   54  O  7  X    0.001316   0.004928   0.003789  -0.003174  -0.000464
   55  O  7  Y   -0.012565   0.000463  -0.004208  -0.000742   0.000030
   56  O  7  Z   -0.013257  -0.000273  -0.005033  -0.000731   0.000596
   57  H  8  S   -0.000280  -0.000409  -0.000356  -0.001643   0.000815
   58  H  8  S    0.000034   0.000244  -0.000001   0.000465   0.016260
   59  H  9  S    0.000435  -0.000399  -0.000411  -0.001430   0.000820
   60  H  9  S    0.000516  -0.000891   0.000610   0.000842   0.016172
   61  H 10  S   -0.001220   0.000527  -0.001819   0.000692  -0.001372
   62  H 10  S   -0.002177   0.001016   0.001400   0.015795   0.001254
   63  H 11  S   -0.000066   0.000096  -0.001800   0.001119  -0.001402
   64  H 11  S   -0.000390  -0.001383   0.003279   0.016477   0.001582
   65  H 12  S   -0.002662   0.000907  -0.002744   0.000282  -0.000484
   66  H 12  S   -0.001328   0.007690  -0.001151   0.000444   0.001004
   67  H 13  S    0.002429   0.001607   0.001356  -0.000422   0.000218
   68  H 13  S    0.001306   0.007230   0.002559   0.001761   0.000664
   69  H 14  S    0.000249  -0.000295  -0.000045  -0.000248  -0.001169
   70  H 14  S    0.000925  -0.000320   0.001353   0.001522  -0.000814
   71  H 15  S    0.000070  -0.000203  -0.000418   0.000142  -0.001471
   72  H 15  S    0.000385   0.000127  -0.000511  -0.001258  -0.000376

                      6          7          8          9         10
                  -10.1030    -1.0331    -0.8934    -0.7861    -0.7017
                     A          A          A          A          A   
    1  C  1  S    0.984244  -0.000897  -0.000532  -0.097618  -0.147944
    2  C  1  S    0.111880   0.000827   0.003329   0.098170   0.140905
    3  C  1  X   -0.000052  -0.002101  -0.000271  -0.042213  -0.001676
    4  C  1  Y    0.000191  -0.000217  -0.000061  -0.017730  -0.011687
    5  C  1  Z    0.000101  -0.000166   0.000019  -0.011559  -0.006588
    6  C  1  S   -0.089623   0.009380  -0.019914   0.222492   0.424132
    7  C  1  X    0.003916   0.000085   0.008626   0.000630  -0.000350
    8  C  1  Y    0.001412  -0.002906   0.006528   0.002820  -0.005119
    9  C  1  Z    0.001073  -0.003047   0.005070   0.001217  -0.002207
   10  H  2  S   -0.000104   0.000420   0.001041   0.045983   0.079671
   11  H  2  S    0.016061   0.000522  -0.000405   0.001425   0.007513
   12  C  3  S    0.062558  -0.006121  -0.002505  -0.145526  -0.050005
   13  C  3  S    0.005072   0.007859   0.002417   0.140069   0.045753
   14  C  3  X   -0.000315  -0.005070  -0.005560  -0.015467   0.105527
   15  C  3  Y   -0.000285   0.001320   0.000606   0.033736   0.005579
   16  C  3  Z   -0.000141  -0.000501   0.001193   0.018385   0.007981
   17  C  3  S    0.014001  -0.010053   0.025796   0.354338   0.147333
   18  C  3  X    0.011228  -0.002201   0.017881   0.005084   0.006166
   19  C  3  Y    0.006252  -0.014538   0.018896   0.008476   0.003673
   20  C  3  Z    0.003580  -0.002951   0.006215   0.006182   0.001751
   21  C  4  S    0.009801  -0.021911  -0.021777  -0.137680   0.126380
   22  C  4  S    0.000108   0.021505   0.021237   0.131563  -0.116541
   23  C  4  X   -0.001080  -0.017429  -0.020429   0.031963   0.069882
   24  C  4  Y   -0.000346  -0.012842   0.000998  -0.020447   0.000498
   25  C  4  Z   -0.000334  -0.010091   0.003441  -0.011769   0.005328
   26  C  4  S   -0.000707   0.007431   0.052947   0.359596  -0.389742
   27  C  4  X    0.004554   0.040014  -0.032822  -0.011858   0.015359
   28  C  4  Y    0.002506   0.000604   0.010681  -0.007329   0.000797
   29  C  4  Z    0.002520  -0.010776   0.019718  -0.009476   0.004390
   30  C  5  S    0.000973  -0.138445  -0.039234  -0.022569   0.056525
   31  C  5  S   -0.001084   0.152376   0.049628   0.029473  -0.065240
   32  C  5  X   -0.000404  -0.020756  -0.099969   0.074419  -0.084056
   33  C  5  Y   -0.000025  -0.096631   0.100366   0.042960  -0.072242
   34  C  5  Z   -0.000073  -0.098850   0.116992   0.036221  -0.060570
   35  C  5  S    0.004740   0.158478   0.031274   0.026156  -0.118887
   36  C  5  X    0.005780   0.028120   0.029444  -0.007394  -0.025257
   37  C  5  Y    0.000581   0.061920  -0.013326   0.008290  -0.037294
   38  C  5  Z    0.000047   0.059496  -0.017433   0.009902  -0.031619
   39  N  6  S   -0.000038  -0.060165  -0.204278   0.030945  -0.038909
   40  N  6  S   -0.000353   0.055666   0.187987  -0.027666   0.035917
   41  N  6  X   -0.000142   0.028028   0.026281   0.023985  -0.074422
   42  N  6  Y    0.000096  -0.012473   0.012546   0.005801  -0.006819
   43  N  6  Z    0.000138  -0.022576  -0.015328   0.007801  -0.005061
   44  N  6  S    0.001767   0.147308   0.631297  -0.106166   0.138233
   45  N  6  X    0.000871   0.003734   0.048123   0.008287  -0.047751
   46  N  6  Y   -0.000840  -0.030933   0.008400   0.007355  -0.004024
   47  N  6  Z   -0.001083  -0.038102  -0.022645   0.011744  -0.006073
   48  O  7  S    0.000009  -0.192748   0.087669   0.024864  -0.029511
   49  O  7  S    0.000011   0.178823  -0.083693  -0.025097   0.030382
   50  O  7  X    0.000026  -0.007797  -0.011180   0.018252  -0.022302
   51  O  7  Y    0.000020   0.099626  -0.033222  -0.004847  -0.002913
   52  O  7  Z   -0.000034   0.104878  -0.033315  -0.006849   0.001158
   53  O  7  S   -0.000687   0.605825  -0.289308  -0.078474   0.094556
   54  O  7  X   -0.000718  -0.015613  -0.017083   0.018750  -0.016669
   55  O  7  Y   -0.000353   0.096698  -0.032491  -0.003864  -0.002758
   56  O  7  Z   -0.000151   0.102898  -0.031632  -0.005778  -0.000890
   57  H  8  S   -0.001197   0.003206   0.001303   0.065561   0.024275
   58  H  8  S    0.002054   0.003661  -0.004198  -0.006364   0.002702
   59  H  9  S   -0.001153   0.001852   0.002194   0.065618   0.025444
   60  H  9  S    0.002320  -0.001830   0.002248  -0.005153   0.002865
   61  H 10  S   -0.000353   0.009298   0.010121   0.065529  -0.071104
   62  H 10  S   -0.001498   0.000226  -0.004536   0.000765  -0.004535
   63  H 11  S   -0.000268   0.007493   0.009027   0.066136  -0.070603
   64  H 11  S   -0.000988  -0.007063   0.000357  -0.001681  -0.002087
   65  H 12  S    0.000034   0.026974   0.107730  -0.014575   0.023172
   66  H 12  S    0.000778   0.004745   0.022313  -0.006560   0.007661
   67  H 13  S   -0.000221   0.018230   0.100233  -0.027565   0.056882
   68  H 13  S    0.000423  -0.000937   0.018499  -0.013014   0.026907
   69  H 14  S   -0.000221  -0.000072   0.001060   0.042885   0.084625
   70  H 14  S    0.015406  -0.003568   0.001228  -0.003129   0.014523
   71  H 15  S   -0.000084   0.000269   0.001045   0.046022   0.079634
   72  H 15  S    0.016155  -0.000299   0.000474   0.001480   0.007551

                     11         12         13         14         15
                   -0.6051    -0.5625    -0.5272    -0.4708    -0.4604
                     A          A          A          A          A   
    1  C  1  S    0.106830   0.037152  -0.000931   0.010318  -0.014838
    2  C  1  S   -0.099720  -0.032240   0.001468  -0.009106   0.012140
    3  C  1  X   -0.075746  -0.038168  -0.014589  -0.069154   0.098839
    4  C  1  Y   -0.048010  -0.054374   0.036669  -0.047231  -0.032694
    5  C  1  Z   -0.030006  -0.029689   0.017839   0.090310   0.096732
    6  C  1  S   -0.368440  -0.154435   0.004388  -0.044985   0.073175
    7  C  1  X   -0.022929   0.000453  -0.015912  -0.048327   0.064667
    8  C  1  Y   -0.019467  -0.024708   0.026111  -0.027947  -0.030966
    9  C  1  Z   -0.011586  -0.012750   0.011856   0.064341   0.061595
   10  H  2  S   -0.084317  -0.042828   0.012902   0.044915   0.067926
   11  H  2  S   -0.029791  -0.022884   0.011607   0.042043   0.053273
   12  C  3  S   -0.116549  -0.080268   0.027067  -0.010827   0.023816
   13  C  3  S    0.105931   0.074154  -0.022287   0.008519  -0.019646
   14  C  3  X   -0.058645   0.020880  -0.037060   0.011697  -0.058095
   15  C  3  Y   -0.046123  -0.076091   0.077398  -0.029207  -0.127905
   16  C  3  Z   -0.028709  -0.034598   0.037469   0.179100   0.086381
   17  C  3  S    0.406242   0.299010  -0.124078   0.045275  -0.104663
   18  C  3  X   -0.025491   0.025700  -0.001539   0.000455  -0.034383
   19  C  3  Y   -0.011409  -0.026910   0.039030  -0.016484  -0.103945
   20  C  3  Z   -0.007606  -0.013181   0.020033   0.129238   0.058939
   21  C  4  S    0.006538   0.066689  -0.057500  -0.006628  -0.004981
   22  C  4  S   -0.006841  -0.058950   0.048476   0.003310   0.007560
   23  C  4  X    0.122607   0.000375   0.077201   0.085378  -0.109028
   24  C  4  Y   -0.037665  -0.079521   0.085979  -0.000334  -0.210901
   25  C  4  Z   -0.018374  -0.032402   0.037386   0.246534   0.036900
   26  C  4  S   -0.029505  -0.263531   0.245050   0.049705  -0.007336
   27  C  4  X    0.028130   0.008872   0.054786   0.019297  -0.028035
   28  C  4  Y   -0.021680  -0.044760   0.037296  -0.006002  -0.150364
   29  C  4  Z   -0.013479  -0.008730   0.013595   0.176016   0.028001
   30  C  5  S    0.081707  -0.079808   0.022379   0.041729  -0.041010
   31  C  5  S   -0.094464   0.096608  -0.021916  -0.048907   0.048231
   32  C  5  X    0.043076  -0.166405  -0.087171  -0.152017   0.212548
   33  C  5  Y   -0.071312   0.023159  -0.043514  -0.075321  -0.062837
   34  C  5  Z   -0.073110   0.072496  -0.047920   0.084876   0.036770
   35  C  5  S   -0.210542   0.213183  -0.079854  -0.145083   0.147646
   36  C  5  X   -0.002895  -0.035159  -0.078312  -0.107687   0.140997
   37  C  5  Y   -0.060938   0.022998  -0.034980  -0.090126  -0.009814
   38  C  5  Z   -0.052958   0.039741  -0.037960   0.030609   0.074292
   39  N  6  S   -0.034048   0.015931  -0.001399  -0.003227   0.004816
   40  N  6  S    0.030819  -0.014588   0.003368   0.005252  -0.005994
   41  N  6  X   -0.186436   0.198428  -0.162666   0.111125  -0.160066
   42  N  6  Y    0.032785  -0.153133  -0.220666  -0.007968  -0.070396
   43  N  6  Z    0.044870  -0.158121  -0.212832   0.050896   0.006195
   44  N  6  S    0.131584  -0.054726  -0.001080   0.007704  -0.021212
   45  N  6  X   -0.137031   0.152231  -0.140427   0.105483  -0.149626
   46  N  6  Y    0.030179  -0.129761  -0.179177  -0.002779  -0.069011
   47  N  6  Z    0.035805  -0.131825  -0.171512   0.052876   0.002837
   48  O  7  S   -0.028807   0.052070   0.013645  -0.042284   0.041342
   49  O  7  S    0.029883  -0.049261  -0.010006   0.038967  -0.038280
   50  O  7  X    0.015669  -0.047138  -0.058582  -0.076558   0.097436
   51  O  7  Y   -0.014909   0.016262   0.007633  -0.094527   0.021543
   52  O  7  Z   -0.013509   0.034723   0.008126  -0.007020   0.090131
   53  O  7  S    0.093915  -0.197835  -0.062843   0.165855  -0.160016
   54  O  7  X    0.017281  -0.041598  -0.048730  -0.061226   0.078266
   55  O  7  Y   -0.014403   0.009471   0.001383  -0.080576   0.017040
   56  O  7  Z   -0.015377   0.026469   0.001561  -0.004216   0.080072
   57  H  8  S    0.086525   0.074299  -0.043806  -0.094817  -0.058552
   58  H  8  S    0.027163   0.020511  -0.026670  -0.066468  -0.042014
   59  H  9  S    0.086379   0.080855  -0.047379   0.066525   0.074731
   60  H  9  S    0.026580   0.034406  -0.027900   0.050327   0.059800
   61  H 10  S   -0.019804  -0.068427   0.059884   0.152833   0.019205
   62  H 10  S   -0.009469  -0.040930   0.022699   0.126967   0.013553
   63  H 11  S   -0.017365  -0.076639   0.077956  -0.054780  -0.128439
   64  H 11  S   -0.008485  -0.038583   0.042537  -0.043051  -0.112941
   65  H 12  S    0.060912  -0.153621  -0.188143   0.023939  -0.036288
   66  H 12  S    0.035535  -0.106002  -0.129570   0.022890  -0.029862
   67  H 13  S    0.097579  -0.046664   0.188849  -0.071891   0.107315
   68  H 13  S    0.057400  -0.036111   0.123952  -0.050569   0.081272
   69  H 14  S   -0.082659  -0.023300  -0.017155  -0.041851   0.056025
   70  H 14  S   -0.028814  -0.010686  -0.010338  -0.027715   0.038285
   71  H 15  S   -0.084061  -0.044618   0.015202  -0.058678  -0.030776
   72  H 15  S   -0.029387  -0.024769   0.012675  -0.045721  -0.031905

                     16         17         18         19         20
                   -0.4152    -0.4073    -0.3794    -0.3574    -0.3472
                     A          A          A          A          A   
    1  C  1  S   -0.002204   0.000060   0.002966  -0.001996   0.024796
    2  C  1  S    0.002249   0.001160  -0.005285   0.002136  -0.022943
    3  C  1  X   -0.133524  -0.104127   0.048959  -0.052043   0.290127
    4  C  1  Y    0.229445  -0.046939   0.125366   0.136288   0.110839
    5  C  1  Z    0.021631   0.226296   0.133177  -0.150766   0.044271
    6  C  1  S    0.014048  -0.006879   0.001315   0.004398  -0.105487
    7  C  1  X   -0.095114  -0.070456   0.029521  -0.037403   0.228349
    8  C  1  Y    0.171676  -0.034377   0.089878   0.110096   0.087720
    9  C  1  Z    0.014801   0.174738   0.101654  -0.120978   0.034171
   10  H  2  S    0.032383   0.147748   0.100836  -0.098121   0.019810
   11  H  2  S    0.024993   0.129030   0.096985  -0.096138   0.036147
   12  C  3  S   -0.008656  -0.010861   0.002568  -0.004344   0.006689
   13  C  3  S    0.009180   0.010244  -0.003551   0.003773  -0.007795
   14  C  3  X   -0.129364  -0.016561  -0.134013   0.028410  -0.268870
   15  C  3  Y    0.160759  -0.001979  -0.061284  -0.047857  -0.138023
   16  C  3  Z    0.012942   0.146608  -0.039039   0.058584  -0.067302
   17  C  3  S    0.021542   0.040763   0.003345   0.021495  -0.015769
   18  C  3  X   -0.090239  -0.008076  -0.116206   0.019507  -0.163173
   19  C  3  Y    0.114248  -0.006782  -0.031723  -0.032107  -0.104989
   20  C  3  Z   -0.000838   0.120874  -0.018863   0.053149  -0.052361
   21  C  4  S    0.011720   0.013495  -0.005230   0.008099  -0.018591
   22  C  4  S   -0.004223  -0.008925   0.005041  -0.006262   0.010478
   23  C  4  X    0.133245   0.048839  -0.014334  -0.061425   0.171058
   24  C  4  Y   -0.147432   0.031179  -0.075002  -0.105303   0.012271
   25  C  4  Z   -0.041092  -0.126252  -0.087600   0.157925   0.022453
   26  C  4  S   -0.091809  -0.081579   0.036648  -0.044967   0.112903
   27  C  4  X    0.125603   0.056656  -0.063358  -0.045845   0.126504
   28  C  4  Y   -0.102353   0.027987  -0.045938  -0.095765  -0.018585
   29  C  4  Z   -0.026795  -0.096564  -0.051789   0.146831   0.004231
   30  C  5  S   -0.023901  -0.023076   0.042805  -0.007385   0.019403
   31  C  5  S    0.033079   0.029934  -0.064968   0.006366  -0.011052
   32  C  5  X    0.009600  -0.015698   0.000354   0.014401  -0.150236
   33  C  5  Y   -0.124594   0.087273   0.196314   0.161844  -0.076793
   34  C  5  Z    0.025650  -0.174725   0.170349  -0.123675  -0.121129
   35  C  5  S    0.076868   0.074507  -0.099674   0.032276  -0.122230
   36  C  5  X    0.029610  -0.002095   0.009435   0.010621  -0.142645
   37  C  5  Y   -0.055326   0.128019   0.006789   0.159793  -0.029792
   38  C  5  Z    0.072981  -0.104979  -0.026711  -0.129166  -0.073302
   39  N  6  S   -0.007809   0.003111  -0.012958   0.010687  -0.003233
   40  N  6  S    0.006609  -0.003501   0.009724  -0.010727   0.004818
   41  N  6  X    0.042150   0.008321   0.040729  -0.037357   0.056682
   42  N  6  Y   -0.017999   0.112133  -0.039195   0.117873   0.060714
   43  N  6  Z    0.074009  -0.062903  -0.070050  -0.133483  -0.006566
   44  N  6  S    0.032520  -0.012999   0.085600  -0.042725   0.003741
   45  N  6  X    0.027372  -0.004997   0.072142  -0.031054   0.045832
   46  N  6  Y   -0.029222   0.101713  -0.013501   0.123256   0.056492
   47  N  6  Z    0.062382  -0.072113  -0.049344  -0.137102  -0.014280
   48  O  7  S    0.034303   0.030893  -0.084155  -0.002308   0.026482
   49  O  7  S   -0.030356  -0.026995   0.073766   0.001410  -0.021324
   50  O  7  X    0.019247  -0.012745   0.036623  -0.003969  -0.107405
   51  O  7  Y    0.015327   0.167978  -0.221332   0.143923   0.101153
   52  O  7  Z    0.124662  -0.022435  -0.265547  -0.148347   0.061490
   53  O  7  S   -0.135907  -0.123671   0.326487   0.011683  -0.112785
   54  O  7  X    0.016170  -0.013452   0.036593  -0.007309  -0.092324
   55  O  7  Y    0.015220   0.155798  -0.217560   0.141123   0.099051
   56  O  7  Z    0.115619  -0.019661  -0.259977  -0.144076   0.059254
   57  H  8  S   -0.016848  -0.084451   0.027853  -0.031898   0.047815
   58  H  8  S   -0.031649  -0.074615   0.055880  -0.018117   0.031675
   59  H  9  S   -0.082372   0.048523   0.027011   0.051787   0.070187
   60  H  9  S   -0.072723   0.026982   0.033517   0.038422   0.068151
   61  H 10  S   -0.051303  -0.095543  -0.067015   0.106174   0.029231
   62  H 10  S   -0.037770  -0.080991  -0.070721   0.096661   0.033929
   63  H 11  S   -0.085838   0.043312  -0.021725  -0.127574   0.024241
   64  H 11  S   -0.071228   0.043501  -0.020843  -0.110401   0.035779
   65  H 12  S    0.031889   0.028123  -0.064129  -0.010648   0.044941
   66  H 12  S    0.021970   0.020054  -0.073327  -0.007988   0.050169
   67  H 13  S   -0.039465  -0.025376   0.025117   0.022680  -0.059381
   68  H 13  S   -0.042135  -0.029461   0.041152   0.025701  -0.068626
   69  H 14  S   -0.151832  -0.081655  -0.045251  -0.053161   0.110335
   70  H 14  S   -0.137893  -0.075943  -0.039882  -0.055438   0.125772
   71  H 15  S    0.129810  -0.094258   0.040092   0.138647   0.050816
   72  H 15  S    0.109815  -0.084748   0.041715   0.133584   0.067762

                     21         22         23         24         25
                   -0.3327    -0.3202    -0.2468    -0.2293     0.0499
                     A          A          A          A          A   
    1  C  1  S   -0.008586  -0.000895   0.001900   0.005185   0.000483
    2  C  1  S    0.009629   0.000370  -0.000368  -0.008640  -0.000631
    3  C  1  X    0.074091   0.001018   0.006669   0.024341  -0.011720
    4  C  1  Y   -0.175367   0.076654   0.007807  -0.004933  -0.021233
    5  C  1  Z   -0.109593  -0.151347  -0.004934  -0.010040   0.011097
    6  C  1  S    0.035368   0.007485  -0.021351   0.021652  -0.012069
    7  C  1  X    0.073553  -0.001416   0.011414  -0.001517  -0.042715
    8  C  1  Y   -0.139335   0.057672   0.009613  -0.027655  -0.059605
    9  C  1  Z   -0.086108  -0.117673   0.006157  -0.018261   0.035719
   10  H  2  S   -0.096695  -0.122949  -0.005310  -0.015435   0.009629
   11  H  2  S   -0.117197  -0.151407  -0.011840  -0.011664  -0.007902
   12  C  3  S   -0.007141   0.001458   0.000633   0.007620   0.018039
   13  C  3  S    0.011477  -0.001233   0.003236  -0.010560  -0.006155
   14  C  3  X   -0.121877  -0.003608  -0.004849  -0.010986   0.028854
   15  C  3  Y    0.221728  -0.129018  -0.019219   0.004761  -0.008894
   16  C  3  Z    0.130103   0.247875   0.018289   0.027159  -0.014895
   17  C  3  S   -0.004080  -0.008843  -0.024204  -0.044216  -0.202933
   18  C  3  X   -0.076025  -0.010089   0.027072  -0.107831   0.059439
   19  C  3  Y    0.172535  -0.109013  -0.008126  -0.025254   0.028327
   20  C  3  Z    0.104824   0.206180   0.022606   0.016186  -0.110732
   21  C  4  S   -0.030953  -0.000755   0.001940   0.033807   0.002415
   22  C  4  S    0.028783   0.001168  -0.003372  -0.014907  -0.004794
   23  C  4  X    0.175996   0.004344   0.008904   0.136397   0.005998
   24  C  4  Y   -0.179885   0.080473   0.013772   0.103402  -0.016179
   25  C  4  Z   -0.072785  -0.150408  -0.006821   0.076263   0.022784
   26  C  4  S    0.148739   0.005432  -0.007628  -0.331169  -0.016917
   27  C  4  X    0.130968  -0.000412   0.025863   0.188096   0.064044
   28  C  4  Y   -0.158169   0.068184  -0.016785   0.176486  -0.191792
   29  C  4  Z   -0.058268  -0.118758  -0.031950   0.112558   0.217165
   30  C  5  S    0.006951   0.000983   0.003258   0.012514  -0.002686
   31  C  5  S   -0.008614  -0.003881  -0.004430  -0.016173   0.000935
   32  C  5  X   -0.014088   0.011591  -0.003173  -0.065363   0.041440
   33  C  5  Y    0.066154  -0.019795   0.029109  -0.032981  -0.325689
   34  C  5  Z    0.016148   0.046392  -0.038669  -0.027131   0.315744
   35  C  5  S   -0.026072   0.012566  -0.009521  -0.043395   0.027174
   36  C  5  X   -0.023105   0.000481  -0.006606   0.247298   0.074786
   37  C  5  Y    0.027134  -0.041945   0.052823   0.010492  -0.392627
   38  C  5  Z   -0.035506   0.046375  -0.051603  -0.024774   0.375419
   39  N  6  S   -0.010045  -0.003040  -0.015104  -0.045869   0.009204
   40  N  6  S    0.008557   0.003915   0.014151   0.023565  -0.006042
   41  N  6  X    0.041354   0.007132   0.029096   0.104609  -0.005121
   42  N  6  Y    0.029343  -0.028055  -0.287456  -0.028418   0.146950
   43  N  6  Z   -0.032874   0.035048   0.282881  -0.085234  -0.141995
   44  N  6  S    0.053200   0.007862   0.067223   0.366467  -0.063248
   45  N  6  X    0.043635  -0.001020   0.037755   0.165755  -0.001183
   46  N  6  Y    0.035386  -0.023883  -0.363544  -0.047974   0.234372
   47  N  6  Z   -0.029457   0.036654   0.365666  -0.131114  -0.229027
   48  O  7  S   -0.016899  -0.006353   0.000134  -0.001573   0.000853
   49  O  7  S    0.015427   0.006086  -0.000174   0.001669  -0.000391
   50  O  7  X   -0.011738  -0.001624  -0.002969   0.478709  -0.027805
   51  O  7  Y   -0.021252  -0.084330   0.240187   0.044267   0.229843
   52  O  7  Z   -0.100916   0.040485  -0.224661   0.005565  -0.221486
   53  O  7  S    0.063375   0.023061   0.000510   0.010859  -0.008464
   54  O  7  X   -0.011066  -0.001619  -0.003552   0.502805  -0.043091
   55  O  7  Y   -0.021074  -0.088917   0.268810   0.047617   0.320074
   56  O  7  Z   -0.102245   0.042668  -0.251590   0.010014  -0.312451
   57  H  8  S   -0.115725  -0.185523  -0.010631  -0.018467   0.000567
   58  H  8  S   -0.116127  -0.198506   0.012010   0.049479   0.005257
   59  H  9  S   -0.107967   0.177131   0.021614   0.002535  -0.001468
   60  H  9  S   -0.123073   0.198965   0.009653   0.022034   0.085160
   61  H 10  S   -0.059347  -0.126919  -0.002327   0.040561  -0.074572
   62  H 10  S   -0.091172  -0.161248   0.047397   0.069869  -0.314655
   63  H 11  S   -0.084050   0.121122   0.009080   0.032101   0.102957
   64  H 11  S   -0.112541   0.150428  -0.003378   0.050775   0.460806
   65  H 12  S   -0.000829   0.001751  -0.010902  -0.044051   0.015685
   66  H 12  S   -0.016425  -0.004753  -0.015085  -0.056618   0.026993
   67  H 13  S   -0.018069  -0.004234  -0.008789  -0.017502   0.011711
   68  H 13  S   -0.017315  -0.004756  -0.009145  -0.076302   0.047763
   69  H 14  S    0.152953   0.002013   0.001325   0.020317  -0.002951
   70  H 14  S    0.156009   0.002087   0.002347   0.031532   0.003827
   71  H 15  S   -0.083619   0.116595   0.008014  -0.003832  -0.008630
   72  H 15  S   -0.103667   0.143385   0.015275   0.008068   0.067726

                     26         27         28         29         30
                    0.1048     0.1269     0.1501     0.1645     0.1832
                     A          A          A          A          A   
    1  C  1  S   -0.010945  -0.096694   0.072060  -0.000058  -0.004467
    2  C  1  S    0.003825   0.044300  -0.037744   0.002121  -0.004555
    3  C  1  X    0.017106   0.079611  -0.036677   0.004548  -0.132852
    4  C  1  Y    0.019485   0.072881   0.061548  -0.119936   0.139147
    5  C  1  Z    0.014788   0.051469   0.044960   0.155298   0.126552
    6  C  1  S    0.164147   1.287654  -0.864640  -0.013908   0.084841
    7  C  1  X    0.054567   0.341060  -0.175445   0.026097  -0.487795
    8  C  1  Y    0.078266   0.285661   0.208574  -0.349546   0.448384
    9  C  1  Z    0.046884   0.197763   0.144242   0.454798   0.400761
   10  H  2  S    0.005875  -0.010607  -0.013387  -0.042314  -0.043522
   11  H  2  S   -0.098691  -0.723104   0.102327  -0.615792  -0.656434
   12  C  3  S    0.001192  -0.079082   0.006092  -0.020097   0.058398
   13  C  3  S    0.004096   0.030400  -0.000689   0.005876  -0.019273
   14  C  3  X    0.053733  -0.030786   0.002602  -0.025320  -0.012316
   15  C  3  Y   -0.044867  -0.057687   0.069371  -0.111301   0.078732
   16  C  3  Z   -0.019044  -0.017632   0.051783   0.157662   0.080408
   17  C  3  S   -0.023857   1.102769  -0.142420   0.265016  -0.796627
   18  C  3  X    0.180291  -0.206503   0.150705  -0.088862   0.030014
   19  C  3  Y   -0.194949  -0.255373   0.156458  -0.282129   0.111572
   20  C  3  Z   -0.087070  -0.122557   0.111676   0.448065   0.176679
   21  C  4  S   -0.071253  -0.055879  -0.008009   0.023708  -0.038107
   22  C  4  S    0.031825   0.029233  -0.007947  -0.006847   0.006976
   23  C  4  X   -0.022739  -0.034322   0.061139  -0.019151  -0.050621
   24  C  4  Y    0.054037   0.112461   0.112404  -0.150730   0.067660
   25  C  4  Z    0.075169   0.063242   0.110910   0.173458   0.055049
   26  C  4  S    0.857701   0.703905   0.255377  -0.333762   0.629310
   27  C  4  X    0.137059  -0.348242   0.263923  -0.112463   0.011623
   28  C  4  Y    0.136038   0.497198   0.352151  -0.438334   0.239262
   29  C  4  Z    0.203157   0.289076   0.373110   0.496980   0.170611
   30  C  5  S    0.018709   0.020585  -0.036444   0.000403  -0.023353
   31  C  5  S   -0.008942   0.008537   0.028072  -0.005661   0.018637
   32  C  5  X    0.065522  -0.065634   0.042514  -0.026152  -0.020771
   33  C  5  Y   -0.015087  -0.029389   0.088989   0.045105   0.002779
   34  C  5  Z   -0.016570   0.029255   0.059388  -0.047430   0.008887
   35  C  5  S   -0.052373  -0.342215   0.370166   0.014372   0.255476
   36  C  5  X   -0.016485   0.004869   0.169271  -0.066859  -0.023816
   37  C  5  Y    0.067497  -0.093723   0.228034   0.142330  -0.056777
   38  C  5  Z    0.087096  -0.009237   0.168766  -0.152421  -0.031640
   39  N  6  S   -0.126581   0.041147   0.047737   0.003730   0.010918
   40  N  6  S    0.073273  -0.027114  -0.027246  -0.002458  -0.006395
   41  N  6  X   -0.098996   0.061483   0.124451  -0.007130  -0.124636
   42  N  6  Y    0.103817  -0.018846   0.126915  -0.031232  -0.119136
   43  N  6  Z    0.075497  -0.015188   0.150130   0.041939  -0.101457
   44  N  6  S    1.159351  -0.342653  -0.457108  -0.039053  -0.083457
   45  N  6  X   -0.308504   0.205759   0.311375  -0.019549  -0.332055
   46  N  6  Y    0.257228  -0.048931   0.338980  -0.045302  -0.312252
   47  N  6  Z    0.198171  -0.062758   0.369054   0.072965  -0.280260
   48  O  7  S   -0.017470  -0.011348  -0.009174   0.001854   0.013819
   49  O  7  S    0.014864   0.008356  -0.000379  -0.001070  -0.009441
   50  O  7  X   -0.056975   0.060227   0.003427   0.005495  -0.006060
   51  O  7  Y    0.026568   0.052657   0.022868  -0.038332  -0.023008
   52  O  7  Z    0.025497   0.008860   0.042654   0.045767  -0.030652
   53  O  7  S    0.137540   0.085862   0.114384  -0.016375  -0.129765
   54  O  7  X   -0.056839   0.064422  -0.018450   0.018000   0.004700
   55  O  7  Y    0.055045   0.088934   0.039264  -0.066358  -0.052864
   56  O  7  Z    0.053083   0.030681   0.072197   0.064510  -0.065456
   57  H  8  S    0.013898  -0.004755   0.036376   0.076831   0.050443
   58  H  8  S   -0.066088  -0.487711   0.313571   0.613812   0.672895
   59  H  9  S   -0.000485  -0.003530   0.019157  -0.093669   0.018056
   60  H  9  S   -0.134439  -0.560571   0.218417  -0.903411   0.411860
   61  H 10  S    0.006009  -0.026102  -0.054378  -0.026798  -0.037301
   62  H 10  S   -0.561399  -0.674037  -0.596943  -0.527795  -0.522973
   63  H 11  S    0.013259  -0.003062  -0.035410   0.040246  -0.037902
   64  H 11  S   -0.365230  -0.594813  -0.342646   0.950325  -0.430110
   65  H 12  S   -0.087122   0.029347  -0.036131  -0.003803   0.063064
   66  H 12  S   -1.067341   0.287055  -0.520421   0.005990   0.666155
   67  H 13  S   -0.074694   0.042444   0.097093  -0.004458  -0.055153
   68  H 13  S   -0.670417   0.364477   1.064653   0.000974  -0.693665
   69  H 14  S   -0.015513  -0.019305   0.041525  -0.001601   0.057798
   70  H 14  S   -0.095453  -0.568644   0.726604  -0.093846   0.938473
   71  H 15  S    0.003972  -0.008249  -0.011979   0.047036  -0.018393
   72  H 15  S   -0.092078  -0.669242   0.164226   0.743117  -0.325522

                     31         32         33         34         35
                    0.1897     0.2059     0.2118     0.2334     0.2542
                     A          A          A          A          A   
    1  C  1  S   -0.123862   0.044001  -0.011130   0.016367  -0.036879
    2  C  1  S    0.049473  -0.018337   0.004591  -0.004385  -0.002101
    3  C  1  X   -0.012393  -0.131074   0.080568   0.013941   0.031955
    4  C  1  Y    0.101778   0.170476   0.061445  -0.065172  -0.004710
    5  C  1  Z    0.038352  -0.060847  -0.238984   0.091184   0.013993
    6  C  1  S    1.646834  -0.553438   0.141118  -0.224254   0.625463
    7  C  1  X   -0.183424  -0.507488   0.340649   0.149638  -0.325668
    8  C  1  Y    0.291169   0.779223   0.195994  -0.376869   0.101164
    9  C  1  Z    0.100583  -0.170701  -1.004877   0.511709   0.156680
   10  H  2  S   -0.038422   0.015653   0.089304   0.014121   0.003291
   11  H  2  S   -0.833561   0.372971   1.134514  -0.335370  -0.300453
   12  C  3  S    0.057562  -0.104528   0.037110  -0.028859   0.074115
   13  C  3  S   -0.021629   0.044007  -0.017868   0.006833  -0.007959
   14  C  3  X   -0.092063  -0.036899  -0.001147  -0.028598   0.158385
   15  C  3  Y    0.060814  -0.086653   0.039989   0.208959  -0.158951
   16  C  3  Z   -0.000289  -0.049608   0.084810  -0.233197  -0.164217
   17  C  3  S   -0.773057   1.390720  -0.507203   0.386833  -1.078082
   18  C  3  X   -0.432169  -0.112540  -0.029470  -0.144346   0.745055
   19  C  3  Y    0.236928  -0.466909   0.186675   0.916395  -0.881758
   20  C  3  Z    0.000492  -0.221251   0.398303  -0.988773  -0.803060
   21  C  4  S    0.088449   0.070242  -0.028630   0.011804  -0.035671
   22  C  4  S   -0.048480  -0.030021   0.017403   0.003627   0.005139
   23  C  4  X    0.000558  -0.069153   0.006861  -0.062119   0.280208
   24  C  4  Y   -0.061435  -0.074164  -0.069139  -0.081913  -0.084747
   25  C  4  Z   -0.001612   0.047566   0.189935   0.198791   0.061274
   26  C  4  S   -1.121666  -0.865529   0.328464  -0.226364   0.665030
   27  C  4  X   -0.069585  -0.064006  -0.102933  -0.363616   1.503302
   28  C  4  Y   -0.302656  -0.106688  -0.296006  -0.331099  -0.327789
   29  C  4  Z   -0.026412   0.279301   0.606750   0.800237   0.249273
   30  C  5  S   -0.004963  -0.010426  -0.006391   0.006148  -0.089560
   31  C  5  S   -0.030253   0.001376  -0.000353  -0.008429   0.036961
   32  C  5  X    0.028531   0.032715  -0.064468  -0.053521   0.056518
   33  C  5  Y    0.025076   0.024424   0.048852   0.090198   0.082888
   34  C  5  Z   -0.021064   0.006478  -0.045211  -0.069083  -0.034198
   35  C  5  S    0.176152   0.184421   0.069931  -0.076940   1.281073
   36  C  5  X    0.017711   0.092364  -0.132972  -0.090194   0.217572
   37  C  5  Y    0.038177   0.190294   0.081834   0.189816   0.176685
   38  C  5  Z   -0.043522   0.091029  -0.167814  -0.090751  -0.091883
   39  N  6  S   -0.016101  -0.007638   0.018628   0.005290   0.030878
   40  N  6  S    0.008389   0.002833  -0.009420  -0.004858  -0.009344
   41  N  6  X    0.027190  -0.048808  -0.020867  -0.043894   0.020908
   42  N  6  Y    0.085842  -0.017649  -0.056972  -0.056976  -0.008483
   43  N  6  Z    0.089230   0.006394   0.020120   0.023347   0.030139
   44  N  6  S    0.153241   0.072112  -0.181168  -0.040855  -0.370740
   45  N  6  X    0.082661  -0.126089  -0.082311  -0.103735  -0.102679
   46  N  6  Y    0.245096  -0.041471  -0.098801  -0.092983  -0.038144
   47  N  6  Z    0.250061  -0.008291   0.017030   0.022510   0.063874
   48  O  7  S    0.009534  -0.010587   0.005489  -0.013724   0.039129
   49  O  7  S   -0.008617   0.007714  -0.001771   0.012671  -0.023737
   50  O  7  X   -0.056356   0.005763   0.028432   0.046340  -0.005889
   51  O  7  Y   -0.010147  -0.002620  -0.025815  -0.001207  -0.114516
   52  O  7  Z    0.014610   0.001340   0.025072   0.033545  -0.071447
   53  O  7  S   -0.077183   0.102198  -0.065037   0.105201  -0.380754
   54  O  7  X   -0.052119  -0.013556   0.053980   0.061283  -0.034488
   55  O  7  Y   -0.037968   0.005306  -0.064527  -0.007247  -0.241231
   56  O  7  Z   -0.000509   0.030378   0.029631   0.086647  -0.159206
   57  H  8  S    0.026658  -0.031218   0.016535  -0.035780  -0.034301
   58  H  8  S    0.362165  -0.830736   0.637360  -1.073233  -0.598710
   59  H  9  S    0.028923  -0.015142   0.008498   0.046710  -0.025562
   60  H  9  S    0.554737  -0.840732   0.202950   1.203038  -0.096553
   61  H 10  S    0.032313  -0.027794  -0.070531  -0.000140   0.027379
   62  H 10  S    0.532460   0.036654  -0.947097  -0.766693  -0.254624
   63  H 11  S    0.035829   0.028821   0.047946  -0.024199   0.004636
   64  H 11  S    0.741575   0.661409   0.513555   0.659875   0.229938
   65  H 12  S   -0.061331  -0.030068   0.029546  -0.012504   0.060598
   66  H 12  S   -0.575462  -0.031745   0.208364   0.087204   0.212909
   67  H 13  S    0.021027   0.001441  -0.015430   0.002809  -0.048342
   68  H 13  S    0.292239  -0.172543  -0.074404  -0.141758   0.105010
   69  H 14  S    0.045196   0.080559  -0.037963  -0.002469  -0.006753
   70  H 14  S   -0.156942   1.159559  -0.573977  -0.066616  -0.056433
   71  H 15  S   -0.055791  -0.069248  -0.062592  -0.011093  -0.008973
   72  H 15  S   -0.975330  -0.705953  -0.839097   0.562920  -0.189834

                     36         37         38         39         40
                    0.2592     0.3052     0.3986     0.4444     0.6798
                     A          A          A          A          A   
    1  C  1  S    0.056821  -0.030481  -0.011719  -0.030113   0.010176
    2  C  1  S   -0.018431  -0.010854  -0.010153   0.014299  -0.071714
    3  C  1  X    0.264283   0.028767   0.091961   0.030771   0.417084
    4  C  1  Y    0.107828  -0.168965  -0.036202   0.012634  -0.191598
    5  C  1  Z    0.075888  -0.086347  -0.020642   0.020552  -0.182196
    6  C  1  S   -0.716965   0.648797   0.281156   0.385979   0.256405
    7  C  1  X    1.211478  -0.332130  -0.076895  -0.403838  -0.571953
    8  C  1  Y    0.597270  -0.707563  -0.083933  -0.104715   0.350479
    9  C  1  Z    0.379033  -0.392724  -0.058165  -0.094734   0.311154
   10  H  2  S   -0.056942  -0.011870  -0.019158   0.029857  -0.280513
   11  H  2  S   -0.245293   0.297673   0.001335  -0.075559   0.016487
   12  C  3  S   -0.095390  -0.018532   0.024539   0.049823  -0.003498
   13  C  3  S    0.036243   0.015316  -0.016728   0.008782   0.031046
   14  C  3  X    0.187130  -0.252609  -0.032560  -0.166301   0.199742
   15  C  3  Y    0.142479  -0.020332  -0.017813  -0.095061   0.089066
   16  C  3  Z    0.103258  -0.014903  -0.001166  -0.052681  -0.044777
   17  C  3  S    1.233618   0.196441  -0.312296  -1.133912  -0.371959
   18  C  3  X    0.854126  -1.342235  -0.071589   0.339005  -0.099552
   19  C  3  Y    0.647644  -0.177904  -0.150690  -0.514937  -0.423614
   20  C  3  Z    0.504546  -0.075223  -0.119843  -0.164107  -0.107555
   21  C  4  S    0.079068   0.105347   0.037212  -0.033147  -0.024875
   22  C  4  S   -0.029551  -0.037759   0.000103   0.038312   0.040248
   23  C  4  X    0.101032   0.038536   0.103163   0.073062  -0.659600
   24  C  4  Y    0.069011   0.243211  -0.041458  -0.078318  -0.191961
   25  C  4  Z    0.005919   0.092396   0.015959  -0.129336  -0.214962
   26  C  4  S   -1.035001  -1.431233  -0.833592   0.261198   0.041942
   27  C  4  X    0.326970   0.240415   0.762839   0.823787   0.891892
   28  C  4  Y    0.019608   1.148974   0.418909  -0.532268   0.307777
   29  C  4  Z   -0.130591   0.539400   0.431261  -0.555543   0.312349
   30  C  5  S   -0.090873  -0.127463   0.056699  -0.010270   0.023469
   31  C  5  S    0.061762   0.049906   0.016317   0.057807  -0.032263
   32  C  5  X    0.093325   0.036732   0.423858  -0.377111  -0.227548
   33  C  5  Y    0.047465   0.097571   0.137626   0.157526   0.082487
   34  C  5  Z    0.104094   0.118563   0.048186   0.189428  -0.115879
   35  C  5  S    0.996453   1.817312  -0.773472   0.138324   0.425458
   36  C  5  X    0.089677   0.383098   1.499352  -1.012512   0.319069
   37  C  5  Y    0.293513   0.221951   0.782477   1.265254   0.031871
   38  C  5  Z    0.366621   0.310061   0.551625   1.465115   0.183559
   39  N  6  S    0.022919   0.037974  -0.064693   0.074837   0.001371
   40  N  6  S   -0.012216  -0.031217   0.040438  -0.021791   0.017310
   41  N  6  X   -0.130897  -0.181877   0.154049  -0.160642   0.077877
   42  N  6  Y    0.008874   0.018487  -0.148221   0.026540   0.020736
   43  N  6  Z   -0.006328   0.040811  -0.150173   0.029622   0.002427
   44  N  6  S   -0.256274  -0.299813   0.674430  -1.129613  -0.023610
   45  N  6  X   -0.411021  -0.517751   0.496111  -0.875830  -0.088544
   46  N  6  Y    0.007060   0.055226  -0.517262   0.105628  -0.049206
   47  N  6  Z    0.020897   0.084701  -0.576597   0.230489  -0.064243
   48  O  7  S    0.000078   0.029102  -0.079485  -0.097654  -0.003381
   49  O  7  S   -0.001657  -0.025611   0.040808   0.039589   0.011330
   50  O  7  X    0.010451  -0.058276  -0.181075   0.104185   0.044719
   51  O  7  Y   -0.033954  -0.038048   0.077711   0.093807   0.026366
   52  O  7  Z   -0.040110  -0.073426   0.113177   0.092128   0.004395
   53  O  7  S    0.031118  -0.262102   0.927415   1.299748   0.003253
   54  O  7  X   -0.009672  -0.087603  -0.397946   0.219922  -0.029160
   55  O  7  Y   -0.038244  -0.114669   0.278539   0.394417   0.002852
   56  O  7  Z   -0.060009  -0.160382   0.363923   0.386387  -0.016340
   57  H  8  S    0.046038   0.029470   0.030078   0.016271   0.152204
   58  H  8  S    0.165523  -0.105582   0.030339   0.100030  -0.123205
   59  H  9  S    0.036717   0.006884   0.024264   0.009101  -0.042849
   60  H  9  S    0.011917  -0.194838   0.037820  -0.053737  -0.079412
   61  H 10  S   -0.002421  -0.041441  -0.073572  -0.063285  -0.190068
   62  H 10  S    0.452444  -0.120744  -0.146243   0.417600  -0.052755
   63  H 11  S   -0.007684  -0.055337  -0.045576   0.033319  -0.034844
   64  H 11  S    0.203698  -0.396499   0.064342   0.026461  -0.103513
   65  H 12  S   -0.028938  -0.031329  -0.083124  -0.095424   0.134010
   66  H 12  S    0.039983  -0.025079   0.588604  -0.000838  -0.024249
   67  H 13  S    0.006761  -0.000542   0.127317   0.054100  -0.109409
   68  H 13  S   -0.289517  -0.281970  -0.068238  -0.261627   0.102052
   69  H 14  S   -0.024722   0.072067   0.038688   0.013698   0.343628
   70  H 14  S   -0.404484  -0.421809  -0.193288  -0.003489  -0.042852
   71  H 15  S   -0.047666   0.005554  -0.027543   0.034060  -0.125065
   72  H 15  S   -0.215829   0.355239  -0.018895  -0.069252  -0.004760

                     41         42         43         44         45
                    0.6873     0.7230     0.7357     0.7777     0.7985
                     A          A          A          A          A   
    1  C  1  S   -0.000595  -0.000853  -0.004316  -0.031703  -0.019760
    2  C  1  S    0.014320  -0.000742   0.008310   0.113646   0.030301
    3  C  1  X   -0.158338  -0.339577  -0.194595  -0.452968  -0.138748
    4  C  1  Y    0.189016  -0.357414   0.015758  -0.363263  -0.428750
    5  C  1  Z   -0.259517   0.077453  -0.434316  -0.184798  -0.134799
    6  C  1  S   -0.037088   0.233729   0.135234  -0.267696   0.126790
    7  C  1  X    0.242444   0.498323   0.273852   0.754738   0.071986
    8  C  1  Y   -0.298398   0.527438  -0.086002   0.570351   0.759984
    9  C  1  Z    0.375983  -0.166690   0.721361   0.279044   0.222304
   10  H  2  S   -0.263578   0.086521  -0.309867  -0.190800  -0.078726
   11  H  2  S    0.036260  -0.046811  -0.086799  -0.052958  -0.124969
   12  C  3  S   -0.002189   0.009485   0.014964   0.043221   0.034187
   13  C  3  S   -0.015392  -0.086160  -0.073935  -0.090549  -0.100687
   14  C  3  X    0.059259   0.416367   0.211572   0.023057  -0.182723
   15  C  3  Y    0.171333   0.049721   0.094332  -0.534226   0.203672
   16  C  3  Z   -0.271911   0.193190  -0.044092  -0.320957   0.061143
   17  C  3  S    0.236230   0.667566   0.431007  -0.049831   0.498234
   18  C  3  X   -0.109411  -0.555794  -0.293672   0.303740   0.237650
   19  C  3  Y   -0.118289  -0.040476  -0.040288   0.965660  -0.445071
   20  C  3  Z    0.428860  -0.176169  -0.047422   0.601204  -0.151067
   21  C  4  S    0.008534   0.000805  -0.007678  -0.011272  -0.029273
   22  C  4  S   -0.009280   0.038396   0.047547   0.064360   0.026768
   23  C  4  X    0.199943   0.186778   0.129090  -0.076588   0.295188
   24  C  4  Y    0.177871  -0.063021  -0.233813   0.307367  -0.372723
   25  C  4  Z   -0.131757  -0.107399   0.063698   0.158150  -0.308917
   26  C  4  S   -0.122881  -0.611727  -0.387218  -0.209387   0.476676
   27  C  4  X   -0.298003  -0.174070  -0.091710   0.123444  -0.321371
   28  C  4  Y   -0.189169   0.503146   0.528270  -0.831290   0.590597
   29  C  4  Z    0.242102   0.375364   0.157116  -0.473011   0.473382
   30  C  5  S   -0.004670  -0.003194  -0.000340  -0.002860  -0.006459
   31  C  5  S   -0.016926   0.015383   0.025345   0.039357  -0.112453
   32  C  5  X    0.016347  -0.491531  -0.335782   0.173804   0.255763
   33  C  5  Y    0.259548   0.447237  -0.325325  -0.051790  -0.423830
   34  C  5  Z   -0.301233  -0.127189   0.604060  -0.002137  -0.361543
   35  C  5  S   -0.055945   0.028906  -0.026162  -0.176442   0.456846
   36  C  5  X    0.040722   0.974330   0.754805  -0.515315  -0.416258
   37  C  5  Y   -0.279487  -0.392937   0.404187   0.320464   0.104532
   38  C  5  Z    0.160018   0.204319  -0.613208   0.225931   0.090049
   39  N  6  S   -0.001490   0.012296   0.006500   0.004460  -0.018075
   40  N  6  S   -0.005756  -0.032906  -0.021589   0.012304  -0.000515
   41  N  6  X   -0.012821  -0.064894  -0.047429   0.073773  -0.071948
   42  N  6  Y    0.009945   0.042481  -0.057588  -0.015202   0.019313
   43  N  6  Z   -0.029568  -0.000898   0.103085  -0.047787   0.059406
   44  N  6  S    0.043742   0.339631   0.337575  -0.289207  -0.167000
   45  N  6  X    0.041055   0.086641   0.104137  -0.172842  -0.002499
   46  N  6  Y    0.037667   0.008632  -0.082800  -0.041299   0.111909
   47  N  6  Z   -0.023690  -0.099998  -0.021439   0.032753   0.082836
   48  O  7  S    0.003730  -0.007158  -0.008503  -0.015089   0.029790
   49  O  7  S   -0.001232   0.003233   0.011088   0.018053  -0.026307
   50  O  7  X   -0.011864  -0.110568  -0.066968   0.060710   0.075481
   51  O  7  Y    0.009138   0.060729   0.014521  -0.037456  -0.059734
   52  O  7  Z   -0.022327   0.022352   0.063857   0.005046  -0.084375
   53  O  7  S   -0.046760  -0.006799  -0.018008   0.241325  -0.178219
   54  O  7  X   -0.008245  -0.136450  -0.106534   0.049976   0.080934
   55  O  7  Y    0.004647   0.092420  -0.022873   0.041670  -0.170723
   56  O  7  Z   -0.043739   0.014696   0.116088   0.054091  -0.177022
   57  H  8  S    0.331736  -0.192111   0.032237   0.260288   0.045463
   58  H  8  S   -0.064054   0.031702  -0.084930   0.237239  -0.050339
   59  H  9  S   -0.418056  -0.001693  -0.091187   0.256960   0.022089
   60  H  9  S    0.110629  -0.052802   0.086183   0.207307  -0.097784
   61  H 10  S   -0.264116  -0.004284   0.119044   0.081407  -0.266602
   62  H 10  S    0.061735  -0.122382  -0.168011   0.208084  -0.177969
   63  H 11  S    0.347282   0.053869  -0.170697   0.131146  -0.180801
   64  H 11  S   -0.039956  -0.116824  -0.054032   0.162861  -0.157810
   65  H 12  S   -0.034174  -0.036812  -0.027692   0.083234  -0.317370
   66  H 12  S    0.005995   0.048329   0.044197   0.007835   0.021824
   67  H 13  S    0.045321   0.150753   0.098177  -0.072484  -0.074668
   68  H 13  S   -0.028052  -0.029385  -0.008853  -0.011907   0.021782
   69  H 14  S   -0.112115  -0.072655  -0.028761   0.151569  -0.001404
   70  H 14  S    0.005648  -0.035231  -0.029270  -0.224843   0.106909
   71  H 15  S    0.342812  -0.277818   0.166952  -0.217695  -0.154769
   72  H 15  S   -0.046188  -0.062709   0.000292  -0.072440  -0.186525

                     46         47         48         49         50
                    0.8144     0.8352     0.8572     0.8855     0.9333
                     A          A          A          A          A   
    1  C  1  S   -0.028172  -0.010636  -0.005255  -0.008864  -0.045115
    2  C  1  S    0.029860   0.003780   0.018753   0.031177   0.009071
    3  C  1  X   -0.239255  -0.090421  -0.001593  -0.045910  -0.214614
    4  C  1  Y   -0.270848  -0.017857   0.287510   0.040691   0.312966
    5  C  1  Z   -0.225138   0.014205  -0.493516   0.165103   0.307195
    6  C  1  S    0.053340  -0.047303  -0.125226  -0.251186  -0.086037
    7  C  1  X    0.401403   0.291288   0.055886   0.246569   0.906400
    8  C  1  Y    0.621675   0.129538  -0.569517  -0.048558  -0.530705
    9  C  1  Z    0.483145   0.021889   1.024039  -0.326038  -0.574016
   10  H  2  S   -0.132015  -0.034611  -0.157047  -0.010100  -0.280218
   11  H  2  S   -0.221966  -0.031699  -0.293958   0.165118   0.398553
   12  C  3  S   -0.008151  -0.012269   0.008645   0.012553  -0.008973
   13  C  3  S    0.034099   0.027338  -0.028025  -0.053363  -0.093804
   14  C  3  X   -0.585064  -0.307432  -0.095967  -0.168102  -0.190684
   15  C  3  Y    0.371183   0.123650  -0.332814  -0.125346  -0.322481
   16  C  3  Z    0.211001   0.040523   0.323599  -0.216983  -0.338773
   17  C  3  S    0.052585  -0.212455   0.129506   0.438303   0.463061
   18  C  3  X    1.087524   0.638796   0.112346  -0.000425  -0.145073
   19  C  3  Y   -0.727979  -0.280095   0.649912   0.419645   0.608737
   20  C  3  Z   -0.410157  -0.083654  -0.573997   0.521217   0.683984
   21  C  4  S    0.038481   0.020340  -0.007364  -0.000879  -0.002032
   22  C  4  S   -0.109871  -0.001941   0.017036  -0.002273   0.065782
   23  C  4  X   -0.288673  -0.305580   0.049040   0.104363  -0.248305
   24  C  4  Y   -0.016288   0.229259  -0.309344  -0.394772  -0.338569
   25  C  4  Z    0.035998   0.134467   0.277273  -0.238597  -0.133230
[...]
   60  H  9  S    0.591687   0.881245   0.018781   1.222739
   61  H 10  S    0.029104   0.011554   0.067332   0.001144
   62  H 10  S    0.476558  -0.229885   0.874425  -0.877877
   63  H 11  S    0.026856  -0.018837  -0.057298  -0.018449
   64  H 11  S    0.579507  -0.577956  -0.668638   0.696094
   65  H 12  S   -0.048041   0.039006  -0.020384  -0.006299
   66  H 12  S   -0.437011   0.087645  -0.103577   0.029394
   67  H 13  S    0.011987  -0.006649   0.008870   0.008191
   68  H 13  S    0.182497   0.133303   0.031201  -0.052217
   69  H 14  S    0.053699  -0.087735   0.018736   0.001038
   70  H 14  S    0.021878  -1.256580   0.332989   0.032327
   71  H 15  S   -0.051088   0.054549   0.075432  -0.011897
   72  H 15  S   -0.941428   0.541289   1.043006   0.477896

     ---------------------------------------------------------------------
     PROPERTIES FOR THE B3LYP    DFT FUNCTIONAL (RHF  TYPE) DENSITY MATRIX
     ---------------------------------------------------------------------

          -----------------
          ENERGY COMPONENTS
          -----------------

         WAVEFUNCTION NORMALIZATION =       1.0000000000

                ONE ELECTRON ENERGY =    -857.9830386545
                TWO ELECTRON ENERGY =     334.4740019949
           NUCLEAR REPULSION ENERGY =     237.4204795589
                                      ------------------
                       TOTAL ENERGY =    -286.0885571007

 ELECTRON-ELECTRON POTENTIAL ENERGY =     334.4740019949
  NUCLEUS-ELECTRON POTENTIAL ENERGY =   -1141.8349419128
   NUCLEUS-NUCLEUS POTENTIAL ENERGY =     237.4204795589
                                      ------------------
             TOTAL POTENTIAL ENERGY =    -569.9404603590
               TOTAL KINETIC ENERGY =     283.8519032583
                 VIRIAL RATIO (V/T) =       2.0078796507

          ---------------------------------------
          MULLIKEN AND LOWDIN POPULATION ANALYSES
          ---------------------------------------

     ATOMIC MULLIKEN POPULATION IN EACH MOLECULAR ORBITAL

                      1          2          3          4          5

                  2.000000   2.000000   2.000000   2.000000   2.000000

    1            -0.000000  -0.000000  -0.000000   0.000138   0.014092
    2             0.000000  -0.000000   0.000000  -0.000001   0.000002
    3            -0.000009   0.000000   0.000080   0.007116   1.972437
    4             0.000075  -0.000078   0.006718   1.979470   0.006866
    5             0.008847   0.008175   1.994720   0.006779   0.000013
    6            -0.000028   1.989166   0.000811   0.000022   0.000002
    7             1.991110  -0.000008  -0.002487  -0.000011   0.000000
    8             0.000001  -0.000000   0.000001   0.000012   0.003272
    9             0.000000  -0.000000   0.000001   0.000017   0.003246
   10            -0.000001   0.000001   0.000047   0.003181   0.000034
   11            -0.000000  -0.000003   0.000067   0.003278   0.000036
   12            -0.000001   0.001410  -0.000034   0.000004   0.000000
   13             0.000006   0.001336   0.000076   0.000001   0.000000
   14             0.000000   0.000000  -0.000000  -0.000003  -0.000003
   15            -0.000000  -0.000000   0.000000  -0.000001   0.000001

                      6          7          8          9         10

                  2.000000   2.000000   2.000000   2.000000   2.000000

    1             1.976437   0.000250  -0.000438   0.328105   0.734333
    2             0.003217   0.000003   0.000002   0.015409   0.048818
    3             0.013570   0.000631   0.001853   0.724165   0.144094
    4             0.000308  -0.000301   0.037895   0.673046   0.522579
    5             0.000030   0.434908   0.144723   0.056652   0.206025
    6             0.000001   0.164058   1.369235   0.035856   0.096024
    7            -0.000000   1.390427   0.254325   0.021778   0.026133
    8             0.000069   0.000508   0.000064   0.023659   0.004956
    9             0.000078   0.000031  -0.000001   0.024678   0.005254
   10            -0.000010   0.000110   0.000152   0.030552   0.035057
   11            -0.000008  -0.000654   0.000674   0.029701   0.032773
   12             0.000000   0.006427   0.104432   0.001918   0.004238
   13             0.000000   0.003625   0.087073   0.008452   0.030088
   14             0.003078  -0.000025   0.000008   0.010377   0.061112
   15             0.003230   0.000001   0.000004   0.015652   0.048516

                     11         12         13         14         15

                  2.000000   2.000000   2.000000   2.000000   2.000000

    1             0.410248   0.091739   0.018851   0.143706   0.142205
    2             0.060081   0.020394   0.002360   0.033703   0.022744
    3             0.437216   0.269267   0.087926   0.350982   0.162285
    4             0.100748   0.207492   0.200261   0.544691   0.430182
    5             0.241649   0.246401   0.097119   0.219972   0.431337
    6             0.354086   0.617648   0.897520   0.070846   0.235973
    7             0.032414   0.096455   0.031983   0.097643   0.248799
    8             0.061623   0.049201   0.020178   0.096350   0.009526
    9             0.061450   0.058147   0.020499   0.074520   0.027501
   10             0.002354   0.053114   0.031684   0.230425   0.002075
   11             0.002384   0.055227   0.046285   0.067880   0.141022
   12             0.035233   0.192953   0.264235   0.001591   0.009187
   13             0.082697   0.014850   0.275782   0.016381   0.096974
   14             0.057944   0.005713   0.002668   0.005788   0.037730
   15             0.059874   0.021402   0.002650   0.045523   0.002461

                     16         17         18         19         20

                  2.000000   2.000000   2.000000   2.000000   2.000000

    1             0.589552   0.504366   0.225391   0.250488   0.641297
    2             0.035267   0.196021   0.067552   0.083028   0.012846
    3             0.292524   0.171625   0.152508   0.046334   0.539059
    4             0.291764   0.143705   0.078840   0.236497   0.189259
    5             0.053129   0.316629   0.222594   0.350806   0.197700
    6             0.029959   0.153385   0.044708   0.324025   0.028679
    7             0.163955   0.165793   1.066073   0.341984   0.149862
    8             0.018786   0.056025   0.013512   0.008695   0.020156
    9             0.042388   0.033449   0.007437   0.021375   0.030176
   10             0.031052   0.067287   0.023182   0.093767   0.003201
   11             0.051134   0.035739   0.011331   0.100887   0.010819
   12             0.007370   0.001002   0.033860   0.000028   0.011147
   13             0.014992   0.000914   0.006072   0.000354   0.027061
   14             0.279058   0.012492   0.019028   0.005249   0.121951
   15             0.099069   0.141567   0.027913   0.136483   0.016787

                     21         22         23         24

                  2.000000   2.000000   2.000000   2.000000

    1             0.306706   0.176798   0.000466   0.002540
    2             0.079922   0.135940   0.000446   0.001063
    3             0.483376   0.488172   0.005010   0.012556
    4             0.421629   0.160690   0.001784   0.236511
    5             0.014921   0.019690   0.013850   0.059236
    6             0.016650   0.012975   1.196696   0.118933
    7             0.075669   0.068464   0.777285   1.506660
    8             0.109597   0.288287   0.000756   0.003265
    9             0.118603   0.267075   0.001928   0.001137
   10             0.040680   0.140553   0.000680   0.012870
   11             0.070506   0.118955   0.000310   0.011193
   12             0.001297   0.000088   0.000002   0.014531
   13             0.002835   0.000001   0.000001   0.015577
   14             0.184020   0.000113   0.000000   0.003754
   15             0.073587   0.122200   0.000786   0.000173

               ----- POPULATIONS IN EACH AO -----
                             MULLIKEN      LOWDIN
              1  C  1  S      1.98642     1.97430
              2  C  1  S      0.36785     0.42170
              3  C  1  X      0.55610     0.52597
              4  C  1  Y      0.55964     0.52182
              5  C  1  Z      0.56199     0.52210
              6  C  1  S      1.10278     0.58035
              7  C  1  X      0.43184     0.55233
              8  C  1  Y      0.48668     0.57849
              9  C  1  Z      0.50396     0.58456
             10  H  2  S      0.47118     0.47144
             11  H  2  S      0.34763     0.44465
             12  C  3  S      1.98743     1.97399
             13  C  3  S      0.36339     0.41725
             14  C  3  X      0.53616     0.51234
             15  C  3  Y      0.56088     0.52596
             16  C  3  Z      0.57462     0.53775
             17  C  3  S      1.08143     0.55861
             18  C  3  X      0.30822     0.50069
             19  C  3  Y      0.44474     0.55403
             20  C  3  Z      0.50591     0.57142
             21  C  4  S      1.98794     1.97410
             22  C  4  S      0.36084     0.42845
             23  C  4  X      0.55669     0.54012
             24  C  4  Y      0.56144     0.52892
             25  C  4  Z      0.56267     0.52550
             26  C  4  S      1.11611     0.56918
             27  C  4  X      0.33909     0.52045
             28  C  4  Y      0.48329     0.56893
             29  C  4  Z      0.50255     0.57099
             30  C  5  S      1.98489     1.97368
             31  C  5  S      0.42719     0.42917
             32  C  5  X      0.57804     0.54348
             33  C  5  Y      0.53363     0.50355
             34  C  5  Z      0.50307     0.47520
             35  C  5  S      0.57752     0.50948
             36  C  5  X      0.24226     0.45730
             37  C  5  Y      0.22017     0.44803
             38  C  5  Z      0.27913     0.45897
             39  N  6  S      1.98590     1.97574
             40  N  6  S      0.37320     0.47559
             41  N  6  X      0.59519     0.56681
             42  N  6  Y      0.66058     0.64418
             43  N  6  Z      0.68195     0.67191
             44  N  6  S      1.27694     0.73500
             45  N  6  X      0.58252     0.64388
             46  N  6  Y      0.77618     0.78309
             47  N  6  Z      0.82477     0.82478
             48  O  7  S      1.98601     1.98038
             49  O  7  S      0.43374     0.59151
             50  O  7  X      0.83014     0.82312
             51  O  7  Y      0.64489     0.63156
             52  O  7  Z      0.64003     0.62745
             53  O  7  S      1.55995     1.05584
             54  O  7  X      0.91308     0.98339
             55  O  7  Y      0.74576     0.78990
             56  O  7  Z      0.75070     0.78951
             57  H  8  S      0.47078     0.47605
             58  H  8  S      0.31772     0.42825
             59  H  9  S      0.47207     0.47767
             60  H  9  S      0.32692     0.43191
             61  H 10  S      0.46820     0.47196
             62  H 10  S      0.33384     0.43508
             63  H 11  S      0.46564     0.46998
             64  H 11  S      0.32390     0.43040
             65  H 12  S      0.44979     0.44740
             66  H 12  S      0.24113     0.35708
             67  H 13  S      0.44417     0.44353
             68  H 13  S      0.24098     0.35648
             69  H 14  S      0.47112     0.47068
             70  H 14  S      0.33893     0.43917
             71  H 15  S      0.47103     0.47115
             72  H 15  S      0.34684     0.44430

          ----- MULLIKEN ATOMIC OVERLAP POPULATIONS -----
          (OFF-DIAGONAL ELEMENTS NEED TO BE MULTIPLIED BY 2)

             1           2           3           4           5

    1    5.3340923
    2    0.3648601   0.5513332
    3    0.2654997  -0.0405048   5.3308307
    4   -0.0674678  -0.0026472   0.2452448   5.8141525
    5    0.0048518  -0.0000508  -0.0485966   0.1026178   4.6587546
    6   -0.0000118  -0.0000003   0.0032559  -0.1310079   0.1492455
    7    0.0001804  -0.0000005   0.0095778  -0.0992880   0.5794751
    8   -0.0376623   0.0032994   0.3755966  -0.0514072   0.0008782
    9   -0.0400601  -0.0026633   0.3777270  -0.0475747  -0.0002036
   10   -0.0002576   0.0032978  -0.0388536   0.3464287  -0.0306917
   11   -0.0010375  -0.0001999  -0.0387580   0.3521658  -0.0337635
   12   -0.0000066   0.0000005  -0.0000525   0.0024478  -0.0178004
   13    0.0000005   0.0000000  -0.0001177   0.0061554  -0.0187246
   14    0.3688960  -0.0279854  -0.0366125   0.0035664  -0.0000677
   15    0.3653916  -0.0299230  -0.0414587  -0.0027565  -0.0000195

             6           7           8           9          10

    6    7.1807228
    7   -0.0731337   8.0728840
    8    0.0001580   0.0065695   0.5226573
    9    0.0000570   0.0017154  -0.0287296   0.5364602
   10    0.0020740   0.0011364   0.0038264  -0.0032747   0.5446527
   11    0.0015723   0.0006301  -0.0025332   0.0037293  -0.0274509
   12    0.3147717   0.0018659  -0.0000048  -0.0000015   0.0014859
   13    0.3095256   0.0026924  -0.0000007  -0.0000004  -0.0001289
   14    0.0000001   0.0000007  -0.0016215  -0.0016641  -0.0000329
   15   -0.0000001   0.0000005  -0.0025264   0.0034728  -0.0001647

            11          12          13          14          15

   11    0.5306575
   12    0.0006265   0.4112111
   13   -0.0001443  -0.0236259   0.4095173
   14   -0.0000080   0.0000000  -0.0000000   0.5331394
   15    0.0040504   0.0000002  -0.0000000  -0.0275574   0.5493661

          TOTAL MULLIKEN AND LOWDIN ATOMIC POPULATIONS
       ATOM         MULL.POP.    CHARGE          LOW.POP.     CHARGE
    1 C             6.557269   -0.557269         6.261628   -0.261628
    2 H             0.818816    0.181184         0.916090    0.083910
    3 C             6.362778   -0.362778         6.152049   -0.152049
    4 C             6.470630   -0.470630         6.226642   -0.226642
    5 C             5.345905    0.654095         5.798862    0.201138
    6 N             7.757229   -0.757229         7.320988   -0.320988
    7 O             8.504306   -0.504306         8.272653   -0.272653
    8 H             0.788500    0.211500         0.904299    0.095701
    9 H             0.798990    0.201010         0.909574    0.090426
   10 H             0.802047    0.197953         0.907037    0.092963
   11 H             0.789537    0.210463         0.900383    0.099617
   12 H             0.690918    0.309082         0.804480    0.195520
   13 H             0.685149    0.314851         0.800006    0.199994
   14 H             0.810053    0.189947         0.909851    0.090149
   15 H             0.817875    0.182125         0.915457    0.084543

          -------------------------------
          BOND ORDER AND VALENCE ANALYSIS     BOND ORDER THRESHOLD=0.050
          -------------------------------

                   BOND                       BOND                       BOND
  ATOM PAIR DIST  ORDER      ATOM PAIR DIST  ORDER      ATOM PAIR DIST  ORDER
    1   2  1.097  0.924        1   3  1.542  0.940        1  14  1.096  0.926
    1  15  1.097  0.923        3   4  1.537  0.924        3   8  1.095  0.904
    3   9  1.096  0.912        4   5  1.534  0.840        4  10  1.099  0.902
    4  11  1.100  0.898        5   6  1.371  0.998        5   7  1.240  1.802
    6   7  2.294  0.146        6  12  1.012  0.857        6  13  1.014  0.853

                       TOTAL       BONDED        FREE
      ATOM            VALENCE     VALENCE     VALENCE
    1 C                 3.702       3.702      -0.000
    2 H                 0.921       0.921       0.000
    3 C                 3.664       3.664      -0.000
    4 C                 3.580       3.580      -0.000
    5 C                 3.626       3.626      -0.000
    6 N                 2.867       2.867      -0.000
    7 O                 2.072       2.072      -0.000
    8 H                 0.915       0.915      -0.000
    9 H                 0.913       0.913      -0.000
   10 H                 0.916       0.916       0.000
   11 H                 0.910       0.910       0.000
   12 H                 0.880       0.880      -0.000
   13 H                 0.881       0.881       0.000
   14 H                 0.920       0.920      -0.000
   15 H                 0.921       0.921      -0.000

          ---------------------
          ELECTROSTATIC MOMENTS
          ---------------------

 POINT   1           X           Y           Z (BOHR)    CHARGE
                -3.009314   -0.095147    0.024359       -0.00 (A.U.)
         DX          DY          DZ         /D/  (DEBYE)
    -1.185479    2.522395    2.196513    3.548592
 ...... END OF PROPERTY EVALUATION ......
 CPU     0: STEP CPU TIME=     0.03 TOTAL CPU TIME=        145.6 (      2.4 MIN)
 TOTAL WALL CLOCK TIME=        147.3 SECONDS, CPU UTILIZATION IS    98.89%
  $VIB   
          IVIB=   0 IATOM=   0 ICOORD=   0 E=     -286.0885571007
 -2.259510331E-05-5.200579828E-05-8.453921051E-06-3.553169515E-06 2.017296380E-05
 -7.735818734E-07-4.472210437E-05 6.169998294E-05 1.138317076E-05 6.329376422E-06
  9.482905099E-06 4.016729921E-07-4.199097584E-05 5.799430450E-06 2.994927875E-05
  2.639647842E-05-1.889333790E-05-2.939562824E-05-5.495293533E-06 8.979927385E-06
 -6.145172700E-06-6.066962218E-06-1.685247487E-05-6.775235767E-06 1.627019056E-05
 -1.337177649E-05-3.294158774E-06-9.393700956E-06-2.433786991E-05 9.898147810E-06
  1.110615166E-05-2.422682509E-05-1.588231477E-05 1.841923286E-05 8.870185179E-06
 -1.844565946E-06 3.991407540E-05 6.670681597E-06 9.253639405E-06 2.084919606E-05
  6.830092629E-07 4.545538939E-06-5.467391647E-06 2.732899683E-05 7.133130468E-06
 -1.185478997E+00 2.522394774E+00 2.196513009E+00
 ......END OF GEOMETRY SEARCH......
 CPU     0: STEP CPU TIME=     0.00 TOTAL CPU TIME=        145.6 (      2.4 MIN)
 TOTAL WALL CLOCK TIME=        147.3 SECONDS, CPU UTILIZATION IS    98.88%
               586153  WORDS OF DYNAMIC MEMORY USED
 EXECUTION OF GAMESS TERMINATED NORMALLY Sun May 17 12:39:58 2020
 DDI: 263640 bytes (0.3 MB / 0 MWords) used by master data server.
Note: The following floating-point exceptions are signalling:Note: The following floating-point exceptions are signalling: IEEE_UNDERFLOW_FLAG IEEE_UNDERFLOW_FLAG IEEE_DENORMALNote: The following floating-point exceptions are signalling: IEEE_UNDERFLOW_FLAGNote: The following floating-point exceptions are signalling: IEEE_UNDERFLOW_FLAG IEEE_DENORMAL
 ----------------------------------------
 CPU timing information for all processes
 ========================================
 0: 143.386 + 2.242 = 145.628
 1: 143.743 + 0.708 = 144.451
 2: 143.31 + 0.588 = 143.619
 3: 143.714 + 0.560 = 144.275
 4: 143.877 + 0.552 = 144.429
 5: 143.700 + 0.428 = 144.128
 ----------------------------------------

Note: The following floating-point exceptions are signalling: IEEE_DENORMAL
 IEEE_DENORMAL
Note: The following floating-point exceptions are signalling: IEEE_UNDERFLOW_FLAG IEEE_UNDERFLOW_FLAG
 IEEE_DENORMAL
 IEEE_DENORMAL
 ddikick.x: exited gracefully.
unset echo
----- accounting info -----
Files used on the master node pietdev were:
-rwxr-xr-x 1 piet piet      777 mei 17 12:37 /home/piet/scr/glutamine_geoopt.F05*
-rw-r--r-- 1 piet piet 57344000 mei 17 12:39 /home/piet/scr/glutamine_geoopt.F10
-rw-r--r-- 1 piet piet  3984448 mei 17 12:39 /home/piet/scr/glutamine_geoopt.F22
-rw-r--r-- 1 piet piet  3984448 mei 17 12:39 /home/piet/scr/glutamine_geoopt.F22.001
-rw-r--r-- 1 piet piet  3984448 mei 17 12:39 /home/piet/scr/glutamine_geoopt.F22.002
-rw-r--r-- 1 piet piet  3984448 mei 17 12:39 /home/piet/scr/glutamine_geoopt.F22.003
-rw-r--r-- 1 piet piet  3984448 mei 17 12:39 /home/piet/scr/glutamine_geoopt.F22.004
-rw-r--r-- 1 piet piet  3984448 mei 17 12:39 /home/piet/scr/glutamine_geoopt.F22.005
ls: No match.
ls: No match.
ls: No match.
zo 17 mei 2020 12:40:01 CEST
0.101u 0.022s 2:30.40 0.0%	0+0k 0+8io 0pf+0w
