----- GAMESS execution script 'rungms' -----
This job is running on host pietdev
under operating system Linux at zo 17 mei 2020 12:56:39 CEST
Available scratch disk space (Kbyte units) at beginning of the job is
Filesystem     1K-blocks     Used Available Use% Mounted on
/dev/sda2      244568380 30357520 201717804  14% /
GAMESS temporary binary files will be written to /home/piet/scr
GAMESS supplementary output files will be written to /home/piet/gamess/scr
Copying input file glutamine_fukui_neu.inp to your run's scratch directory...
cp glutamine_fukui_neu.inp /home/piet/scr/glutamine_fukui_neu.F05
unset echo
 
Assuming a single but multicore node.
 
/home/piet/gamess/ddikick.x /home/piet/gamess/gamess.03.x glutamine_fukui_neu -ddi 1 6 pietdev:cpus=6 -scr /home/piet/scr

 Distributed Data Interface kickoff program.
 Initiating 6 compute processes on 1 nodes to run the following command:
 /home/piet/gamess/gamess.03.x glutamine_fukui_neu 

          ******************************************************
          *         GAMESS VERSION = 30 SEP 2019 (R2)          *
          *             FROM IOWA STATE UNIVERSITY             *
          * M.W.SCHMIDT, K.K.BALDRIDGE, J.A.BOATZ, S.T.ELBERT, *
          *   M.S.GORDON, J.H.JENSEN, S.KOSEKI, N.MATSUNAGA,   *
          *          K.A.NGUYEN, S.J.SU, T.L.WINDUS,           *
          *       TOGETHER WITH M.DUPUIS, J.A.MONTGOMERY       *
          *         J.COMPUT.CHEM.  14, 1347-1363(1993)        *
          **************** 64 BIT LINUX VERSION ****************

  SINCE 1993, STUDENTS AND POSTDOCS WORKING AT IOWA STATE UNIVERSITY
  AND ALSO IN THEIR VARIOUS JOBS AFTER LEAVING ISU HAVE MADE IMPORTANT
  CONTRIBUTIONS TO THE CODE:
     IVANA ADAMOVIC, CHRISTINE AIKENS, YURI ALEXEEV, POOJA ARORA,
     ANDREY ASADCHEV, ROB BELL, PRADIPTA BANDYOPADHYAY, JONATHAN BENTZ,
     COLLEEN BERTONI, BRETT BODE, KURT BRORSEN, CALEB CARLIN, GALINA CHABAN,
     WEI CHEN, CHEOL HO CHOI, PAUL DAY, ALBERT DEFUSCO, NUWAN DESILVA,
     TIM DUDLEY, DMITRI FEDOROV, ALEX FINDLATER, GRAHAM FLETCHER, 
     MARK FREITAG, KURT GLAESEMANN, EMILIE B GUIDEZ, ANASTASIA GUNINA, 
     DAN KEMP, SAROM SOK LEANG, GRANT MERRILL,
     NORIYUKI MINEZAWA, JONATHAN MULLIN,
     TAKESHI NAGATA, SEAN NEDD, HEATHER NETZLOFF, BOSILJKA NJEGIC, RYAN OLSON,
     MIKE PAK, BUU PHAM, DAVID POOLE,
     SPENCER PRUITT, LUKE ROSKOP, TOSAPORN SATTASATHUCHANA,
     JIM SHOEMAKER, LYUDMILA SLIPCHENKO,
     TONY SMITH, JIE SONG, TETSUYA TAKETSUGU, SIMON WEBB,
     JORGE LUIS GALVEZ VALLEJO, PENG XU, SOOHAENG YOO,
     FEDERICO ZAHARIEV

  ADDITIONAL CODE HAS BEEN PROVIDED BY COLLABORATORS IN OTHER GROUPS:
     IOWA STATE UNIVERSITY:
          JOE IVANIC, AARON WEST, LAIMUTIS BYTAUTAS, KLAUS RUEDENBERG
     UNIVERSITY OF TOKYO: KIMIHIKO HIRAO, TAKAHITO NAKAJIMA,
          TAKAO TSUNEDA, MUNEAKI KAMIYA, SUSUMU YANAGISAWA,
          KIYOSHI YAGI, MAHITO CHIBA, SEIKEN TOKURA, NAOAKI KAWAKAMI
     UNIVERSITY OF AARHUS: FRANK JENSEN
     UNIVERSITY OF IOWA: VISVALDAS KAIRYS, HUI LI
     NATIONAL INST. OF STANDARDS AND TECHNOLOGY: WALT STEVENS, DAVID GARMER
     UNIVERSITY OF PISA: BENEDETTA MENNUCCI, JACOPO TOMASI
     UNIVERSITY OF MEMPHIS: HENRY KURTZ, PRAKASHAN KORAMBATH
     UNIVERSITY OF ALBERTA: TOBY ZENG, MARIUSZ KLOBUKOWSKI
     UNIVERSITY OF NEW ENGLAND: MARK SPACKMAN
     MIE UNIVERSITY: HIROAKI UMEDA
     NAT. INST. OF ADVANCED INDUSTRIAL SCIENCE AND TECHNOLOGY: KAZUO KITAURA
     MICHIGAN STATE UNIVERSITY:
          KAROL KOWALSKI, MARTA WLOCH, JEFFREY GOUR, JESSE LUTZ,
          WEI LI, JUN SHEN, J. EMILIANO DEUSTUA, PIOTR PIECUCH
     UNIVERSITY OF MINNESOTA:
          ANDREW SAND, PRACHI SHARMA, YINAN SHU
     UNIVERSITY OF SILESIA: MONIKA MUSIAL, STANISLAW KUCHARSKI
     FACULTES UNIVERSITAIRES NOTRE-DAME DE LA PAIX:
          OLIVIER QUINET, BENOIT CHAMPAGNE
     UNIVERSITY OF CALIFORNIA - SANTA BARBARA: BERNARD KIRTMAN
     INSTITUTE FOR MOLECULAR SCIENCE:
          KAZUYA ISHIMURA, MICHIO KATOUDA, AND SHIGERU NAGASE
     UNIVERSITY OF NOTRE DAME: ANNA POMOGAEVA, DAN CHIPMAN
     KYUSHU UNIVERSITY:
          HARUYUKI NAKANO,
          FENG LONG GU, JACEK KORCHOWIEC, MARCIN MAKOWSKI, AND YURIKO AOKI,
          HIROTOSHI MORI AND EISAKU MIYOSHI
     PENNSYLVANIA STATE UNIVERSITY:
          TZVETELIN IORDANOV, CHET SWALINA, JONATHAN SKONE,
          SHARON HAMMES-SCHIFFER
     WASEDA UNIVERSITY:
          MASATO KOBAYASHI, TOMOKO AKAMA, TSUGUKI TOUMA,
          TAKESHI YOSHIKAWA, YASUHIRO IKABATA, JUNJI SEINO,
          YUYA NAKAJIMA, HIROMI NAKAI
     NANJING UNIVERSITY: SHUHUA LI
     UNIVERSITY OF NEBRASKA:
          PEIFENG SU, DEJUN SI, NANDUN THELLAMUREGE, YALI WANG, HUI LI
     UNIVERSITY OF ZURICH: ROBERTO PEVERATI, KIM BALDRIDGE
     N. COPERNICUS UNIVERSITY AND JACKSON STATE UNIVERSITY:
          MARIA BARYSZ
     UNIVERSITY OF COPENHAGEN: Jimmy Kromann, CASPER STEINMANN
     TOKYO INSTITUTE OF TECHNOLOGY: HIROYA NAKATA
     NAGOYA UNIVERSITY: YOSHIO NISHIMOTO, STEPHAN IRLE
     MOSCOW STATE UNIVERSITY: VLADIMIR MIRONOV
     A.N.NESMEYANOV INSTITUTE OF ORGANOELEMENT COMPOUNDS OF RUSSIAN ACADEMY OF SCIENCES:
          IGOR S. GERASIMOV
     JOHANNES KEPLER UNIVERSITY LINZ:
          CHRISTIAN FRIEDL


 PARALLEL VERSION RUNNING ON        6 PROCESSORS IN        1 NODES.

 EXECUTION OF GAMESS BEGUN Sun May 17 12:56:40 2020

            ECHO OF THE FIRST FEW INPUT CARDS -
 INPUT CARD> $BASIS GBASIS=N21 NGAUSS=3 $END                                                
 INPUT CARD> $CONTRL SCFTYP=RHF MAXIT=60 MULT=1 ICHARG=0 $END                               
 INPUT CARD> $SYSTEM MEMDDI=1000 MWORDS=30 $END                                             
 INPUT CARD> $SCF DIRSCF=.TRUE. $END                                                        
 INPUT CARD> $DATA                                                                          
 INPUT CARD>                                                                                
 INPUT CARD>C1                                                                              
 INPUT CARD>C 6.0000000 1.1433211030 0.5366695028 0.4569541804                              
 INPUT CARD>H 1.0000000 1.1643909239 0.6289685477 1.5500033214                              
 INPUT CARD>C 6.0000000 -0.1158979684 -0.2206689394 -0.0090054925                           
 INPUT CARD>C 6.0000000 -1.4119192511 0.4935443493 0.4081145638                             
 INPUT CARD>C 6.0000000 -2.6457911351 -0.2282535476 -0.1494427326                           
 INPUT CARD>N 7.0000000 -3.8381282023 0.2566756089 0.3227746438                             
 INPUT CARD>O 8.0000000 -2.5726546758 -1.1586840620 -0.9653422622                           
 INPUT CARD>H 1.0000000 -0.1176237628 -0.3315030644 -1.0982136580                           
 INPUT CARD>H 1.0000000 -0.1213466703 -1.2354787295 0.4052923169                            
 INPUT CARD>H 1.0000000 -1.4854634607 0.5531003971 1.5025543621                             
 INPUT CARD>H 1.0000000 -1.4111822697 1.5251056367 0.0257006657                             
 INPUT CARD>H 1.0000000 -3.8888500039 1.0147694469 0.9915810881                             
 INPUT CARD>H 1.0000000 -4.6993335490 -0.1599259930 -0.0138945705                           
 INPUT CARD>H 1.0000000 2.0513383313 0.0096638470 0.1430900231                              
 INPUT CARD>H 1.0000000 1.1708905908 1.5469469997 0.0298335506                              
 INPUT CARD> $END                                                                           
   30000000 WORDS OF MEMORY AVAILABLE

     BASIS OPTIONS
     -------------
     GBASIS=N21          IGAUSS=       3      POLAR=NONE    
     NDFUNC=       0     NFFUNC=       0     DIFFSP=       F
     NPFUNC=       0      DIFFS=       F     BASNAM=        


     RUN TITLE
     ---------
                                                                                 

 THE POINT GROUP OF THE MOLECULE IS C1      
 THE ORDER OF THE PRINCIPAL AXIS IS     0

 ATOM      ATOMIC                      COORDINATES (BOHR)
           CHARGE         X                   Y                   Z
 C           6.0     2.1605636006        1.0141583063        0.8635181899
 H           1.0     2.2003797888        1.1885782100        2.9290815575
 C           6.0    -0.2190154028       -0.4170038295       -0.0170179132
 C           6.0    -2.6681405014        0.9326635830        0.7712246972
 C           6.0    -4.9998202661       -0.4313366607       -0.2824058155
 N           7.0    -7.2530106081        0.4850465686        0.6099556326
 O           8.0    -4.8616123983       -2.1895953835       -1.8242323599
 H           1.0    -0.2222766813       -0.6264499558       -2.0753228896
 H           1.0    -0.2293119564       -2.3347162624        0.7658914239
 H           1.0    -2.8071189055        1.0452081942        2.8394160260
 H           1.0    -2.6667478085        2.8820317557        0.0485672159
 H           1.0    -7.3488609147        1.9176361954        1.8738165511
 H           1.0    -8.8804527325       -0.3022163051       -0.0262569310
 H           1.0     3.8764673543        0.0182620228        0.2704009352
 H           1.0     2.2126623782        2.9233059470        0.0563772359

          INTERNUCLEAR DISTANCES (ANGS.)
          ------------------------------

                1 C          2 H          3 C          4 C          5 C     

   1 C       0.0000000    1.0971415 *  1.5415293 *  2.5560709 *  3.9128246  
   2 H       1.0971415 *  0.0000000    2.1889568 *  2.8212805 *  4.2591588  
   3 C       1.5415293 *  2.1889568 *  0.0000000    1.5374527 *  2.5337994 *
   4 C       2.5560709 *  2.8212805 *  1.5374527 *  0.0000000    1.5343735 *
   5 C       3.9128246    4.2591588    2.5337994 *  1.5343735 *  0.0000000  
   6 N       4.9911159    5.1642899    3.7673510    2.4392375 *  1.3710628 *
   7 O       4.3250002    4.8464601    2.7982326 *  2.4420379 *  1.2396540 *
   8 H       2.1822586 *  3.0950154    1.0948341 *  2.1505648 *  2.7023059 *
   9 H       2.1777426 *  2.5376462 *  1.0961347 *  2.1575695 *  2.7739959 *
  10 H       2.8291444 *  2.6513649 *  2.1815687 *  1.0985236 *  2.1647098 *
  11 H       2.7728096 *  3.1241219    2.1740963 *  1.1001635 *  2.1515582 *
  12 H       5.0830258    5.0986196    4.0942214    2.5975555 *  2.0957664 *
  13 H       5.9028431    6.1197546    4.5838407    3.3781960    2.0591451 *
  14 H       1.0957833 *  1.7747166 *  2.1847424 *  3.5069262    4.7122399  
  15 H       1.0972022 *  1.7758499 *  2.1867326 *  2.8148997 *  4.2131385  

                6 N          7 O          8 H          9 H         10 H     

   1 C       4.9911159    4.3250002    2.1822586 *  2.1777426 *  2.8291444 *
   2 H       5.1642899    4.8464601    3.0950154    2.5376462 *  2.6513649 *
   3 C       3.7673510    2.7982326 *  1.0948341 *  1.0961347 *  2.1815687 *
   4 C       2.4392375 *  2.4420379 *  2.1505648 *  2.1575695 *  1.0985236 *
   5 C       1.3710628 *  1.2396540 *  2.7023059 *  2.7739959 *  2.1647098 *
   6 N       0.0000000    2.2943216 *  4.0258310    4.0059704    2.6485428 *
   7 O       2.2943216 *  0.0000000    2.5940432 *  2.8095280 *  3.1941673  
   8 H       4.0258310    2.5940432 *  0.0000000    1.7543421 *  3.0687950  
   9 H       4.0059704    2.8095280 *  1.7543421 *  0.0000000    2.5027613 *
  10 H       2.6485428 *  3.1941673    3.0687950    2.5027613 *  0.0000000  
  11 H       2.7544935 *  3.0877033    2.5265536 *  3.0706012    1.7695787 *
  12 H       1.0122159 *  3.2071513    4.5168395    4.4273505    2.5000998 *
  13 H       1.0141882 *  2.5348636 *  4.7113959    4.7212811    3.6244979  
  14 H       5.8973823    4.8964242    2.5222264 *  2.5178741 *  3.8278497  
  15 H       5.1808189    4.7249281    2.5419155 *  3.0907506    3.1957557  

               11 H         12 H         13 H         14 H         15 H     

   1 C       2.7728096 *  5.0830258    5.9028431    1.0957833 *  1.0972022 *
   2 H       3.1241219    5.0986196    6.1197546    1.7747166 *  1.7758499 *
   3 C       2.1740963 *  4.0942214    4.5838407    2.1847424 *  2.1867326 *
   4 C       1.1001635 *  2.5975555 *  3.3781960    3.5069262    2.8148997 *
   5 C       2.1515582 *  2.0957664 *  2.0591451 *  4.7122399    4.2131385  
   6 N       2.7544935 *  1.0122159 *  1.0141882 *  5.8973823    5.1808189  
   7 O       3.0877033    3.2071513    2.5348636 *  4.8964242    4.7249281  
   8 H       2.5265536 *  4.5168395    4.7113959    2.5222264 *  2.5419155 *
   9 H       3.0706012    4.4273505    4.7212811    2.5178741 *  3.0907506  
  10 H       1.7695787 *  2.5000998 *  3.6244979    3.8278497    3.1957557  
  11 H       0.0000000    2.7078045 *  3.6949747    3.7814538    2.5821685 *
  12 H       2.7078045 *  0.0000000    1.7457876 *  6.0840786    5.1777549  
  13 H       3.6949747    1.7457876 *  0.0000000    6.7546262    6.1134981  
  14 H       3.7814538    6.0840786    6.7546262    0.0000000    1.7751774 *
  15 H       2.5821685 *  5.1777549    6.1134981    1.7751774 *  0.0000000  

  * ... LESS THAN  3.000


     ATOMIC BASIS SET
     ----------------
 THE CONTRACTED PRIMITIVE FUNCTIONS HAVE BEEN UNNORMALIZED
 THE CONTRACTED BASIS FUNCTIONS ARE NOW NORMALIZED TO UNITY

  SHELL TYPE  PRIMITIVE        EXPONENT          CONTRACTION COEFFICIENT(S)

 C         

      1   S       1           172.2560000    0.061766907377
      1   S       2            25.9109000    0.358794042852
      1   S       3             5.5333500    0.700713083689

      2   L       4             3.6649800   -0.395895162119    0.236459946619
      2   L       5             0.7705450    1.215834355681    0.860618805716

      3   L       6             0.1958570    1.000000000000    1.000000000000

 H         

      4   S       7             5.4471780    0.156284978695
      4   S       8             0.8245472    0.904690876670

      5   S       9             0.1831916    1.000000000000

 C         

      6   S      10           172.2560000    0.061766907377
      6   S      11            25.9109000    0.358794042852
      6   S      12             5.5333500    0.700713083689

      7   L      13             3.6649800   -0.395895162119    0.236459946619
      7   L      14             0.7705450    1.215834355681    0.860618805716

      8   L      15             0.1958570    1.000000000000    1.000000000000

 C         

      9   S      16           172.2560000    0.061766907377
      9   S      17            25.9109000    0.358794042852
      9   S      18             5.5333500    0.700713083689

     10   L      19             3.6649800   -0.395895162119    0.236459946619
     10   L      20             0.7705450    1.215834355681    0.860618805716

     11   L      21             0.1958570    1.000000000000    1.000000000000

 C         

     12   S      22           172.2560000    0.061766907377
     12   S      23            25.9109000    0.358794042852
     12   S      24             5.5333500    0.700713083689

     13   L      25             3.6649800   -0.395895162119    0.236459946619
     13   L      26             0.7705450    1.215834355681    0.860618805716

     14   L      27             0.1958570    1.000000000000    1.000000000000

 N         

     15   S      28           242.7660000    0.059865700508
     15   S      29            36.4851000    0.352955002994
     15   S      30             7.8144900    0.706513005993

     16   L      31             5.4252200   -0.413300077430    0.237972016222
     16   L      32             1.1491500    1.224417266851    0.858953058551

     17   L      33             0.2832050    1.000000000000    1.000000000000

 O         

     18   S      34           322.0370000    0.059239393389
     18   S      35            48.4308000    0.351499960776
     18   S      36            10.4206000    0.707657921031

     19   L      37             7.4029400   -0.404453583190    0.244586106967
     19   L      38             1.5762000    1.221561761397    0.853955373466

     20   L      39             0.3736840    1.000000000000    1.000000000000

 H         

     21   S      40             5.4471780    0.156284978695
     21   S      41             0.8245472    0.904690876670

     22   S      42             0.1831916    1.000000000000

 H         

     23   S      43             5.4471780    0.156284978695
     23   S      44             0.8245472    0.904690876670

     24   S      45             0.1831916    1.000000000000

 H         

     25   S      46             5.4471780    0.156284978695
     25   S      47             0.8245472    0.904690876670

     26   S      48             0.1831916    1.000000000000

 H         

     27   S      49             5.4471780    0.156284978695
     27   S      50             0.8245472    0.904690876670

     28   S      51             0.1831916    1.000000000000

 H         

     29   S      52             5.4471780    0.156284978695
     29   S      53             0.8245472    0.904690876670

     30   S      54             0.1831916    1.000000000000

 H         

     31   S      55             5.4471780    0.156284978695
     31   S      56             0.8245472    0.904690876670

     32   S      57             0.1831916    1.000000000000

 H         

     33   S      58             5.4471780    0.156284978695
     33   S      59             0.8245472    0.904690876670

     34   S      60             0.1831916    1.000000000000

 H         

     35   S      61             5.4471780    0.156284978695
     35   S      62             0.8245472    0.904690876670

     36   S      63             0.1831916    1.000000000000

 TOTAL NUMBER OF BASIS SET SHELLS             =   36
 NUMBER OF CARTESIAN GAUSSIAN BASIS FUNCTIONS =   72
 NUMBER OF ELECTRONS                          =   48
 CHARGE OF MOLECULE                           =    0
 SPIN MULTIPLICITY                            =    1
 NUMBER OF OCCUPIED ORBITALS (ALPHA)          =   24
 NUMBER OF OCCUPIED ORBITALS (BETA )          =   24
 TOTAL NUMBER OF ATOMS                        =   15
 THE NUCLEAR REPULSION ENERGY IS      237.4204795586

     $CONTRL OPTIONS
     ---------------
 SCFTYP=RHF          RUNTYP=ENERGY       EXETYP=RUN     
 MPLEVL=       0     CITYP =NONE         CCTYP =NONE         VBTYP =NONE    
 DFTTYP=NONE         TDDFT =NONE    
 MULT  =       1     ICHARG=       0     NZVAR =       0     COORD =UNIQUE  
 PP    =NONE         RELWFN=NONE         LOCAL =NONE         NUMGRD=       F
 ISPHER=      -1     NOSYM =       0     MAXIT =      60     UNITS =ANGS    
 PLTORB=       F     MOLPLT=       F     AIMPAC=       F     FRIEND=        
 NPRINT=       7     IREST =       0     GEOM  =INPUT   
 NORMF =       0     NORMP =       0     ITOL  =      20     ICUT  =       9
 INTTYP=BEST         GRDTYP=BEST         QMTTOL= 1.0E-06

     $SYSTEM OPTIONS
     ---------------
  REPLICATED MEMORY=    30000000 WORDS (ON EVERY NODE).
 DISTRIBUTED MEMDDI=        1000 MILLION WORDS IN AGGREGATE,
 MEMDDI DISTRIBUTED OVER   6 PROCESSORS IS   166666666 WORDS/PROCESSOR.
 TOTAL MEMORY REQUESTED ON EACH PROCESSOR=   196666666 WORDS.
 TIMLIM=      525600.00 MINUTES, OR     365.0 DAYS.
 PARALL= T  BALTYP=  DLB     KDIAG=    0  COREFL= F
 MXSEQ2=     300 MXSEQ3=     150  mem10=         0

          ----------------
          PROPERTIES INPUT
          ----------------

     MOMENTS            FIELD           POTENTIAL          DENSITY
 IEMOM =       1   IEFLD =       0   IEPOT =       0   IEDEN =       0
 WHERE =COMASS     WHERE =NUCLEI     WHERE =NUCLEI     WHERE =NUCLEI  
 OUTPUT=BOTH       OUTPUT=BOTH       OUTPUT=BOTH       OUTPUT=BOTH    
 IEMINT=       0   IEFINT=       0                     IEDINT=       0
                                                       MORB  =       0
          EXTRAPOLATION IN EFFECT
          SOSCF IN EFFECT
 ORBITAL PRINTING OPTION: NPREO=     1    72     2     1

     -------------------------------
     INTEGRAL TRANSFORMATION OPTIONS
     -------------------------------
     NWORD  =            0
     CUTOFF = 1.0E-09     MPTRAN =       0
     DIRTRF =       T     AOINTS =DUP     

          ----------------------
          INTEGRAL INPUT OPTIONS
          ----------------------
 NOPK  =       1 NORDER=       0 SCHWRZ=       T

     ------------------------------------------
     THE POINT GROUP IS C1 , NAXIS= 0, ORDER= 1
     ------------------------------------------

     DIMENSIONS OF THE SYMMETRY SUBSPACES ARE
 A   =   72

 ..... DONE SETTING UP THE RUN .....
 CPU     0: STEP CPU TIME=     0.02 TOTAL CPU TIME=          0.0 (      0.0 MIN)
 TOTAL WALL CLOCK TIME=          0.0 SECONDS, CPU UTILIZATION IS    66.67%

          ********************
          1 ELECTRON INTEGRALS
          ********************
 ...... END OF ONE-ELECTRON INTEGRALS ......
 CPU     0: STEP CPU TIME=     0.01 TOTAL CPU TIME=          0.0 (      0.0 MIN)
 TOTAL WALL CLOCK TIME=          0.0 SECONDS, CPU UTILIZATION IS    75.00%

          -------------
          GUESS OPTIONS
          -------------
          GUESS =HUCKEL            NORB  =       0          NORDER=       0
          MIX   =       F          PRTMO =       F          PUNMO =       F
          TOLZ  = 1.0E-08          TOLE  = 1.0E-05
          SYMDEN=       F          PURIFY=       F

 INITIAL GUESS ORBITALS GENERATED BY HUCKEL   ROUTINE.
 HUCKEL GUESS REQUIRES     54630 WORDS.

 SYMMETRIES FOR INITIAL GUESS ORBITALS FOLLOW.   BOTH SET(S).
    24 ORBITALS ARE OCCUPIED (    6 CORE ORBITALS).
     7=A        8=A        9=A       10=A       11=A       12=A       13=A   
    14=A       15=A       16=A       17=A       18=A       19=A       20=A   
    21=A       22=A       23=A       24=A       25=A       26=A       27=A   
    28=A       29=A       30=A       31=A       32=A       33=A       34=A   
 ...... END OF INITIAL ORBITAL SELECTION ......
 CPU     0: STEP CPU TIME=     0.01 TOTAL CPU TIME=          0.0 (      0.0 MIN)
 TOTAL WALL CLOCK TIME=          0.0 SECONDS, CPU UTILIZATION IS    80.00%

                    ----------------------
                    AO INTEGRAL TECHNOLOGY
                    ----------------------
     S,P,L SHELL ROTATED AXIS INTEGRALS, REPROGRAMMED BY
        KAZUYA ISHIMURA (IMS) AND JOSE SIERRA (SYNSTAR).
     S,P,D,L SHELL ROTATED AXIS INTEGRALS PROGRAMMED BY
        KAZUYA ISHIMURA (INSTITUTE FOR MOLECULAR SCIENCE).
     S,P,D,F,G SHELL TO TOTAL QUARTET ANGULAR MOMENTUM SUM 5,
        ERIC PROGRAM BY GRAHAM FLETCHER (ELORET AND NASA ADVANCED
        SUPERCOMPUTING DIVISION, AMES RESEARCH CENTER).
     S,P,D,F,G,L SHELL GENERAL RYS QUADRATURE PROGRAMMED BY
        MICHEL DUPUIS (PACIFIC NORTHWEST NATIONAL LABORATORY).

          --------------------
          2 ELECTRON INTEGRALS
          --------------------

 DIRECT SCF METHOD SKIPS INTEGRAL STORAGE ON DISK.
 DIRECT TRANSFORMATION SKIPS AO INTEGRAL STORAGE ON DISK.
  ...... END OF TWO-ELECTRON INTEGRALS .....
 CPU     0: STEP CPU TIME=     0.01 TOTAL CPU TIME=          0.0 (      0.0 MIN)
 TOTAL WALL CLOCK TIME=          0.1 SECONDS, CPU UTILIZATION IS    83.33%

          --------------------------
                 RHF SCF CALCULATION
          --------------------------

     NUCLEAR ENERGY =       237.4204795586
     MAXIT =   60     NPUNCH=    2
     EXTRAP=T  DAMP=F  SHIFT=F  RSTRCT=F  DIIS=F  DEM=F  SOSCF=T
     DENSITY MATRIX CONV=  2.00E-05
     SOSCF WILL OPTIMIZE    1152 ORBITAL ROTATIONS, SOGTOL=   0.250
     MEMORY REQUIRED FOR RHF ITERS=     87592 WORDS.

 DIRECT SCF CALCULATION, SCHWRZ=T   FDIFF=T,  DIRTHR=  0.00E+00 NITDIR=10
 SCHWARZ INEQUALITY OVERHEAD:      2533 INTEGRALS, T=        0.00

                                                                                   NONZERO     BLOCKS
 ITER EX DEM     TOTAL ENERGY        E CHANGE  DENSITY CHANGE     ORB. GRAD      INTEGRALS    SKIPPED
   1  0  0     -283.7161481640  -283.7161481640   0.791231599   0.000000000        2594020      72689
          ---------------START SECOND ORDER SCF---------------
   2  1  0     -284.3364655618    -0.6203173978   0.259354100   0.127240366        2588568      75315
   3  2  0     -284.3628608859    -0.0263953241   0.127967477   0.104678194        2574344      79831
   4  3  0     -284.4531878280    -0.0903269422   0.042614340   0.012763045        2553958      84163
   5  4  0     -284.4545348573    -0.0013470292   0.005325155   0.001649375        2516745      89364
   6  5  0     -284.4546045635    -0.0000697062   0.001647111   0.000457900        2435863      96338
   7  6  0     -284.4546092920    -0.0000047284   0.000315261   0.000123292        2367823     102461
   8  7  0     -284.4546095907    -0.0000002987   0.000090193   0.000028924        2248746     112560
   9  8  0     -284.4546096168    -0.0000000261   0.000028509   0.000007130        2140082     119444
  10  9  0     -284.4546096186    -0.0000000018   0.000003191   0.000003560        1999235     127545
  11 10  0     -284.4546096195    -0.0000000009   0.000002589   0.000001342        1846305     138859

          -----------------
          DENSITY CONVERGED
          -----------------
     TIME TO FORM FOCK OPERATORS=       0.4 SECONDS (       0.0 SEC/ITER)
     FOCK TIME ON FIRST ITERATION=       0.0, LAST ITERATION=       0.0
     TIME TO SOLVE SCF EQUATIONS=       0.1 SECONDS (       0.0 SEC/ITER)

 FINAL RHF ENERGY IS     -284.4546096195 AFTER  11 ITERATIONS

          ------------
          EIGENVECTORS
          ------------

                      1          2          3          4          5
                  -20.4141   -15.4998   -11.3007   -11.1841   -11.1659
                     A          A          A          A          A   
    1  C  1  S    0.000049  -0.000106  -0.000840  -0.005632  -0.015638
    2  C  1  S    0.000150  -0.000554  -0.001182  -0.001379  -0.003928
    3  C  1  X    0.000451  -0.000199   0.000378   0.000859  -0.000507
    4  C  1  Y   -0.000000   0.000025  -0.000174  -0.000049  -0.000138
    5  C  1  Z   -0.000030  -0.000016  -0.000117  -0.000026  -0.000070
    6  C  1  S   -0.002989   0.004313   0.003926   0.000680   0.022229
    7  C  1  X    0.000133  -0.001415  -0.003162  -0.000224  -0.010306
    8  C  1  Y    0.001006  -0.001592   0.000324   0.000381  -0.005518
    9  C  1  Z    0.000945  -0.000913   0.000209   0.000344  -0.003516
   10  H  2  S   -0.000012  -0.000183  -0.000448   0.000049  -0.001331
   11  H  2  S   -0.000105   0.000156  -0.000337  -0.001080   0.000407
   12  C  3  S   -0.000074  -0.000064  -0.000716  -0.006580   0.987844
   13  C  3  S   -0.000373  -0.000563  -0.000580  -0.003169   0.104451
   14  C  3  X   -0.000661   0.001068   0.000889  -0.000678  -0.000188
   15  C  3  Y   -0.000121   0.000238   0.000134  -0.000076   0.000311
   16  C  3  Z    0.000001   0.000166   0.000104  -0.000005   0.000198
   17  C  3  S    0.005653  -0.001982  -0.000875   0.023259  -0.092274
   18  C  3  X    0.000933  -0.004592  -0.002768  -0.011804   0.001463
   19  C  3  Y    0.003454  -0.003097  -0.000509   0.006598  -0.005661
   20  C  3  Z    0.001370  -0.001579  -0.000393   0.003341  -0.003286
   21  C  4  S   -0.000027  -0.000024  -0.001690   0.988026   0.005604
   22  C  4  S   -0.000088  -0.000559  -0.002669   0.105189  -0.001929
   23  C  4  X    0.000406   0.000203   0.000300  -0.000136   0.000366
   24  C  4  Y   -0.000139   0.000039   0.000382  -0.000157   0.000045
   25  C  4  Z   -0.000252   0.000175   0.000189  -0.000222   0.000048
   26  C  4  S    0.006511   0.000395   0.023192  -0.096688   0.022441
   27  C  4  X   -0.010377   0.003171  -0.015143   0.000282   0.011334
   28  C  4  Y    0.002133  -0.001121  -0.007157   0.007432  -0.006317
   29  C  4  Z    0.003152  -0.002293  -0.004882   0.005943  -0.003701
   30  C  5  S    0.000182  -0.000307   0.986795   0.000874   0.000746
   31  C  5  S    0.001773  -0.001693   0.095222  -0.002453  -0.000254
   32  C  5  X    0.000163  -0.000077   0.000780   0.000169  -0.000611
   33  C  5  Y   -0.001226  -0.000063   0.000004  -0.000126   0.000033
   34  C  5  Z   -0.001094  -0.000008  -0.000059  -0.000121   0.000001
   35  C  5  S    0.014138   0.022524  -0.051974   0.023285  -0.003218
   36  C  5  X   -0.000653  -0.020132  -0.013648   0.016656   0.001108
   37  C  5  Y   -0.024146   0.008851  -0.015494   0.005536  -0.000621
   38  C  5  Z   -0.021130   0.008604  -0.012759   0.004081  -0.000725
   39  N  6  S   -0.000080   0.985938   0.000025  -0.000038  -0.000069
   40  N  6  S   -0.000544   0.101721  -0.000268  -0.000767  -0.000628
   41  N  6  X   -0.000731   0.001201  -0.000910  -0.000666  -0.000405
   42  N  6  Y   -0.000779  -0.000474  -0.000544   0.000127  -0.000055
   43  N  6  Z   -0.000672  -0.000480  -0.000447   0.000150   0.000016
   44  N  6  S    0.004845  -0.066670   0.006745   0.001984   0.002150
   45  N  6  X    0.006039  -0.010440   0.004810   0.001356   0.002523
   46  N  6  Y    0.006316   0.004455   0.005171  -0.001610   0.000010
   47  N  6  Z    0.005355   0.004334   0.004326  -0.001503  -0.000208
   48  O  7  S    0.983836  -0.000007   0.000208   0.000052  -0.000005
   49  O  7  S    0.100573  -0.000419   0.001967   0.000206  -0.000100
   50  O  7  X   -0.000444  -0.000553  -0.000423   0.000363  -0.000049
   51  O  7  Y    0.003542  -0.000178  -0.000250  -0.000126  -0.000050
   52  O  7  Z    0.003097  -0.000114  -0.000178  -0.000075  -0.000132
   53  O  7  S   -0.059117   0.002183  -0.005776  -0.001834   0.000183
   54  O  7  X    0.001664   0.004255   0.003283  -0.002916  -0.000227
   55  O  7  Y   -0.012435   0.000271  -0.003694  -0.000818   0.000224
   56  O  7  Z   -0.010888   0.000004  -0.003453  -0.000732   0.000475
   57  H  8  S   -0.000162  -0.000452  -0.000322  -0.001456   0.001058
   58  H  8  S    0.000162  -0.000032   0.000290   0.000686   0.014490
   59  H  9  S    0.000211  -0.000407  -0.000338  -0.001334   0.001042
   60  H  9  S    0.000180  -0.000557   0.000346   0.000971   0.014414
   61  H 10  S   -0.000838   0.000423  -0.001631   0.000966  -0.001301
   62  H 10  S   -0.001434   0.000205   0.001854   0.014065   0.000835
   63  H 11  S   -0.000270   0.000203  -0.001619   0.001190  -0.001327
   64  H 11  S   -0.000590  -0.000835   0.002589   0.014472   0.000880
   65  H 12  S   -0.002425   0.001017  -0.002406   0.000231  -0.000501
   66  H 12  S   -0.001387   0.006909  -0.001067   0.000541   0.000957
   67  H 13  S    0.002248   0.001531   0.001058  -0.000342   0.000248
   68  H 13  S    0.001246   0.006365   0.002208   0.001537   0.000662
   69  H 14  S    0.000214  -0.000294  -0.000038  -0.000231  -0.001059
   70  H 14  S    0.000860  -0.000337   0.001179   0.001426  -0.000109
   71  H 15  S    0.000015  -0.000160  -0.000381   0.000099  -0.001347
   72  H 15  S    0.000182   0.000185  -0.000480  -0.001135   0.000316

                      6          7          8          9         10
                  -11.1593    -1.3701    -1.1981    -1.0693    -0.9603
                     A          A          A          A          A   
    1  C  1  S    0.987394  -0.000915  -0.000987  -0.094692  -0.148738
    2  C  1  S    0.101638   0.001168   0.003822   0.096001   0.139070
    3  C  1  X   -0.000145  -0.002107  -0.000787  -0.040992  -0.002131
    4  C  1  Y    0.000117  -0.000242  -0.000227  -0.017632  -0.010239
    5  C  1  Z    0.000071  -0.000159  -0.000058  -0.010955  -0.006152
    6  C  1  S   -0.080390   0.007579  -0.016952   0.219312   0.438667
    7  C  1  X    0.004258   0.000991   0.007770   0.001341  -0.004783
    8  C  1  Y    0.001701  -0.002670   0.006339   0.002309  -0.005171
    9  C  1  Z    0.001132  -0.002182   0.003954   0.001183  -0.002667
   10  H  2  S    0.000306   0.000496   0.001273   0.045659   0.081063
   11  H  2  S    0.014294   0.000188  -0.000112   0.000933   0.009061
   12  C  3  S    0.014865  -0.006514  -0.003494  -0.143225  -0.049069
   13  C  3  S   -0.000351   0.008556   0.004755   0.137593   0.043146
   14  C  3  X   -0.000018  -0.005461  -0.006025  -0.016074   0.103456
   15  C  3  Y   -0.000086   0.001192   0.001265   0.031727   0.005854
   16  C  3  Z   -0.000036  -0.000070   0.001176   0.018737   0.005048
   17  C  3  S    0.017197  -0.007313   0.018962   0.354745   0.153034
   18  C  3  X    0.010012  -0.000942   0.020389   0.005753   0.000077
   19  C  3  Y    0.005889  -0.011870   0.014095   0.009503   0.005184
   20  C  3  Z    0.003396  -0.004728   0.006818   0.006595   0.002778
   21  C  4  S    0.005659  -0.021993  -0.024502  -0.136851   0.125524
   22  C  4  S   -0.000200   0.022577   0.024494   0.129685  -0.111331
   23  C  4  X   -0.000966  -0.017079  -0.021051   0.032295   0.063812
   24  C  4  Y   -0.000322  -0.013038  -0.000388  -0.021804   0.002306
   25  C  4  Z   -0.000275  -0.009957   0.000579  -0.014018   0.004279
   26  C  4  S   -0.001263   0.010313   0.059639   0.369020  -0.405028
   27  C  4  X    0.003225   0.037775  -0.022333  -0.011834   0.008118
   28  C  4  Y    0.002555  -0.001297   0.008801  -0.013047   0.006325
   29  C  4  Z    0.002236  -0.005952   0.011993  -0.011785   0.006388
   30  C  5  S    0.000564  -0.131317  -0.046029  -0.021814   0.053612
   31  C  5  S   -0.000961   0.148483   0.059519   0.031135  -0.064164
   32  C  5  X   -0.000311  -0.013773  -0.098910   0.075104  -0.085099
   33  C  5  Y   -0.000008  -0.094591   0.105072   0.040231  -0.064381
   34  C  5  Z   -0.000054  -0.082315   0.095494   0.032252  -0.050643
   35  C  5  S    0.004095   0.149572   0.038721   0.022392  -0.111650
   36  C  5  X    0.004860   0.026999   0.033577  -0.010633  -0.025120
   37  C  5  Y    0.000296   0.063787  -0.008899   0.011095  -0.038050
   38  C  5  Z    0.000223   0.054267  -0.009486   0.010155  -0.031100
   39  N  6  S   -0.000031  -0.057377  -0.202509   0.034367  -0.040185
   40  N  6  S   -0.000289   0.053025   0.181824  -0.029146   0.035098
   41  N  6  X   -0.000108   0.028328   0.033175   0.019188  -0.058815
   42  N  6  Y    0.000101  -0.015718  -0.004443   0.006478  -0.005828
   43  N  6  Z    0.000108  -0.014977  -0.005552   0.004835  -0.002305
   44  N  6  S    0.001464   0.144288   0.642865  -0.122172   0.147698
   45  N  6  X    0.000683   0.005158   0.055392   0.001286  -0.035120
   46  N  6  Y   -0.000828  -0.034150  -0.011652   0.008728  -0.003402
   47  N  6  Z   -0.000820  -0.030194  -0.012716   0.007974  -0.001498
   48  O  7  S    0.000006  -0.198171   0.088064   0.025175  -0.028959
   49  O  7  S   -0.000013   0.181828  -0.082804  -0.024845   0.029581
   50  O  7  X   -0.000001  -0.008373  -0.011331   0.019714  -0.023049
   51  O  7  Y    0.000003   0.086199  -0.021253  -0.001015  -0.009132
   52  O  7  Z   -0.000017   0.075548  -0.018178  -0.001467  -0.006289
   53  O  7  S   -0.000575   0.638607  -0.296113  -0.080557   0.094470
   54  O  7  X   -0.000488  -0.017283  -0.016601   0.019378  -0.017304
   55  O  7  Y   -0.000275   0.098896  -0.027673  -0.001866  -0.007720
   56  O  7  Z   -0.000181   0.087037  -0.023309  -0.002330  -0.005831
   57  H  8  S   -0.001095   0.003467   0.002299   0.066009   0.024023
   58  H  8  S    0.001048   0.002553  -0.003377  -0.006210   0.003099
   59  H  9  S   -0.001086   0.002451   0.002662   0.065934   0.024990
   60  H  9  S    0.001261  -0.000418   0.000129  -0.005309   0.003255
   61  H 10  S   -0.000199   0.009038   0.011526   0.065770  -0.070895
   62  H 10  S   -0.001421  -0.002157  -0.002797   0.000131  -0.005621
   63  H 11  S   -0.000204   0.008103   0.010895   0.066168  -0.069878
   64  H 11  S   -0.001033  -0.005610  -0.000469  -0.001439  -0.003805
   65  H 12  S    0.000053   0.025102   0.101466  -0.015689   0.022904
   66  H 12  S    0.000622   0.004212   0.019020  -0.007799   0.008583
   67  H 13  S   -0.000199   0.015918   0.093910  -0.026988   0.050041
   68  H 13  S    0.000333  -0.001902   0.015598  -0.012152   0.021526
   69  H 14  S    0.000187   0.000016   0.001237   0.042205   0.085600
   70  H 14  S    0.013700  -0.003501   0.000624  -0.003717   0.016060
   71  H 15  S    0.000313   0.000411   0.001201   0.045655   0.081068
   72  H 15  S    0.014357  -0.000043   0.000086   0.001147   0.008858

                     11         12         13         14         15
                   -0.8312    -0.7686    -0.7107    -0.6551    -0.6454
                     A          A          A          A          A   
    1  C  1  S    0.107363  -0.024568  -0.004626   0.012901   0.008527
    2  C  1  S   -0.095788   0.019448   0.002913  -0.010686  -0.006858
    3  C  1  X   -0.076931   0.024457   0.027704  -0.067877  -0.048421
    4  C  1  Y   -0.052005   0.045290  -0.024939  -0.048836   0.045906
    5  C  1  Z   -0.031790   0.026702  -0.014825   0.042824  -0.108043
    6  C  1  S   -0.388125   0.113584   0.017786  -0.059343  -0.041036
    7  C  1  X   -0.018659  -0.004500   0.018171  -0.046460  -0.032953
    8  C  1  Y   -0.020585   0.020434  -0.017507  -0.030553   0.037660
    9  C  1  Z   -0.012101   0.012260  -0.009743   0.034082  -0.076686
   10  H  2  S   -0.086403   0.033201  -0.007341   0.016409  -0.074259
   11  H  2  S   -0.033178   0.019644  -0.007883   0.016158  -0.059017
   12  C  3  S   -0.126712   0.065779  -0.012873  -0.019498  -0.014594
   13  C  3  S    0.108404  -0.058207   0.009949   0.014314   0.011129
   14  C  3  X   -0.049156  -0.027707   0.030232   0.041422   0.035028
   15  C  3  Y   -0.056018   0.071870  -0.066910  -0.023385   0.114620
   16  C  3  Z   -0.033744   0.041053  -0.041589   0.113029  -0.144467
   17  C  3  S    0.467238  -0.257366   0.068934   0.087433   0.066048
   18  C  3  X   -0.024433  -0.030556   0.004721   0.019924   0.020564
   19  C  3  Y   -0.012727   0.029624  -0.039561  -0.006933   0.092882
   20  C  3  Z   -0.008275   0.017826  -0.025424   0.090065  -0.104807
   21  C  4  S    0.020411  -0.071073   0.046081  -0.002468   0.002312
   22  C  4  S   -0.017802   0.057278  -0.036786  -0.001430  -0.003942
   23  C  4  X    0.119904   0.028185  -0.092570   0.071688   0.048262
   24  C  4  Y   -0.039153   0.083221  -0.079758   0.050019   0.186559
   25  C  4  Z   -0.019459   0.051676  -0.048189   0.192619  -0.126979
   26  C  4  S   -0.087392   0.307553  -0.198953   0.055429   0.016280
   27  C  4  X    0.029339  -0.010931  -0.065585  -0.006390   0.002916
   28  C  4  Y   -0.020499   0.046106  -0.042661   0.030326   0.147498
   29  C  4  Z   -0.010287   0.024661  -0.023856   0.149056  -0.105863
   30  C  5  S    0.075137   0.100912  -0.018026   0.047795   0.026109
   31  C  5  S   -0.088256  -0.123288   0.015247  -0.058906  -0.032633
   32  C  5  X    0.012674   0.134121   0.119582  -0.211519  -0.126356
   33  C  5  Y   -0.061649  -0.033347   0.057203   0.024042   0.103172
   34  C  5  Z   -0.048770  -0.039996   0.050670   0.098500  -0.039097
   35  C  5  S   -0.187033  -0.263561   0.080810  -0.167690  -0.091184
   36  C  5  X   -0.016045   0.003858   0.090284  -0.154800  -0.089685
   37  C  5  Y   -0.055917  -0.056425   0.030531  -0.074359   0.026648
   38  C  5  Z   -0.044213  -0.051674   0.027330  -0.004398  -0.079291
   39  N  6  S   -0.035101  -0.025357   0.000796  -0.001509  -0.002885
   40  N  6  S    0.030581   0.022996  -0.003016   0.003173   0.003363
   41  N  6  X   -0.141891  -0.208618   0.126907   0.184209   0.111918
   42  N  6  Y    0.024130   0.130649   0.228336   0.004334   0.061585
   43  N  6  Z    0.028420   0.120478   0.199375   0.041379  -0.039269
   44  N  6  S    0.137283   0.095228   0.003346   0.007066   0.013899
   45  N  6  X   -0.111965  -0.174676   0.130243   0.197615   0.119619
   46  N  6  Y    0.025400   0.130337   0.216444   0.021072   0.073415
   47  N  6  Z    0.027882   0.118959   0.188636   0.057022  -0.033295
   48  O  7  S   -0.026257  -0.060803  -0.014120  -0.057722  -0.031244
   49  O  7  S    0.027598   0.058878   0.012101   0.054792   0.029926
   50  O  7  X    0.013119   0.044330   0.094364  -0.123766  -0.067734
   51  O  7  Y   -0.025582  -0.058846  -0.016973  -0.147503  -0.025320
   52  O  7  Z   -0.019900  -0.056533  -0.014953  -0.075894  -0.116172
   53  O  7  S    0.088122   0.226657   0.056431   0.224048   0.120809
   54  O  7  X    0.016800   0.047355   0.086405  -0.108542  -0.059623
   55  O  7  Y   -0.025229  -0.052742  -0.014542  -0.144855  -0.023904
   56  O  7  Z   -0.020445  -0.051472  -0.012614  -0.073874  -0.117173
   57  H  8  S    0.096284  -0.068910   0.036881  -0.056565   0.093524
   58  H  8  S    0.032044  -0.021423   0.026367  -0.035859   0.068453
   59  H  9  S    0.096975  -0.071177   0.035470   0.054138  -0.092340
   60  H  9  S    0.033230  -0.029652   0.023680   0.040460  -0.068493
   61  H 10  S   -0.028409   0.077993  -0.059068   0.123641  -0.082556
   62  H 10  S   -0.012441   0.044303  -0.029665   0.099448  -0.062774
   63  H 11  S   -0.028816   0.080343  -0.067720  -0.013714   0.141416
   64  H 11  S   -0.012076   0.042824  -0.038287  -0.005218   0.113909
   65  H 12  S    0.048417   0.133339   0.187342   0.017280   0.012222
   66  H 12  S    0.025927   0.081493   0.119226   0.011218   0.006713
   67  H 13  S    0.081284   0.072556  -0.166551  -0.110757  -0.068665
   68  H 13  S    0.042775   0.048204  -0.097999  -0.070396  -0.045173
   69  H 14  S   -0.082866   0.010876   0.025541  -0.037949  -0.026265
   70  H 14  S   -0.031426   0.005641   0.017976  -0.025702  -0.018259
   71  H 15  S   -0.086332   0.033780  -0.007622  -0.049431   0.049773
   72  H 15  S   -0.032995   0.020618  -0.007797  -0.036651   0.042539

                     16         17         18         19         20
                   -0.5857    -0.5746    -0.5575    -0.5154    -0.4915
                     A          A          A          A          A   
    1  C  1  S   -0.002422   0.001108  -0.002578   0.000117   0.022218
    2  C  1  S    0.000369  -0.000491   0.000326  -0.000307  -0.018737
    3  C  1  X    0.175736  -0.006037  -0.054582   0.011090   0.282276
    4  C  1  Y   -0.125755  -0.144702   0.156926  -0.122373   0.126651
    5  C  1  Z   -0.073436   0.179873   0.151338   0.148261   0.078324
    6  C  1  S    0.020697  -0.008678   0.022233   0.001768  -0.080983
    7  C  1  X    0.132370  -0.002010  -0.055094   0.008592   0.240350
    8  C  1  Y   -0.107782  -0.116364   0.127907  -0.107688   0.100959
    9  C  1  Z   -0.062461   0.146359   0.124689   0.129292   0.061723
   10  H  2  S   -0.054740   0.116466   0.117298   0.103830   0.050802
   11  H  2  S   -0.045487   0.103907   0.105615   0.101366   0.066609
   12  C  3  S    0.015090  -0.002206  -0.000945   0.001141   0.008518
   13  C  3  S   -0.011984   0.001697   0.001391  -0.000934  -0.006058
   14  C  3  X    0.053686   0.029288  -0.126963   0.002547  -0.277183
   15  C  3  Y   -0.136680  -0.076089   0.014507   0.039992  -0.139573
   16  C  3  Z   -0.083056   0.118534   0.025296  -0.044078  -0.084266
   17  C  3  S   -0.048583   0.010482  -0.002731  -0.006444  -0.034991
   18  C  3  X    0.026644   0.023479  -0.106415  -0.000156  -0.197185
   19  C  3  Y   -0.103716  -0.067948   0.010366   0.028783  -0.124963
   20  C  3  Z   -0.061570   0.111808   0.025564  -0.038546  -0.076977
   21  C  4  S   -0.015202   0.002587   0.003521  -0.002747  -0.021571
   22  C  4  S    0.010077  -0.002753   0.001816   0.002021   0.009203
   23  C  4  X   -0.151090  -0.004647   0.012802   0.017955   0.143452
   24  C  4  Y    0.034175   0.092971  -0.133528   0.109017  -0.006896
   25  C  4  Z    0.022388  -0.086338  -0.118169  -0.156933  -0.014744
   26  C  4  S    0.079767  -0.009990  -0.036060   0.016368   0.150887
   27  C  4  X   -0.134252  -0.001205   0.000931   0.016221   0.120184
   28  C  4  Y    0.037101   0.077719  -0.099141   0.116894  -0.033333
   29  C  4  Z    0.027602  -0.076227  -0.089048  -0.167145  -0.033123
   30  C  5  S    0.027704  -0.004690   0.015017   0.001645   0.023097
   31  C  5  S   -0.047005   0.007189  -0.031627  -0.001922  -0.015724
   32  C  5  X    0.041945  -0.004832   0.031407  -0.003655  -0.115521
   33  C  5  Y    0.151405   0.090946   0.180999  -0.111467  -0.064752
   34  C  5  Z    0.115051  -0.159323   0.132046   0.129057  -0.060281
   35  C  5  S   -0.042339   0.010317   0.000351  -0.005574  -0.124396
   36  C  5  X    0.040311  -0.009010   0.057862  -0.004393  -0.161690
   37  C  5  Y    0.027773   0.108839   0.046177  -0.130931  -0.047496
   38  C  5  Z    0.008812  -0.130358   0.013391   0.147454  -0.044340
   39  N  6  S    0.000093   0.001646  -0.012166  -0.001651  -0.002678
   40  N  6  S   -0.000179  -0.001067   0.008107   0.001702   0.006155
   41  N  6  X   -0.050399  -0.008948   0.031312   0.015422   0.050250
   42  N  6  Y   -0.076815   0.123512  -0.049253  -0.141727   0.037498
   43  N  6  Z   -0.080090  -0.111611  -0.071024   0.165456   0.014819
   44  N  6  S    0.010483  -0.010669   0.074804   0.006009  -0.014563
   45  N  6  X   -0.040569  -0.013734   0.049685   0.015312   0.047192
   46  N  6  Y   -0.070125   0.133576  -0.042306  -0.160194   0.051053
   47  N  6  Z   -0.075677  -0.125203  -0.068888   0.189115   0.022966
   48  O  7  S   -0.051145   0.008645  -0.047402  -0.000627   0.010740
   49  O  7  S    0.047342  -0.008051   0.044300   0.000723  -0.008931
   50  O  7  X    0.047485  -0.015181   0.091556   0.000168  -0.143883
   51  O  7  Y   -0.164002   0.133922  -0.175801  -0.130501   0.033090
   52  O  7  Z   -0.157287  -0.087116  -0.179960   0.140809   0.029022
   53  O  7  S    0.211171  -0.035825   0.195837   0.002445  -0.047200
   54  O  7  X    0.044454  -0.015446   0.091700   0.001386  -0.141829
   55  O  7  Y   -0.172461   0.140077  -0.189073  -0.141124   0.036878
   56  O  7  Z   -0.164872  -0.090634  -0.192732   0.151879   0.032173
   57  H  8  S    0.051578  -0.072050  -0.017383   0.027715   0.062009
   58  H  8  S    0.061355  -0.051570   0.003524   0.015890   0.045648
   59  H  9  S    0.051171   0.080088  -0.001617  -0.040331   0.065381
   60  H  9  S    0.052417   0.056671   0.002597  -0.030349   0.060432
   61  H 10  S    0.031233  -0.059507  -0.094361  -0.114106   0.001752
   62  H 10  S    0.017215  -0.054307  -0.090021  -0.097310   0.007924
   63  H 11  S    0.024782   0.080017  -0.062327   0.121502   0.019966
   64  H 11  S    0.013813   0.073739  -0.058490   0.100728   0.028361
   65  H 12  S   -0.083163   0.014037  -0.065033   0.002628   0.035767
   66  H 12  S   -0.068282   0.011520  -0.063247  -0.000001   0.034318
   67  H 13  S    0.076607  -0.006493   0.026432  -0.006111  -0.048046
   68  H 13  S    0.069895  -0.006873   0.030248  -0.005902  -0.047483
   69  H 14  S    0.158036   0.008614  -0.117662   0.019539   0.096047
   70  H 14  S    0.137718   0.007088  -0.104229   0.019246   0.105189
   71  H 15  S   -0.056550  -0.142808   0.060599  -0.128471   0.050861
   72  H 15  S   -0.046589  -0.126550   0.054068  -0.125046   0.066671

                     21         22         23         24         25
                   -0.4785    -0.4691    -0.4037    -0.3931     0.2042
                     A          A          A          A          A   
    1  C  1  S   -0.007189  -0.000432   0.007114   0.001091   0.001895
    2  C  1  S    0.007753  -0.000067  -0.008583  -0.000031  -0.001164
    3  C  1  X    0.071982  -0.002661   0.050286   0.005324  -0.006734
    4  C  1  Y   -0.166784   0.087388  -0.004262   0.009292  -0.019752
    5  C  1  Z   -0.106185  -0.151182  -0.010307  -0.008917   0.016173
    6  C  1  S    0.028232   0.004046   0.009925  -0.011594  -0.026869
    7  C  1  X    0.083758  -0.004162   0.038012   0.008701  -0.039021
    8  C  1  Y   -0.154266   0.086426  -0.026246   0.008521  -0.070820
    9  C  1  Z   -0.097819  -0.149153  -0.021638  -0.000754   0.065428
   10  H  2  S   -0.090517  -0.122019  -0.015300  -0.007789   0.009766
   11  H  2  S   -0.105828  -0.139020  -0.011926  -0.014409  -0.038139
   12  C  3  S   -0.007313   0.000916   0.004903   0.000127   0.012099
   13  C  3  S    0.009799  -0.000570  -0.009833   0.002333  -0.001383
   14  C  3  X   -0.121438   0.003476  -0.041267  -0.005642   0.013995
   15  C  3  Y    0.216334  -0.137555   0.007679  -0.019073  -0.005245
   16  C  3  Z    0.134309   0.234643   0.023391   0.023381  -0.007030
   17  C  3  S   -0.017770  -0.007949  -0.013257  -0.012894  -0.154659
   18  C  3  X   -0.084580   0.000005  -0.123430   0.011521   0.037794
   19  C  3  Y    0.188037  -0.146126  -0.020397  -0.012375   0.048675
   20  C  3  Z    0.118934   0.245316   0.011234   0.027613  -0.118674
   21  C  4  S   -0.029764  -0.000432   0.025190   0.000475   0.001716
   22  C  4  S    0.024681   0.000265  -0.007606  -0.001310  -0.002895
   23  C  4  X    0.178350  -0.003164   0.160894   0.004719   0.004180
   24  C  4  Y   -0.172124   0.081066   0.106536   0.004075  -0.025068
   25  C  4  Z   -0.094573  -0.138682   0.076163  -0.001344   0.037289
   26  C  4  S    0.140490   0.004938  -0.248942  -0.000226  -0.012590
   27  C  4  X    0.157670  -0.002775   0.191981   0.013743   0.048609
   28  C  4  Y   -0.170697   0.088487   0.168983  -0.011353  -0.269797
   29  C  4  Z   -0.090579  -0.151102   0.111908  -0.012973   0.337978
   30  C  5  S    0.003628  -0.001290   0.017139   0.000652  -0.002317
   31  C  5  S   -0.004426  -0.000108  -0.016360  -0.000640  -0.002480
   32  C  5  X   -0.012863   0.012285  -0.124502  -0.006113   0.015470
   33  C  5  Y    0.037208  -0.012275  -0.050418   0.046970  -0.258758
   34  C  5  Z    0.016135   0.034362  -0.036287  -0.056267   0.298306
   35  C  5  S   -0.014530   0.012632  -0.090314  -0.006328   0.048782
   36  C  5  X   -0.034900  -0.001005   0.151992  -0.004941   0.022074
   37  C  5  Y    0.013314  -0.033630  -0.024899   0.074986  -0.385818
   38  C  5  Z   -0.011797   0.052084  -0.023605  -0.085984   0.464320
   39  N  6  S   -0.008412   0.000267  -0.039261  -0.001249  -0.003347
   40  N  6  S    0.007794   0.000712   0.017244   0.000848   0.001687
   41  N  6  X    0.038938  -0.001652   0.123176   0.013746  -0.007618
   42  N  6  Y    0.019691  -0.026254  -0.046054  -0.245231   0.113642
   43  N  6  Z   -0.011313   0.034897  -0.058706   0.275632  -0.116063
   44  N  6  S    0.031582  -0.007379   0.304509   0.007308   0.027186
   45  N  6  X    0.042445  -0.006879   0.195158   0.019728  -0.026890
   46  N  6  Y    0.027770  -0.024195  -0.076692  -0.343096   0.232740
   47  N  6  Z   -0.008356   0.037619  -0.094142   0.387006  -0.223216
   48  O  7  S   -0.008568  -0.002802  -0.000344  -0.000027   0.000292
   49  O  7  S    0.008629   0.002476   0.000456  -0.000135   0.000086
   50  O  7  X   -0.033187  -0.007321   0.442102   0.000791  -0.010762
   51  O  7  Y   -0.032740  -0.061299   0.045602   0.216140   0.178814
   52  O  7  Z   -0.055361   0.047973   0.033447  -0.246633  -0.205731
   53  O  7  S    0.034434   0.012600   0.003337   0.001235  -0.003356
   54  O  7  X   -0.034064  -0.007925   0.507552   0.000737  -0.016864
   55  O  7  Y   -0.036427  -0.069775   0.055295   0.266612   0.298584
   56  O  7  Z   -0.061974   0.054959   0.041725  -0.303564  -0.347450
   57  H  8  S   -0.112545  -0.176806  -0.018762  -0.015615   0.002517
   58  H  8  S   -0.116022  -0.177696   0.022216   0.008801   0.015911
   59  H  9  S   -0.108542   0.174441  -0.001401   0.022237  -0.004619
   60  H  9  S   -0.119176   0.180778   0.017106   0.005125   0.060722
   61  H 10  S   -0.067466  -0.117300   0.040710   0.000353  -0.079944
   62  H 10  S   -0.091084  -0.134285   0.055170   0.035379  -0.487724
   63  H 11  S   -0.078740   0.109722   0.043476   0.001323   0.094374
   64  H 11  S   -0.099468   0.124994   0.056016  -0.019345   0.583099
   65  H 12  S    0.005983   0.001156  -0.036098  -0.000845  -0.001833
   66  H 12  S   -0.001224  -0.002422  -0.028380  -0.001159  -0.047063
   67  H 13  S   -0.021740   0.000946  -0.033658  -0.001164  -0.002540
   68  H 13  S   -0.018672   0.001434  -0.067813  -0.002124  -0.013016
   69  H 14  S    0.146540  -0.000405   0.034594   0.001511  -0.000222
   70  H 14  S    0.146416  -0.000062   0.039840   0.001705   0.018494
   71  H 15  S   -0.084323   0.119387  -0.005197   0.010008  -0.011058
   72  H 15  S   -0.099112   0.135501   0.002703   0.016497   0.095027

                     26         27         28         29         30
                    0.2534     0.2662     0.3010     0.3151     0.3374
                     A          A          A          A          A   
    1  C  1  S   -0.031976  -0.087695   0.076356  -0.006771   0.052219
    2  C  1  S    0.005352   0.022732  -0.026383  -0.000292  -0.005718
    3  C  1  X    0.027731   0.052151  -0.044749  -0.004137   0.103244
    4  C  1  Y    0.035248   0.050983   0.060708   0.106032  -0.124297
    5  C  1  Z    0.021450   0.036645   0.038688  -0.133271  -0.115486
    6  C  1  S    0.478268   1.225904  -0.980983   0.105483  -0.744083
    7  C  1  X    0.126845   0.308649  -0.264941  -0.027086   0.553275
    8  C  1  Y    0.173058   0.260827   0.271295   0.407818  -0.516743
    9  C  1  Z    0.098757   0.181447   0.164299  -0.525464  -0.490177
   10  H  2  S    0.006058   0.002016  -0.017394   0.029868   0.031648
   11  H  2  S   -0.277681  -0.682170   0.128969   0.667542   0.999016
   12  C  3  S   -0.017254  -0.076021   0.010253   0.016183  -0.077523
   13  C  3  S    0.006856   0.012820   0.000445  -0.001930   0.011323
   14  C  3  X    0.041381  -0.042888   0.002663   0.008837   0.029939
   15  C  3  Y   -0.045550  -0.029074   0.060235   0.098004  -0.066435
   16  C  3  Z   -0.019542  -0.007450   0.048291  -0.131225  -0.059999
   17  C  3  S    0.251146   1.127669  -0.195998  -0.224436   1.104904
   18  C  3  X    0.138745  -0.284477   0.168983   0.028244   0.090916
   19  C  3  Y   -0.277891  -0.186763   0.146221   0.341712  -0.161871
   20  C  3  Z   -0.134259  -0.093974   0.134106  -0.485718  -0.164367
   21  C  4  S   -0.086114  -0.033269  -0.019815  -0.013269   0.005712
   22  C  4  S    0.023431   0.012279  -0.010556   0.000974   0.011070
   23  C  4  X   -0.021233  -0.027961   0.044652   0.008969   0.039097
   24  C  4  Y    0.078218   0.061951   0.099804   0.118379  -0.023049
   25  C  4  Z    0.071551   0.039970   0.086285  -0.139195  -0.025967
   26  C  4  S    1.123387   0.449631   0.443444   0.197718  -0.200857
   27  C  4  X    0.082511  -0.431123   0.259704   0.065777  -0.012549
   28  C  4  Y    0.325024   0.419781   0.445214   0.433503  -0.072555
   29  C  4  Z    0.280832   0.289389   0.383441  -0.498790  -0.084273
   30  C  5  S    0.020391   0.015513  -0.034652  -0.001097   0.018277
   31  C  5  S   -0.002585   0.014276   0.028859   0.002272   0.000719
   32  C  5  X    0.045701  -0.081080   0.030003   0.008459   0.004429
   33  C  5  Y   -0.007996  -0.020360   0.077069  -0.053392  -0.003868
   34  C  5  Z   -0.019280   0.026145   0.053691   0.064269   0.005419
   35  C  5  S   -0.089801  -0.341127   0.353491   0.007776  -0.255871
   36  C  5  X   -0.011775   0.000003   0.178314   0.037082   0.008542
   37  C  5  Y    0.084849  -0.142860   0.205854  -0.181181   0.053047
   38  C  5  Z    0.051423  -0.045014   0.146771   0.212335   0.059477
   39  N  6  S   -0.103658   0.070130   0.052778  -0.001404   0.000961
   40  N  6  S    0.041890  -0.032808  -0.022067   0.000986   0.000141
   41  N  6  X   -0.057754   0.060011   0.092662  -0.000555   0.088945
   42  N  6  Y    0.065329  -0.033589   0.094058   0.030815   0.076491
   43  N  6  Z    0.067869  -0.041003   0.088797  -0.046935   0.059924
   44  N  6  S    1.009309  -0.634885  -0.523352   0.015697  -0.027600
   45  N  6  X   -0.247577   0.283257   0.318878  -0.001348   0.301463
   46  N  6  Y    0.220201  -0.123914   0.315879   0.050698   0.261417
   47  N  6  Z    0.217107  -0.147610   0.281804  -0.100988   0.212448
   48  O  7  S   -0.018677  -0.005162  -0.007627  -0.000747  -0.016960
   49  O  7  S    0.013111   0.003301  -0.002261   0.000643   0.010264
   50  O  7  X   -0.029577   0.054944   0.006559   0.000433   0.023124
   51  O  7  Y    0.027127   0.036278   0.022093   0.045757   0.030075
   52  O  7  Z    0.029359  -0.000609   0.027730  -0.059063   0.017979
   53  O  7  S    0.148882   0.028595   0.096421   0.003851   0.155070
   54  O  7  X   -0.030521   0.065289  -0.016174  -0.004787   0.016459
   55  O  7  Y    0.065030   0.068943   0.042637   0.086834   0.078777
   56  O  7  Z    0.068671   0.005772   0.054089  -0.106328   0.056455
   57  H  8  S    0.011040   0.000549   0.025121  -0.059680  -0.032094
   58  H  8  S   -0.194478  -0.467548   0.355726  -0.674519  -0.768878
   59  H  9  S    0.004532   0.002057   0.014607   0.067090  -0.011328
   60  H  9  S   -0.272290  -0.524129   0.244353   0.948156  -0.592528
   61  H 10  S    0.017804  -0.020786  -0.042422   0.003100   0.011025
   62  H 10  S   -0.751106  -0.541688  -0.660134   0.582528   0.207952
   63  H 11  S    0.015381  -0.000474  -0.038800  -0.005292   0.016407
   64  H 11  S   -0.646598  -0.440748  -0.529308  -0.853274   0.136983
   65  H 12  S   -0.039975   0.030258  -0.010112   0.002085  -0.025311
   66  H 12  S   -0.977985   0.603721  -0.362478   0.026342  -0.486214
   67  H 13  S   -0.036517   0.039906   0.059731   0.000093   0.030365
   68  H 13  S   -0.538862   0.508227   1.039416  -0.023220   0.645870
   69  H 14  S   -0.013361  -0.003372   0.026180   0.001093  -0.047423
   70  H 14  S   -0.206555  -0.518812   0.901461   0.049855  -0.817614
   71  H 15  S    0.006138   0.001919  -0.015760  -0.032720   0.016256
   72  H 15  S   -0.276628  -0.635524   0.146361  -0.866704   0.660459

                     31         32         33         34         35
                    0.3426     0.3578     0.3667     0.3918     0.4157
                     A          A          A          A          A   
    1  C  1  S   -0.104368   0.031630  -0.010882   0.007684  -0.049460
    2  C  1  S    0.023795  -0.008876   0.002440   0.000240  -0.008380
    3  C  1  X    0.039477  -0.118782   0.022498  -0.015374   0.012690
    4  C  1  Y    0.032002   0.119845   0.091753  -0.032064  -0.029452
    5  C  1  Z    0.015206  -0.000307  -0.197848   0.035262  -0.011979
    6  C  1  S    1.463030  -0.396454   0.143906  -0.124051   0.828924
    7  C  1  X    0.061105  -0.670954   0.125684   0.001538  -0.500308
    8  C  1  Y    0.101006   0.772020   0.484401  -0.312330  -0.046685
    9  C  1  Z    0.052474   0.088290  -1.138233   0.358046   0.042473
   10  H  2  S   -0.013341  -0.011357   0.057804   0.030477   0.014199
   11  H  2  S   -0.665207   0.040341   1.223018  -0.182397  -0.226801
   12  C  3  S    0.035521  -0.095194   0.024886  -0.009140   0.094244
   13  C  3  S   -0.007684   0.025293  -0.006918  -0.001158  -0.000257
   14  C  3  X   -0.057343  -0.026596  -0.007095  -0.028069   0.102714
   15  C  3  Y    0.027446  -0.086730  -0.017386   0.147580  -0.154668
   16  C  3  Z   -0.003942  -0.050693   0.090957  -0.185006  -0.133377
   17  C  3  S   -0.504995   1.333822  -0.356238   0.138183  -1.403091
   18  C  3  X   -0.358451  -0.093425  -0.049318  -0.170727   0.636678
   19  C  3  Y    0.232697  -0.620189  -0.102126   0.856709  -1.065522
   20  C  3  Z    0.038793  -0.329823   0.548903  -1.083953  -0.872584
   21  C  4  S    0.085974   0.075515  -0.013070  -0.002636  -0.050325
   22  C  4  S   -0.031191  -0.023505   0.005302   0.005748   0.000780
   23  C  4  X    0.027799  -0.043745  -0.002524  -0.044252   0.213287
   24  C  4  Y   -0.040232  -0.060180  -0.073951  -0.108721  -0.068150
   25  C  4  Z   -0.009371  -0.004894   0.133041   0.187028   0.013704
   26  C  4  S   -1.188518  -0.965801   0.159484  -0.009455   0.913048
   27  C  4  X   -0.033572   0.070540  -0.075019  -0.308481   1.536490
   28  C  4  Y   -0.308193  -0.101621  -0.345290  -0.546579  -0.295711
   29  C  4  Z   -0.107339   0.107487   0.560509   0.993161   0.111715
   30  C  5  S   -0.000033  -0.011016  -0.002394   0.014022  -0.067263
   31  C  5  S   -0.031597  -0.001914  -0.002181  -0.008627   0.017412
   32  C  5  X    0.037166   0.053120  -0.028507  -0.037008   0.046994
   33  C  5  Y    0.023311   0.020410   0.037538   0.090609   0.047421
   34  C  5  Z   -0.008460   0.002368  -0.048147  -0.114710  -0.024446
   35  C  5  S    0.101813   0.223838   0.029446  -0.176185   1.035896
   36  C  5  X    0.034008   0.137455  -0.068446  -0.062357   0.244574
   37  C  5  Y    0.067208   0.205704   0.101802   0.216597   0.067574
   38  C  5  Z   -0.009810   0.109418  -0.205844  -0.293377  -0.112499
   39  N  6  S   -0.014245  -0.013957   0.009128   0.000562   0.026389
   40  N  6  S    0.005102   0.004287  -0.003479  -0.002393  -0.000561
   41  N  6  X    0.070385  -0.027457  -0.010739  -0.012516   0.057854
   42  N  6  Y    0.116745   0.001244  -0.043696  -0.058705   0.002308
   43  N  6  Z    0.109448   0.014243   0.024706   0.042469   0.019743
   44  N  6  S    0.132960   0.130139  -0.088311   0.013502  -0.339835
   45  N  6  X    0.245286  -0.093239  -0.047594  -0.019900   0.031658
   46  N  6  Y    0.427938   0.001317  -0.092496  -0.121020  -0.016848
   47  N  6  Z    0.390010   0.025496   0.028534   0.065933   0.033421
   48  O  7  S    0.002936  -0.008593   0.005003  -0.008560   0.038103
   49  O  7  S   -0.004375   0.003709  -0.001926   0.007671  -0.018383
   50  O  7  X   -0.044289  -0.009906   0.006797   0.023791  -0.011081
   51  O  7  Y    0.006264  -0.006414  -0.029280  -0.017383  -0.091325
   52  O  7  Z    0.021061  -0.001867   0.031661   0.047543  -0.055013
   53  O  7  S   -0.014736   0.098742  -0.053465   0.058405  -0.373510
   54  O  7  X   -0.050518  -0.038299   0.020543   0.038109  -0.039072
   55  O  7  Y   -0.006033   0.004549  -0.075395  -0.050945  -0.234525
   56  O  7  Z    0.025799   0.021403   0.056401   0.125680  -0.145037
   57  H  8  S    0.013974  -0.011719   0.006470  -0.019506  -0.033104
   58  H  8  S    0.248979  -0.924210   0.707715  -1.107539  -0.516540
   59  H  9  S    0.013273  -0.002299  -0.002738   0.018408  -0.033899
   60  H  9  S    0.406243  -0.946003  -0.187370   1.233454  -0.174032
   61  H 10  S    0.026355  -0.015035  -0.045912   0.021790   0.031272
   62  H 10  S    0.641351   0.325267  -0.826949  -1.022867  -0.219133
   63  H 11  S    0.022236   0.002908   0.039337  -0.033584   0.011897
   64  H 11  S    0.751326   0.616573   0.624277   0.848270   0.093244
   65  H 12  S   -0.053096  -0.032957   0.014822  -0.002535   0.063000
   66  H 12  S   -0.893513  -0.145534   0.137579   0.063305   0.229685
   67  H 13  S    0.028703   0.007733  -0.007480   0.005159  -0.054537
   68  H 13  S    0.676940  -0.115303  -0.067387  -0.077117   0.236242
   69  H 14  S    0.030312   0.060320  -0.009238  -0.000953   0.002291
   70  H 14  S   -0.496186   1.287641  -0.279193   0.031960  -0.117199
   71  H 15  S   -0.019647  -0.042622  -0.048488  -0.025216   0.007491
   72  H 15  S   -0.710396  -0.610621  -1.131817   0.354092  -0.158938

                     36         37         38         39         40
                    0.4281     0.4899     0.5892     0.6430     0.9019
                     A          A          A          A          A   
    1  C  1  S    0.054443  -0.021929  -0.011589  -0.031706   0.001285
    2  C  1  S   -0.012583  -0.021620  -0.011092   0.008482  -0.005998
    3  C  1  X    0.211715   0.073889   0.082492   0.048569  -0.008091
    4  C  1  Y    0.099575  -0.126843  -0.019031   0.018139   0.160272
    5  C  1  Z    0.064926  -0.070757  -0.012169   0.021993  -0.325401
    6  C  1  S   -0.726059   0.589519   0.267176   0.466475   0.017759
    7  C  1  X    1.243516  -0.163365  -0.059187  -0.503281   0.030688
    8  C  1  Y    0.729266  -0.655695  -0.049993  -0.189911  -0.224878
    9  C  1  Z    0.476936  -0.354187  -0.033561  -0.127641   0.490732
   10  H  2  S   -0.048187  -0.030109  -0.018162   0.047848  -0.381847
   11  H  2  S   -0.316198   0.262863  -0.033444  -0.060157   0.066081
   12  C  3  S   -0.076063  -0.026992   0.031455   0.044596  -0.001549
   13  C  3  S    0.020380   0.014285  -0.017506   0.027035  -0.002356
   14  C  3  X    0.202082  -0.175912  -0.017404  -0.195637   0.056147
   15  C  3  Y    0.106729   0.003642  -0.018183  -0.076922   0.200839
   16  C  3  Z    0.045488  -0.009644  -0.004253  -0.050987  -0.294465
   17  C  3  S    1.011471   0.354557  -0.431053  -1.188262   0.048093
   18  C  3  X    1.208623  -1.303984   0.073010   0.215566  -0.037921
   19  C  3  Y    0.603820  -0.042040  -0.180690  -0.542389  -0.252726
   20  C  3  Z    0.275254  -0.056939  -0.120700  -0.263786   0.379062
   21  C  4  S    0.051482   0.116417   0.020930  -0.032126  -0.002364
   22  C  4  S   -0.008965  -0.023073   0.016520   0.034922   0.005873
   23  C  4  X    0.116218   0.041134   0.081945   0.042233  -0.032183
   24  C  4  Y    0.015513   0.184124  -0.074095  -0.044003   0.093974
   25  C  4  Z    0.037184   0.106619  -0.034733  -0.069269  -0.182963
   26  C  4  S   -0.688588  -1.718859  -0.709491   0.310556  -0.029334
   27  C  4  X    0.595385   0.396008   0.822649   0.788062   0.014907
   28  C  4  Y   -0.230039   1.245118   0.305973  -0.626836  -0.145876
   29  C  4  Z   -0.019565   0.789633   0.308042  -0.548322   0.310892
   30  C  5  S   -0.085790  -0.131902   0.070744  -0.020220   0.003381
   31  C  5  S    0.048151   0.034172   0.043384   0.047082  -0.017159
   32  C  5  X    0.074752   0.082444   0.309893  -0.356524  -0.032498
   33  C  5  Y    0.063394   0.124254   0.094892   0.122898   0.176967
   34  C  5  Z    0.055953   0.102282   0.055568   0.105325  -0.233114
   35  C  5  S    1.005462   2.006712  -1.033893   0.371758   0.036748
   36  C  5  X    0.065857   0.621144   1.480431  -1.394309   0.067060
   37  C  5  Y    0.409472   0.400173   0.897850   1.468372  -0.119667
   38  C  5  Z    0.311936   0.363370   0.691559   1.330554   0.101539
   39  N  6  S    0.026611   0.033011  -0.062018   0.084339  -0.000793
   40  N  6  S   -0.006824  -0.026904   0.035267  -0.011956   0.001240
   41  N  6  X   -0.083245  -0.152285   0.139653  -0.141239   0.006442
   42  N  6  Y   -0.003816   0.007400  -0.127302   0.037820   0.002433
   43  N  6  Z   -0.002247   0.017151  -0.111169   0.029427  -0.003081
   44  N  6  S   -0.343329  -0.252331   0.651217  -1.366727   0.024665
   45  N  6  X   -0.396079  -0.540648   0.536361  -1.049504   0.008969
   46  N  6  Y   -0.018077  -0.000651  -0.604653   0.244393   0.004348
   47  N  6  Z    0.006956   0.012654  -0.542169   0.258136  -0.024762
   48  O  7  S   -0.001447   0.025641  -0.090581  -0.086391   0.000598
   49  O  7  S   -0.000001  -0.021341   0.032212   0.016235   0.003243
   50  O  7  X    0.030382  -0.065302  -0.147828   0.103180   0.007300
   51  O  7  Y   -0.043463  -0.048853   0.096409   0.071855   0.008318
   52  O  7  Z   -0.027468  -0.054344   0.095103   0.063827  -0.006791
   53  O  7  S    0.054726  -0.215587   1.095758   1.248067  -0.024551
   54  O  7  X    0.017102  -0.137700  -0.405349   0.269264  -0.004909
   55  O  7  Y   -0.064979  -0.143333   0.402412   0.399799  -0.004263
   56  O  7  Z   -0.038943  -0.138981   0.378292   0.344135  -0.016626
   57  H  8  S    0.034832   0.043338   0.020369   0.015793   0.400503
   58  H  8  S   -0.003936  -0.141526   0.065044   0.049459  -0.126079
   59  H  9  S    0.035008   0.025906   0.014406   0.013896  -0.426748
   60  H  9  S    0.131782  -0.100937   0.054604  -0.040092   0.119652
   61  H 10  S   -0.001831  -0.058084  -0.067364  -0.036720  -0.307418
   62  H 10  S    0.236031  -0.212231  -0.048174   0.327054   0.033738
   63  H 11  S   -0.007003  -0.063063  -0.046152   0.018701   0.295564
   64  H 11  S    0.382292  -0.310772   0.054468   0.098193  -0.043487
   65  H 12  S   -0.016606  -0.043400  -0.104264  -0.085517   0.013023
   66  H 12  S    0.130820   0.054906   0.608938  -0.058085  -0.007527
   67  H 13  S    0.004748   0.021486   0.135915   0.032035  -0.004138
   68  H 13  S   -0.241360  -0.340774  -0.027794  -0.284275   0.009613
   69  H 14  S   -0.028657   0.093010   0.036838   0.031937   0.004079
   70  H 14  S   -0.358734  -0.513538  -0.188041  -0.012789  -0.004353
   71  H 15  S   -0.054117  -0.018956  -0.019828   0.044861   0.338837
   72  H 15  S   -0.290024   0.331140  -0.041138  -0.046668  -0.070324

                     41         42         43         44         45
                    0.9186     0.9639     0.9744     1.0181     1.0513
                     A          A          A          A          A   
    1  C  1  S    0.006284  -0.002492  -0.010327   0.015490   0.036754
    2  C  1  S   -0.057803  -0.003695   0.006701  -0.089470  -0.092594
    3  C  1  X    0.382740  -0.167761  -0.369850   0.344822   0.380057
    4  C  1  Y   -0.279336  -0.335719  -0.212209   0.099256   0.504261
    5  C  1  Z   -0.144220   0.252651  -0.315690   0.058234   0.250911
    6  C  1  S    0.191899   0.127354   0.255361   0.248603  -0.011964
    7  C  1  X   -0.528898   0.233229   0.505201  -0.530694  -0.376989
    8  C  1  Y    0.505602   0.541189   0.283849  -0.057619  -0.792708
    9  C  1  Z    0.275777  -0.448127   0.504506  -0.020280  -0.378170
   10  H  2  S   -0.225757   0.202506  -0.243884   0.071596   0.181789
   11  H  2  S    0.004999  -0.028962  -0.076639  -0.039195   0.113645
   12  C  3  S    0.003362   0.002992   0.016558  -0.024096  -0.054806
   13  C  3  S    0.025178  -0.035835  -0.101841   0.029323   0.139311
   14  C  3  X    0.168603   0.178942   0.309967  -0.171424   0.139968
   15  C  3  Y   -0.025319   0.049400   0.148777   0.523526   0.106784
   16  C  3  Z    0.005056   0.114960   0.101236   0.323784   0.107471
   17  C  3  S   -0.391982   0.263254   0.603732   0.312312  -0.350183
   18  C  3  X    0.012800  -0.191296  -0.344710   0.022494  -0.275889
   19  C  3  Y   -0.215562  -0.139610  -0.209286  -0.943512  -0.081628
   20  C  3  Z   -0.161266  -0.053701  -0.214210  -0.592866  -0.119085
   21  C  4  S   -0.034807   0.001161  -0.005823  -0.009068   0.031134
   22  C  4  S    0.044519   0.012119   0.054866  -0.057974  -0.043397
   23  C  4  X   -0.664493   0.053744   0.141053   0.149275  -0.335129
   24  C  4  Y   -0.221658   0.090770  -0.214922  -0.495454   0.155321
   25  C  4  Z   -0.155193  -0.192717  -0.015425  -0.314931   0.141928
   26  C  4  S    0.250803  -0.233138  -0.545070   0.617155  -0.424573
   27  C  4  X    0.745130   0.005521   0.017611  -0.297987   0.384621
   28  C  4  Y    0.177703   0.048239   0.609112   0.979200  -0.043045
   29  C  4  Z    0.096858   0.329087   0.257697   0.597666  -0.082178
   30  C  5  S    0.033621  -0.002931  -0.008107   0.008703  -0.000801
   31  C  5  S   -0.041486   0.003487   0.054819  -0.128947   0.154592
   32  C  5  X   -0.143630  -0.233715  -0.634589   0.042023  -0.418421
   33  C  5  Y   -0.017359   0.546197  -0.023038  -0.055261   0.340165
   34  C  5  Z   -0.007786  -0.527985   0.403944  -0.093570   0.211747
   35  C  5  S    0.208087   0.084108   0.115087   0.325613  -0.230937
   36  C  5  X   -0.003414   0.379719   1.065700   0.033373   0.835951
   37  C  5  Y    0.072007  -0.446556   0.184826  -0.431153  -0.168269
   38  C  5  Z    0.071497   0.551630  -0.238312  -0.257859  -0.062365
   39  N  6  S   -0.000542   0.006985   0.021060  -0.011662   0.016265
   40  N  6  S    0.023739  -0.012391  -0.037973  -0.015139   0.001235
   41  N  6  X    0.070984  -0.022362  -0.063014  -0.116980   0.052009
   42  N  6  Y    0.014200   0.054907   0.002420   0.029682   0.000804
   43  N  6  Z    0.005924  -0.043549   0.056957   0.046688  -0.024072
   44  N  6  S   -0.090183   0.096553   0.330426   0.175799   0.300737
   45  N  6  X   -0.087782  -0.011859   0.007311   0.162785   0.065936
   46  N  6  Y   -0.043857   0.050979  -0.039677   0.112999  -0.118801
   47  N  6  Z   -0.036747  -0.067799  -0.001931   0.059904  -0.113116
   48  O  7  S   -0.006557  -0.002281  -0.011340   0.025710  -0.015541
   49  O  7  S    0.014201  -0.001827   0.006842  -0.020325   0.010310
   50  O  7  X    0.061823  -0.043441  -0.100275   0.007608  -0.084433
   51  O  7  Y    0.025352   0.027387   0.039575   0.023725   0.044339
   52  O  7  Z    0.018981  -0.006323   0.040269  -0.006342   0.032248
   53  O  7  S    0.031666   0.012140   0.030614  -0.369597   0.052352
   54  O  7  X    0.019849  -0.054528  -0.152892   0.035834  -0.135691
   55  O  7  Y    0.017986   0.078628   0.049455  -0.112194   0.118173
   56  O  7  Z    0.012026  -0.049084   0.093311  -0.116208   0.093213
   57  H  8  S    0.071546  -0.112624  -0.138099  -0.244699  -0.138080
   58  H  8  S   -0.053658   0.068333  -0.054246  -0.168150  -0.072642
   59  H  9  S    0.120646  -0.029981  -0.117825  -0.230050  -0.118993
   60  H  9  S   -0.068038  -0.086843   0.023568  -0.164372  -0.044383
   61  H 10  S   -0.092724  -0.168947   0.110490  -0.249407   0.171978
   62  H 10  S   -0.032893   0.011883  -0.142603  -0.181918   0.027111
   63  H 11  S   -0.139698   0.207447  -0.106668  -0.282625   0.122963
   64  H 11  S   -0.052594  -0.088671  -0.083002  -0.173491   0.034222
   65  H 12  S    0.147500  -0.021747  -0.035441  -0.148673   0.252099
   66  H 12  S   -0.042801   0.008363   0.029275  -0.097671   0.001280
   67  H 13  S   -0.150342   0.055911   0.163427   0.011309   0.117195
   68  H 13  S    0.109388  -0.015555  -0.036457   0.013373  -0.003189
   69  H 14  S    0.429066  -0.050926  -0.110044  -0.100747  -0.060488
   70  H 14  S   -0.098416  -0.005220  -0.023129   0.173328   0.010815
   71  H 15  S   -0.258878  -0.335520  -0.042501   0.079080   0.219561
   72  H 15  S    0.016560  -0.023992  -0.058348  -0.030803   0.134441

                     46         47         48         49         50
                    1.0791     1.0946     1.0993     1.1378     1.1886
                     A          A          A          A          A   
    1  C  1  S   -0.026462  -0.005138  -0.017138  -0.017131  -0.041168
    2  C  1  S    0.026046  -0.009246   0.008548   0.045513  -0.005100
    3  C  1  X   -0.213609  -0.024909  -0.084820  -0.105245  -0.260007
    4  C  1  Y   -0.217200  -0.285876   0.003407   0.049825   0.301114
    5  C  1  Z   -0.195274   0.393094  -0.249261   0.054284   0.257636
    6  C  1  S    0.101796   0.056225  -0.013170  -0.264774  -0.005071
    7  C  1  X    0.285389   0.066885   0.213372   0.352098   0.921130
    8  C  1  Y    0.429979   0.600141   0.060495  -0.064950  -0.564333
    9  C  1  Z    0.379588  -0.767208   0.536673  -0.085932  -0.497575
   10  H  2  S   -0.125943   0.161983  -0.155436  -0.037641  -0.161909
   11  H  2  S   -0.145662   0.124398  -0.151481   0.045120   0.227850
   12  C  3  S   -0.009523  -0.012343  -0.011065   0.018266   0.000884
   13  C  3  S    0.044972   0.034612   0.035048  -0.065797  -0.098236
   14  C  3  X   -0.483364  -0.193750  -0.462389  -0.257344  -0.204624
   15  C  3  Y    0.266614   0.356881   0.098956  -0.217759  -0.335190
   16  C  3  Z    0.189127  -0.218807   0.254837  -0.154797  -0.279842
   17  C  3  S   -0.059685  -0.111160  -0.182663   0.395761   0.390807
   18  C  3  X    0.771204   0.318821   0.789700   0.194381  -0.124119
   19  C  3  Y   -0.521600  -0.653095  -0.234631   0.548925   0.646872
   20  C  3  Z   -0.365991   0.367023  -0.472024   0.372788   0.554170
   21  C  4  S    0.039772   0.015786   0.022954  -0.002179  -0.001583
   22  C  4  S   -0.110395  -0.028193  -0.031432   0.003060   0.095297
   23  C  4  X   -0.250640  -0.196142  -0.327577   0.058579  -0.327348
   24  C  4  Y    0.065220   0.282172   0.086625  -0.378391  -0.352308
   25  C  4  Z    0.079926  -0.243895   0.240856  -0.229699  -0.191766
   26  C  4  S    0.793874  -0.089466  -0.260995   0.135280  -0.699713
   27  C  4  X    0.390932   0.493771   0.947915  -0.473085   0.366537
   28  C  4  Y   -0.366475  -0.492270  -0.082908   0.579098   1.015544
   29  C  4  Z   -0.330308   0.543809  -0.407194   0.351082   0.602191
   30  C  5  S    0.025121  -0.016360  -0.044625  -0.026876   0.001664
   31  C  5  S   -0.043595   0.122575   0.283785   0.307010   0.060493
   32  C  5  X    0.340552  -0.091935  -0.211468   0.006280  -0.202593
   33  C  5  Y    0.548406  -0.503479  -0.402797   0.082522   0.071050
   34  C  5  Z    0.400528   0.264339  -0.625454   0.001187   0.033271
   35  C  5  S   -0.290167   0.134340   0.319519  -0.503543   0.615089
   36  C  5  X   -0.683637   0.362212   0.635939   0.308366   0.986315
   37  C  5  Y   -0.371656   0.798614   0.590193  -0.550618  -0.211961
   38  C  5  Z   -0.205695  -0.423226   0.913416  -0.359862  -0.123184
   39  N  6  S   -0.001614   0.003118   0.002341   0.045408  -0.040830
   40  N  6  S    0.020575   0.009684   0.016113  -0.039686   0.045902
   41  N  6  X    0.016379   0.073536   0.141824  -0.096181   0.062462
   42  N  6  Y   -0.023954  -0.092642   0.052404   0.040172   0.001619
   43  N  6  Z   -0.051627   0.093185  -0.053848   0.024684  -0.000453
   44  N  6  S   -0.135634   0.028328  -0.084392   0.279166   0.398199
   45  N  6  X   -0.086458  -0.001667  -0.091531   0.574103  -0.132290
   46  N  6  Y   -0.000338  -0.119474  -0.116777  -0.184935  -0.006372
   47  N  6  Z    0.004374  -0.025751  -0.110972  -0.197829  -0.021011
   48  O  7  S   -0.031722   0.005261   0.017880   0.010442   0.006544
   49  O  7  S    0.038623  -0.007570  -0.032198   0.009489   0.021212
   50  O  7  X    0.042767  -0.020018  -0.050171   0.098032   0.032847
   51  O  7  Y    0.125341  -0.083035  -0.150044  -0.012630   0.032628
   52  O  7  Z    0.100238  -0.004866  -0.153163  -0.018527   0.021252
   53  O  7  S    0.052826   0.075486   0.270831  -0.245836  -0.264730
   54  O  7  X    0.081843  -0.052103  -0.087303  -0.053615  -0.142360
   55  O  7  Y    0.203971  -0.126688  -0.114584  -0.052864  -0.077590
   56  O  7  Z    0.163532   0.049677  -0.155896  -0.064274  -0.077117
   57  H  8  S   -0.113940   0.068350  -0.141416   0.135214  -0.001625
   58  H  8  S   -0.097845   0.011957  -0.096516   0.106558   0.205979
   59  H  9  S   -0.090315  -0.222665  -0.017650   0.133262  -0.018891
   60  H  9  S   -0.088581  -0.128356  -0.034132   0.088370   0.134391
   61  H 10  S    0.189686  -0.169511   0.218937  -0.050488  -0.133097
   62  H 10  S    0.094057  -0.018322   0.069514  -0.130366  -0.160949
   63  H 11  S    0.142003   0.297121   0.006983  -0.028988  -0.120339
   64  H 11  S    0.073484   0.048835   0.030389  -0.147857  -0.205412
   65  H 12  S    0.203650   0.092531   0.008344   0.814348  -0.382007
   66  H 12  S   -0.046867   0.014456   0.100962  -0.428495   0.224930
   67  H 13  S   -0.232296   0.069137   0.120910   0.671166  -0.472965
   68  H 13  S    0.046319   0.002081   0.007977  -0.254648   0.293891
   69  H 14  S   -0.175860  -0.092724  -0.143391  -0.085583  -0.470925
   70  H 14  S    0.040174   0.015401  -0.002992  -0.104043  -0.337335
   71  H 15  S   -0.081652  -0.201724   0.001167  -0.047890  -0.171192
   72  H 15  S   -0.118254  -0.199724  -0.005754   0.026942   0.137346

                     51         52         53         54         55
                    1.2458     1.2545     1.3497     1.3588     1.3640
                     A          A          A          A          A   
    1  C  1  S    0.039583   0.012128  -0.000437   0.009780  -0.000686
    2  C  1  S   -0.011750  -0.010333   0.008058  -0.008667  -0.002160
    3  C  1  X   -0.215618  -0.121131  -0.005746   0.361265  -0.060773
    4  C  1  Y   -0.062938   0.255253   0.088899  -0.474050   0.451612
    5  C  1  Z    0.157943  -0.295680  -0.094793  -0.408283  -0.572462
    6  C  1  S    0.065865   0.069665  -0.043524  -0.073578   0.024743
    7  C  1  X    0.116443   0.143793   0.004431  -0.283093   0.052101
    8  C  1  Y   -0.115524  -0.622709   0.005847   0.449415  -0.518102
    9  C  1  Z   -0.475224   0.523255  -0.009688   0.397658   0.663400
   10  H  2  S    0.213110   0.281433  -0.013677   0.628656   0.613079
   11  H  2  S    0.191643  -0.417836   0.004410  -0.820785  -0.977091
   12  C  3  S    0.027630   0.011469   0.000689   0.013066  -0.000692
   13  C  3  S    0.053741   0.017902  -0.007467  -0.026198  -0.001130
   14  C  3  X    0.106918   0.046783  -0.018883   0.058629  -0.005847
   15  C  3  Y    0.397137  -0.198181   0.411700  -0.080430   0.164188
[...]
   12  C  3  S   -0.001017   0.001313
   13  C  3  S    0.091933   0.012783
   14  C  3  X   -0.127454   0.050486
   15  C  3  Y   -0.017421   0.006525
   16  C  3  Z   -0.013248  -0.002591
   17  C  3  S    0.165339  -0.255241
   18  C  3  X    0.361437  -0.146474
   19  C  3  Y    0.287273  -0.192171
   20  C  3  Z    0.144440  -0.056057
   21  C  4  S    0.009029   0.010098
   22  C  4  S    0.252549   0.056391
   23  C  4  X   -0.006184  -0.005164
   24  C  4  Y    0.016383  -0.003112
   25  C  4  Z   -0.005784   0.010701
   26  C  4  S   -0.690979  -0.749524
   27  C  4  X   -0.092443   0.706777
   28  C  4  Y    0.131926  -0.001406
   29  C  4  Z    0.236629  -0.125633
   30  C  5  S    0.026433  -0.000625
   31  C  5  S    0.068545  -0.271508
   32  C  5  X   -0.003953  -0.030015
   33  C  5  Y   -0.010239   0.120918
   34  C  5  Z   -0.013927   0.108097
   35  C  5  S   -1.370072  -0.501164
   36  C  5  X    1.814367   0.185024
   37  C  5  Y   -0.405677   1.637518
   38  C  5  Z   -0.443447   1.434850
   39  N  6  S   -0.007498   0.003296
   40  N  6  S   -1.892496   0.131722
   41  N  6  X   -0.127900   0.081997
   42  N  6  Y    0.083538   0.087099
   43  N  6  Z    0.078823   0.075044
   44  N  6  S    3.669540  -0.490836
   45  N  6  X    0.794676  -0.519169
   46  N  6  Y   -0.497692  -0.530164
   47  N  6  Z   -0.466756  -0.450183
   48  O  7  S    0.004136   0.039919
   49  O  7  S   -0.084900  -1.792311
   50  O  7  X    0.141737   0.039249
   51  O  7  Y    0.031753  -0.186804
   52  O  7  Z    0.012264  -0.160594
   53  O  7  S    0.054309   3.198027
   54  O  7  X   -0.495990  -0.148531
   55  O  7  Y   -0.012664   0.824109
   56  O  7  Z    0.025417   0.717198
   57  H  8  S    0.029322   0.002384
   58  H  8  S    0.041647   0.009644
   59  H  9  S    0.035437  -0.029856
   60  H  9  S    0.070078   0.000273
   61  H 10  S   -0.002784   0.080256
   62  H 10  S    0.040250   0.076794
   63  H 11  S    0.024887   0.030453
   64  H 11  S    0.130673   0.020585
   65  H 12  S   -0.117922   0.255626
   66  H 12  S   -0.202745   0.122938
   67  H 13  S   -0.264924  -0.217578
   68  H 13  S   -0.202289  -0.074276
   69  H 14  S    0.036282  -0.022862
   70  H 14  S    0.042198  -0.063907
   71  H 15  S    0.025557   0.004402
   72  H 15  S   -0.010425  -0.006724
 ...... END OF RHF CALCULATION ......
 CPU     0: STEP CPU TIME=     0.45 TOTAL CPU TIME=          0.5 (      0.0 MIN)
 TOTAL WALL CLOCK TIME=          0.7 SECONDS, CPU UTILIZATION IS    71.43%

     ----------------------------------------------------------------
     PROPERTY VALUES FOR THE RHF   SELF-CONSISTENT FIELD WAVEFUNCTION
     ----------------------------------------------------------------

          -----------------
          ENERGY COMPONENTS
          -----------------

         WAVEFUNCTION NORMALIZATION =       1.0000000000

                ONE ELECTRON ENERGY =    -856.9465946130
                TWO ELECTRON ENERGY =     335.0715054349
           NUCLEAR REPULSION ENERGY =     237.4204795586
                                      ------------------
                       TOTAL ENERGY =    -284.4546096195

 ELECTRON-ELECTRON POTENTIAL ENERGY =     335.0715054349
  NUCLEUS-ELECTRON POTENTIAL ENERGY =   -1140.5161677155
   NUCLEUS-NUCLEUS POTENTIAL ENERGY =     237.4204795586
                                      ------------------
             TOTAL POTENTIAL ENERGY =    -568.0241827220
               TOTAL KINETIC ENERGY =     283.5695731025
                 VIRIAL RATIO (V/T) =       2.0031210560

          ---------------------------------------
          MULLIKEN AND LOWDIN POPULATION ANALYSES
          ---------------------------------------

     ATOMIC MULLIKEN POPULATION IN EACH MOLECULAR ORBITAL

                      1          2          3          4          5

                  2.000000   2.000000   2.000000   2.000000   2.000000

    1            -0.000000  -0.000000  -0.000000   0.000075   0.005055
    2             0.000000  -0.000000   0.000000  -0.000002   0.000008
    3            -0.000008   0.000000   0.000066   0.005230   1.983893
    4             0.000068  -0.000073   0.005945   1.982874   0.005157
    5             0.008050   0.007338   1.994989   0.006038   0.000005
    6            -0.000026   1.990273   0.000848   0.000017   0.000001
    7             1.991911  -0.000007  -0.001990  -0.000008   0.000000
    8             0.000001  -0.000000   0.000001   0.000016   0.002929
    9             0.000000  -0.000000   0.000001   0.000022   0.002907
   10            -0.000001   0.000001   0.000042   0.002827   0.000019
   11            -0.000000  -0.000002   0.000060   0.002912   0.000020
   12            -0.000001   0.001269  -0.000030   0.000004   0.000000
   13             0.000006   0.001201   0.000067   0.000001   0.000000
   14             0.000000  -0.000000  -0.000000  -0.000001  -0.000001
   15            -0.000000  -0.000000   0.000000  -0.000002   0.000007

                      6          7          8          9         10

                  2.000000   2.000000   2.000000   2.000000   2.000000

    1             1.986572   0.000189  -0.000576   0.323214   0.754162
    2             0.002849   0.000003   0.000004   0.014573   0.050539
    3             0.004797   0.000271   0.001717   0.733669   0.137416
    4             0.000132  -0.000898   0.038007   0.678076   0.537284
    5             0.000012   0.390665   0.152674   0.050244   0.194689
    6             0.000000   0.140954   1.399637   0.039024   0.078088
    7            -0.000000   1.461889   0.232753   0.020777   0.027738
    8             0.000025   0.000464   0.000026   0.023797   0.004786
    9             0.000031   0.000013   0.000018   0.024601   0.005116
   10            -0.000006   0.000068   0.000396   0.029154   0.036268
   11            -0.000005  -0.000582   0.000825   0.028239   0.034251
   12             0.000000   0.004908   0.095305   0.002401   0.004171
   13             0.000000   0.002078   0.079199   0.007748   0.022404
   14             0.002730  -0.000024   0.000008   0.009734   0.062819
   15             0.002862   0.000001   0.000007   0.014749   0.050269

                     11         12         13         14         15

                  2.000000   2.000000   2.000000   2.000000   2.000000

    1             0.443867   0.047403   0.016606   0.080995   0.145749
    2             0.068736   0.011531   0.000759   0.003197   0.053183
    3             0.546924   0.193153   0.065685   0.146479   0.323257
    4             0.120728   0.241347   0.196634   0.359640   0.463862
    5             0.183788   0.287681   0.152226   0.369215   0.214241
    6             0.219402   0.635149   0.905467   0.281577   0.144067
    7             0.031985   0.175179   0.082190   0.422856   0.176022
    8             0.081967   0.036539   0.014498   0.028133   0.080783
    9             0.083341   0.043030   0.012726   0.027428   0.079865
   10             0.007416   0.059813   0.028020   0.148690   0.060719
   11             0.007658   0.061748   0.039262   0.001103   0.190199
   12             0.019257   0.150516   0.266643   0.002554   0.001034
   13             0.054276   0.043653   0.211990   0.092193   0.035490
   14             0.062062   0.001139   0.006488   0.013011   0.006235
   15             0.068594   0.012119   0.000804   0.022931   0.025294

                     16         17         18         19         20

                  2.000000   2.000000   2.000000   2.000000   2.000000

    1             0.429484   0.438374   0.398957   0.276040   0.690978
    2             0.025924   0.122162   0.121278   0.092032   0.028605
    3             0.224537   0.180903   0.134770   0.024350   0.632581
    4             0.188861   0.124851   0.218512   0.285628   0.137394
    5             0.133984   0.312056   0.174607   0.257374   0.125102
    6             0.097408   0.242535   0.056832   0.391939   0.024873
    7             0.479582   0.212359   0.588709   0.297046   0.151816
    8             0.032545   0.042860   0.001090   0.004912   0.028166
    9             0.028293   0.051763  -0.000012   0.011584   0.035179
   10             0.006979   0.030466   0.078363   0.101450   0.000155
   11             0.004360   0.056051   0.034300   0.113382   0.004329
   12             0.046430   0.001365   0.034118   0.000029   0.008289
   13             0.044657   0.000296   0.004633   0.000284   0.016479
   14             0.229335   0.000637   0.121631   0.003330   0.087166
   15             0.027622   0.183321   0.032211   0.140619   0.028889

                     21         22         23         24

                  2.000000   2.000000   2.000000   2.000000

    1             0.317292   0.214184   0.014588   0.000981
    2             0.077148   0.133368   0.001293   0.000580
    3             0.501655   0.528233   0.029120   0.005157
    4             0.465651   0.174606   0.302115   0.000399
    5             0.004852   0.012455   0.076471   0.036860
    6             0.012551   0.013437   0.151795   1.105961
    7             0.038383   0.050238   1.350473   0.844516
    8             0.113493   0.262339   0.001736   0.000793
    9             0.109495   0.258445   0.000890   0.001936
   10             0.048182   0.119888   0.014942   0.001339
   11             0.062744   0.105118   0.016963   0.000488
   12             0.000245   0.000027   0.009320   0.000007
   13             0.003430   0.000012   0.019507   0.000020
   14             0.177289   0.000001   0.010639   0.000017
   15             0.067588   0.127649   0.000146   0.000946

               ----- POPULATIONS IN EACH AO -----
                             MULLIKEN      LOWDIN
              1  C  1  S      1.98825     1.97645
              2  C  1  S      0.35124     0.41306
              3  C  1  X      0.53382     0.51097
              4  C  1  Y      0.53651     0.50538
              5  C  1  Z      0.53839     0.50535
              6  C  1  S      1.12347     0.58374
              7  C  1  X      0.45137     0.56594
              8  C  1  Y      0.52097     0.59550
              9  C  1  Z      0.54016     0.60173
             10  H  2  S      0.46708     0.47015
             11  H  2  S      0.34069     0.44651
             12  C  3  S      1.98917     1.97617
             13  C  3  S      0.34449     0.40843
             14  C  3  X      0.51158     0.49582
             15  C  3  Y      0.53836     0.51120
             16  C  3  Z      0.55277     0.52464
             17  C  3  S      1.11171     0.56310
             18  C  3  X      0.31588     0.51085
             19  C  3  Y      0.48374     0.57148
             20  C  3  Z      0.55616     0.59084
             21  C  4  S      1.98961     1.97626
             22  C  4  S      0.34290     0.41852
             23  C  4  X      0.53436     0.52519
             24  C  4  Y      0.54100     0.51630
             25  C  4  Z      0.54181     0.51365
             26  C  4  S      1.14649     0.57213
             27  C  4  X      0.34319     0.52812
             28  C  4  Y      0.52849     0.58758
             29  C  4  Z      0.55895     0.59096
             30  C  5  S      1.98713     1.97620
             31  C  5  S      0.42669     0.42872
             32  C  5  X      0.56054     0.53298
             33  C  5  Y      0.49342     0.46983
             34  C  5  Z      0.45185     0.43058
             35  C  5  S      0.56393     0.50760
             36  C  5  X      0.21267     0.45665
             37  C  5  Y      0.19926     0.43650
             38  C  5  Z      0.25014     0.44157
             39  N  6  S      1.98734     1.97747
             40  N  6  S      0.35626     0.46401
             41  N  6  X      0.56952     0.55036
             42  N  6  Y      0.64364     0.63695
             43  N  6  Z      0.66694     0.66605
             44  N  6  S      1.30950     0.74004
             45  N  6  X      0.63941     0.66976
             46  N  6  Y      0.85591     0.82631
             47  N  6  Z      0.90329     0.87199
             48  O  7  S      1.98724     1.98164
             49  O  7  S      0.42501     0.58504
             50  O  7  X      0.82856     0.83000
             51  O  7  Y      0.62044     0.61359
             52  O  7  Z      0.61620     0.61013
             53  O  7  S      1.56529     1.05502
             54  O  7  X      0.97731     1.02149
             55  O  7  Y      0.80218     0.83131
             56  O  7  Z      0.81218     0.83628
             57  H  8  S      0.46526     0.47467
             58  H  8  S      0.29664     0.42439
             59  H  9  S      0.46670     0.47649
             60  H  9  S      0.30997     0.43013
             61  H 10  S      0.46143     0.46967
             62  H 10  S      0.31376     0.43211
             63  H 11  S      0.45842     0.46705
             64  H 11  S      0.30500     0.42781
             65  H 12  S      0.43479     0.44044
             66  H 12  S      0.21307     0.34758
             67  H 13  S      0.42834     0.43605
             68  H 13  S      0.21129     0.34484
             69  H 14  S      0.46654     0.46903
             70  H 14  S      0.32771     0.43971
             71  H 15  S      0.46690     0.46990
             72  H 15  S      0.33973     0.44606

          ----- MULLIKEN ATOMIC OVERLAP POPULATIONS -----
          (OFF-DIAGONAL ELEMENTS NEED TO BE MULTIPLIED BY 2)

             1           2           3           4           5

    1    5.3662698
    2    0.3744275   0.5288677
    3    0.2404575  -0.0436187   5.4286819
    4   -0.0767006  -0.0016896   0.2085529   5.8114949
    5    0.0041689  -0.0000636  -0.0628396   0.1579359   4.4362884
    6   -0.0000140  -0.0000003   0.0030370  -0.1238281   0.1601482
    7    0.0001221  -0.0000004   0.0102466  -0.0943271   0.5707434
    8   -0.0391069   0.0026567   0.3897688  -0.0496636  -0.0003142
    9   -0.0408989  -0.0017142   0.3905094  -0.0479309  -0.0007060
   10   -0.0001136   0.0019544  -0.0381056   0.3672887  -0.0362534
   11   -0.0006439   0.0000347  -0.0381883   0.3689354  -0.0372660
   12   -0.0000038   0.0000002   0.0000097   0.0007001  -0.0222090
   13    0.0000005   0.0000000  -0.0000942   0.0043969  -0.0239026
   14    0.3813326  -0.0255553  -0.0402308   0.0033816  -0.0000578
   15    0.3748903  -0.0275276  -0.0443307  -0.0017430  -0.0000550

             6           7           8           9          10

    6    7.3063645
    7   -0.0715346   8.2092019
    8    0.0000902   0.0043601   0.4795552
    9    0.0000197   0.0011064  -0.0238331   0.4977919
   10    0.0021921   0.0009793   0.0029045  -0.0018970   0.4973861
   11    0.0017722   0.0006301  -0.0014426   0.0028780  -0.0220351
   12    0.3296022   0.0013896  -0.0000030  -0.0000015   0.0009601
   13    0.3239582   0.0015001   0.0000002   0.0000001  -0.0000839
   14    0.0000001   0.0000002  -0.0014557  -0.0014568  -0.0000357
   15   -0.0000002   0.0000004  -0.0016153   0.0028043   0.0000486

            11          12          13          14          15

   11    0.4860500
   12    0.0004208   0.3561627
   13   -0.0001062  -0.0191661   0.3531208
   14   -0.0000177   0.0000000  -0.0000000   0.5035522
   15    0.0023998   0.0000000  -0.0000000  -0.0252129   0.5269673

          TOTAL MULLIKEN AND LOWDIN ATOMIC POPULATIONS
       ATOM         MULL.POP.    CHARGE          LOW.POP.     CHARGE
    1 C             6.584187   -0.584187         6.258118   -0.258118
    2 H             0.807771    0.192229         0.916665    0.083335
    3 C             6.403856   -0.403856         6.152525   -0.152525
    4 C             6.526803   -0.526803         6.228709   -0.228709
    5 C             5.145618    0.854382         5.680619    0.319381
    6 N             7.931807   -0.931807         7.402936   -0.402936
    7 O             8.634418   -0.634418         8.364508   -0.364508
    8 H             0.761901    0.238099         0.899059    0.100941
    9 H             0.776671    0.223329         0.906618    0.093382
   10 H             0.775190    0.224810         0.901781    0.098219
   11 H             0.763421    0.236579         0.894856    0.105144
   12 H             0.647862    0.352138         0.788022    0.211978
   13 H             0.639624    0.360376         0.780885    0.219115
   14 H             0.794244    0.205756         0.908736    0.091264
   15 H             0.806626    0.193374         0.915962    0.084038

          -------------------------------
          BOND ORDER AND VALENCE ANALYSIS     BOND ORDER THRESHOLD=0.050
          -------------------------------

                   BOND                       BOND                       BOND
  ATOM PAIR DIST  ORDER      ATOM PAIR DIST  ORDER      ATOM PAIR DIST  ORDER
    1   2  1.097  0.929        1   3  1.542  0.914        1  14  1.096  0.931
    1  15  1.097  0.929        3   4  1.537  0.898        3   8  1.095  0.911
    3   9  1.096  0.919        4   5  1.534  0.849        4  10  1.099  0.911
    4  11  1.100  0.907        5   6  1.371  0.932        5   7  1.240  1.754
    6   7  2.294  0.088        6  12  1.012  0.845        6  13  1.014  0.839

                       TOTAL       BONDED        FREE
      ATOM            VALENCE     VALENCE     VALENCE
    1 C                 3.671       3.671      -0.000
    2 H                 0.919       0.919      -0.000
    3 C                 3.596       3.596      -0.000
    4 C                 3.534       3.534      -0.000
    5 C                 3.495       3.495      -0.000
    6 N                 2.704       2.704      -0.000
    7 O                 1.915       1.915      -0.000
    8 H                 0.904       0.904      -0.000
    9 H                 0.906       0.906      -0.000
   10 H                 0.908       0.908       0.000
   11 H                 0.902       0.902       0.000
   12 H                 0.854       0.854      -0.000
   13 H                 0.851       0.851       0.000
   14 H                 0.917       0.917      -0.000
   15 H                 0.919       0.919      -0.000

          ---------------------
          ELECTROSTATIC MOMENTS
          ---------------------

 POINT   1           X           Y           Z (BOHR)    CHARGE
                -3.009314   -0.095147    0.024359       -0.00 (A.U.)
         DX          DY          DZ         /D/  (DEBYE)
    -0.857757    2.910167    2.520863    3.944561
 ...... END OF PROPERTY EVALUATION ......
 CPU     0: STEP CPU TIME=     0.03 TOTAL CPU TIME=          0.5 (      0.0 MIN)
 TOTAL WALL CLOCK TIME=          0.7 SECONDS, CPU UTILIZATION IS    72.60%
               580000  WORDS OF DYNAMIC MEMORY USED
 EXECUTION OF GAMESS TERMINATED NORMALLY Sun May 17 12:56:40 2020
 DDI: 263640 bytes (0.3 MB / 0 MWords) used by master data server.
Note: The following floating-point exceptions are signalling: IEEE_DENORMALNote: The following floating-point exceptions are signalling: IEEE_DENORMALNote: The following floating-point exceptions are signalling: IEEE_DENORMALNote: The following floating-point exceptions are signalling:
 ----------------------------------------
 CPU timing information for all processes
 ========================================
 0: 0.446 + 0.91 = 0.537
 1: 0.419 + 0.20 = 0.440
 2: 0.420 + 0.00 = 0.420
 3: 0.450 + 0.20 = 0.470
 4: 0.366 + 0.12 = 0.379
 5: 0.362 + 0.12 = 0.375
 ----------------------------------------



 IEEE_DENORMAL
Note: The following floating-point exceptions are signalling: IEEE_DENORMALNote: The following floating-point exceptions are signalling: IEEE_DENORMAL

 ddikick.x: exited gracefully.
unset echo
----- accounting info -----
Files used on the master node pietdev were:
-rwxr-xr-x 1 piet piet      948 mei 17 12:56 /home/piet/scr/glutamine_fukui_neu.F05*
-rw-r--r-- 1 piet piet 49152000 mei 17 12:56 /home/piet/scr/glutamine_fukui_neu.F10
ls: No match.
ls: No match.
ls: No match.
zo 17 mei 2020 12:56:43 CEST
0.107u 0.020s 0:03.88 3.0%	0+0k 0+8io 0pf+0w
