----- GAMESS execution script 'rungms' -----
This job is running on host pietdev
under operating system Linux at za 16 mei 2020 16:42:52 CEST
Available scratch disk space (Kbyte units) at beginning of the job is
Filesystem     1K-blocks     Used Available Use% Mounted on
/dev/sda2      244568380 30360212 201715112  14% /
GAMESS temporary binary files will be written to /home/piet/scr
GAMESS supplementary output files will be written to /home/piet/gamess/scr
Copying input file asparagine_geoopt.inp to your run's scratch directory...
cp asparagine_geoopt.inp /home/piet/scr/asparagine_geoopt.F05
unset echo
 
Assuming a single but multicore node.
 
/home/piet/gamess/ddikick.x /home/piet/gamess/gamess.03.x asparagine_geoopt -ddi 1 6 pietdev:cpus=6 -scr /home/piet/scr

 Distributed Data Interface kickoff program.
 Initiating 6 compute processes on 1 nodes to run the following command:
 /home/piet/gamess/gamess.03.x asparagine_geoopt 

          ******************************************************
          *         GAMESS VERSION = 30 SEP 2019 (R2)          *
          *             FROM IOWA STATE UNIVERSITY             *
          * M.W.SCHMIDT, K.K.BALDRIDGE, J.A.BOATZ, S.T.ELBERT, *
          *   M.S.GORDON, J.H.JENSEN, S.KOSEKI, N.MATSUNAGA,   *
          *          K.A.NGUYEN, S.J.SU, T.L.WINDUS,           *
          *       TOGETHER WITH M.DUPUIS, J.A.MONTGOMERY       *
          *         J.COMPUT.CHEM.  14, 1347-1363(1993)        *
          **************** 64 BIT LINUX VERSION ****************

  SINCE 1993, STUDENTS AND POSTDOCS WORKING AT IOWA STATE UNIVERSITY
  AND ALSO IN THEIR VARIOUS JOBS AFTER LEAVING ISU HAVE MADE IMPORTANT
  CONTRIBUTIONS TO THE CODE:
     IVANA ADAMOVIC, CHRISTINE AIKENS, YURI ALEXEEV, POOJA ARORA,
     ANDREY ASADCHEV, ROB BELL, PRADIPTA BANDYOPADHYAY, JONATHAN BENTZ,
     COLLEEN BERTONI, BRETT BODE, KURT BRORSEN, CALEB CARLIN, GALINA CHABAN,
     WEI CHEN, CHEOL HO CHOI, PAUL DAY, ALBERT DEFUSCO, NUWAN DESILVA,
     TIM DUDLEY, DMITRI FEDOROV, ALEX FINDLATER, GRAHAM FLETCHER, 
     MARK FREITAG, KURT GLAESEMANN, EMILIE B GUIDEZ, ANASTASIA GUNINA, 
     DAN KEMP, SAROM SOK LEANG, GRANT MERRILL,
     NORIYUKI MINEZAWA, JONATHAN MULLIN,
     TAKESHI NAGATA, SEAN NEDD, HEATHER NETZLOFF, BOSILJKA NJEGIC, RYAN OLSON,
     MIKE PAK, BUU PHAM, DAVID POOLE,
     SPENCER PRUITT, LUKE ROSKOP, TOSAPORN SATTASATHUCHANA,
     JIM SHOEMAKER, LYUDMILA SLIPCHENKO,
     TONY SMITH, JIE SONG, TETSUYA TAKETSUGU, SIMON WEBB,
     JORGE LUIS GALVEZ VALLEJO, PENG XU, SOOHAENG YOO,
     FEDERICO ZAHARIEV

  ADDITIONAL CODE HAS BEEN PROVIDED BY COLLABORATORS IN OTHER GROUPS:
     IOWA STATE UNIVERSITY:
          JOE IVANIC, AARON WEST, LAIMUTIS BYTAUTAS, KLAUS RUEDENBERG
     UNIVERSITY OF TOKYO: KIMIHIKO HIRAO, TAKAHITO NAKAJIMA,
          TAKAO TSUNEDA, MUNEAKI KAMIYA, SUSUMU YANAGISAWA,
          KIYOSHI YAGI, MAHITO CHIBA, SEIKEN TOKURA, NAOAKI KAWAKAMI
     UNIVERSITY OF AARHUS: FRANK JENSEN
     UNIVERSITY OF IOWA: VISVALDAS KAIRYS, HUI LI
     NATIONAL INST. OF STANDARDS AND TECHNOLOGY: WALT STEVENS, DAVID GARMER
     UNIVERSITY OF PISA: BENEDETTA MENNUCCI, JACOPO TOMASI
     UNIVERSITY OF MEMPHIS: HENRY KURTZ, PRAKASHAN KORAMBATH
     UNIVERSITY OF ALBERTA: TOBY ZENG, MARIUSZ KLOBUKOWSKI
     UNIVERSITY OF NEW ENGLAND: MARK SPACKMAN
     MIE UNIVERSITY: HIROAKI UMEDA
     NAT. INST. OF ADVANCED INDUSTRIAL SCIENCE AND TECHNOLOGY: KAZUO KITAURA
     MICHIGAN STATE UNIVERSITY:
          KAROL KOWALSKI, MARTA WLOCH, JEFFREY GOUR, JESSE LUTZ,
          WEI LI, JUN SHEN, J. EMILIANO DEUSTUA, PIOTR PIECUCH
     UNIVERSITY OF MINNESOTA:
          ANDREW SAND, PRACHI SHARMA, YINAN SHU
     UNIVERSITY OF SILESIA: MONIKA MUSIAL, STANISLAW KUCHARSKI
     FACULTES UNIVERSITAIRES NOTRE-DAME DE LA PAIX:
          OLIVIER QUINET, BENOIT CHAMPAGNE
     UNIVERSITY OF CALIFORNIA - SANTA BARBARA: BERNARD KIRTMAN
     INSTITUTE FOR MOLECULAR SCIENCE:
          KAZUYA ISHIMURA, MICHIO KATOUDA, AND SHIGERU NAGASE
     UNIVERSITY OF NOTRE DAME: ANNA POMOGAEVA, DAN CHIPMAN
     KYUSHU UNIVERSITY:
          HARUYUKI NAKANO,
          FENG LONG GU, JACEK KORCHOWIEC, MARCIN MAKOWSKI, AND YURIKO AOKI,
          HIROTOSHI MORI AND EISAKU MIYOSHI
     PENNSYLVANIA STATE UNIVERSITY:
          TZVETELIN IORDANOV, CHET SWALINA, JONATHAN SKONE,
          SHARON HAMMES-SCHIFFER
     WASEDA UNIVERSITY:
          MASATO KOBAYASHI, TOMOKO AKAMA, TSUGUKI TOUMA,
          TAKESHI YOSHIKAWA, YASUHIRO IKABATA, JUNJI SEINO,
          YUYA NAKAJIMA, HIROMI NAKAI
     NANJING UNIVERSITY: SHUHUA LI
     UNIVERSITY OF NEBRASKA:
          PEIFENG SU, DEJUN SI, NANDUN THELLAMUREGE, YALI WANG, HUI LI
     UNIVERSITY OF ZURICH: ROBERTO PEVERATI, KIM BALDRIDGE
     N. COPERNICUS UNIVERSITY AND JACKSON STATE UNIVERSITY:
          MARIA BARYSZ
     UNIVERSITY OF COPENHAGEN: Jimmy Kromann, CASPER STEINMANN
     TOKYO INSTITUTE OF TECHNOLOGY: HIROYA NAKATA
     NAGOYA UNIVERSITY: YOSHIO NISHIMOTO, STEPHAN IRLE
     MOSCOW STATE UNIVERSITY: VLADIMIR MIRONOV
     A.N.NESMEYANOV INSTITUTE OF ORGANOELEMENT COMPOUNDS OF RUSSIAN ACADEMY OF SCIENCES:
          IGOR S. GERASIMOV
     JOHANNES KEPLER UNIVERSITY LINZ:
          CHRISTIAN FRIEDL


 PARALLEL VERSION RUNNING ON        6 PROCESSORS IN        1 NODES.

 EXECUTION OF GAMESS BEGUN Sat May 16 16:42:52 2020

            ECHO OF THE FIRST FEW INPUT CARDS -
 INPUT CARD> $BASIS GBASIS=N21 NGAUSS=3 $END                                                
 INPUT CARD> $CONTRL SCFTYP=RHF RUNTYP=OPTIMIZE DFTTYP=B3LYP MAXIT=60 MULT=1 ICHARG=0 $END  
 INPUT CARD> $SYSTEM MEMDDI=1000 MWORDS=30 $END                                             
 INPUT CARD> $STATPT NSTEP=999 $END                                                         
 INPUT CARD> $SCF DIRSCF=.TRUE. $END                                                        
 INPUT CARD> $DATA                                                                          
 INPUT CARD>                                                                                
 INPUT CARD>C1                                                                              
 INPUT CARD>C 6.0000000 -0.47989 0.22872 -0.38429                                           
 INPUT CARD>H 1.0000000 -0.40018 -0.01311 -1.44818                                          
 INPUT CARD>C 6.0000000 0.58550 -0.50682 0.42716                                            
 INPUT CARD>C 6.0000000 2.00337 -0.06711 0.05810                                            
 INPUT CARD>N 7.0000000 2.99095 -0.94764 0.41242                                            
 INPUT CARD>O 8.0000000 2.24882 0.99094 -0.50281                                            
 INPUT CARD>H 1.0000000 0.45042 -0.30627 1.49959                                            
 INPUT CARD>H 1.0000000 0.49404 -1.59396 0.30690                                            
 INPUT CARD>H 1.0000000 2.80399 -1.77346 0.95786                                            
 INPUT CARD>H 1.0000000 3.94867 -0.65654 0.28579                                            
 INPUT CARD>H 1.0000000 -1.48355 -0.04360 -0.04390                                          
 INPUT CARD>H 1.0000000 -0.35256 1.30897 -0.28468                                           
 INPUT CARD> $END                                                                           
   30000000 WORDS OF MEMORY AVAILABLE

     BASIS OPTIONS
     -------------
     GBASIS=N21          IGAUSS=       3      POLAR=NONE    
     NDFUNC=       0     NFFUNC=       0     DIFFSP=       F
     NPFUNC=       0      DIFFS=       F     BASNAM=        


     RUN TITLE
     ---------
                                                                                 

 THE POINT GROUP OF THE MOLECULE IS C1      
 THE ORDER OF THE PRINCIPAL AXIS IS     0

 ATOM      ATOMIC                      COORDINATES (BOHR)
           CHARGE         X                   Y                   Z
 C           6.0    -0.9068606042        0.4322181279       -0.7262027998
 H           1.0    -0.7562305458       -0.0247743077       -2.7366633809
 C           6.0     1.1064345658       -0.9577509251        0.8072153529
 C           6.0     3.7858203520       -0.1268195110        0.1097930799
 N           7.0     5.6520759430       -1.7907799350        0.7793607919
 O           8.0     4.2496535957        1.8726050703       -0.9501731239
 H           1.0     0.8511703794       -0.5787663783        2.8338141939
 H           1.0     0.9336002270       -3.0121476354        0.5799569056
 H           1.0     5.2987727723       -3.3513534502        1.8100929346
 H           1.0     7.4619043159       -1.2406807000        0.5400647900
 H           1.0    -2.8035029891       -0.0823920531       -0.0829589709
 H           1.0    -0.6662417942        2.4735946261       -0.5379671942

          INTERNUCLEAR DISTANCES (ANGS.)
          ------------------------------

                1 C          2 H          3 C          4 C          5 N     

   1 C       0.0000000    1.0939366 *  1.5279156 *  2.5396465 *  3.7503733  
   2 H       1.0939366 *  0.0000000    2.1753654 *  2.8370492 *  3.9793142  
   3 C       1.5279156 *  2.1753654 *  0.0000000    1.5296750 *  2.4455530 *
   4 C       2.5396465 *  2.8370492 *  1.5296750 *  0.0000000    1.3697409 *
   5 N       3.7503733    3.9793142    2.4455530 *  1.3697409 *  0.0000000  
   6 O       2.8356454 *  2.9864765 *  2.4237910 *  1.2224302 *  2.2685888 *
   7 H       2.1681086 *  3.0820141    1.0993512 *  2.1323097 *  2.8368269 *
   8 H       2.1790928 *  2.5256726 *  1.0975886 *  2.1613073 *  2.5813608 *
   9 H       4.0735684    4.3765930    2.6091603 *  2.0885858 *  1.0071929 *
  10 H       4.5656145    4.7257963    3.3694679    2.0453514 *  1.0089608 *
  11 H       1.0942381 *  1.7738722 *  2.1719664 *  3.4884908    4.5876646  
  12 H       1.0922798 *  1.7617876 *  2.1642010 *  2.7498183 *  4.0935677  

                6 O          7 H          8 H          9 H         10 H     

   1 C       2.8356454 *  2.1681086 *  2.1790928 *  4.0735684    4.5656145  
   2 H       2.9864765 *  3.0820141    2.5256726 *  4.3765930    4.7257963  
   3 C       2.4237910 *  1.0993512 *  1.0975886 *  2.6091603 *  3.3694679  
   4 C       1.2224302 *  2.1323097 *  2.1613073 *  2.0885858 *  2.0453514 *
   5 N       2.2685888 *  2.8368269 *  2.5813608 *  1.0071929 *  1.0089608 *
   6 O       0.0000000    2.9877420 *  3.2274744    3.1754807    2.4951093 *
   7 H       2.9877420 *  0.0000000    1.7557214 *  2.8258467 *  3.7193753  
   8 H       3.2274744    1.7557214 *  0.0000000    2.4066238 *  3.5796187  
   9 H       3.1754807    2.8258467 *  2.4066238 *  0.0000000    1.7347855 *
  10 H       2.4951093 *  3.7193753    3.5796187    1.7347855 *  0.0000000  
  11 H       3.9001868    2.4882920 *  2.5372306 *  4.7306382    5.4766235  
  12 H       2.6298102 *  2.5372025 *  3.0811850    4.5835672    4.7633229  

               11 H         12 H     

   1 C       1.0942381 *  1.0922798 *
   2 H       1.7738722 *  1.7617876 *
   3 C       2.1719664 *  2.1642010 *
   4 C       3.4884908    2.7498183 *
   5 N       4.5876646    4.0935677  
   6 O       3.9001868    2.6298102 *
   7 H       2.4882920 *  2.5372025 *
   8 H       2.5372306 *  3.0811850  
   9 H       4.7306382    4.5835672  
  10 H       5.4766235    4.7633229  
  11 H       0.0000000    1.7794828 *
  12 H       1.7794828 *  0.0000000  

  * ... LESS THAN  3.000


     ATOMIC BASIS SET
     ----------------
 THE CONTRACTED PRIMITIVE FUNCTIONS HAVE BEEN UNNORMALIZED
 THE CONTRACTED BASIS FUNCTIONS ARE NOW NORMALIZED TO UNITY

  SHELL TYPE  PRIMITIVE        EXPONENT          CONTRACTION COEFFICIENT(S)

 C         

      1   S       1           172.2560000    0.061766907377
      1   S       2            25.9109000    0.358794042852
      1   S       3             5.5333500    0.700713083689

      2   L       4             3.6649800   -0.395895162119    0.236459946619
      2   L       5             0.7705450    1.215834355681    0.860618805716

      3   L       6             0.1958570    1.000000000000    1.000000000000

 H         

      4   S       7             5.4471780    0.156284978695
      4   S       8             0.8245472    0.904690876670

      5   S       9             0.1831916    1.000000000000

 C         

      6   S      10           172.2560000    0.061766907377
      6   S      11            25.9109000    0.358794042852
      6   S      12             5.5333500    0.700713083689

      7   L      13             3.6649800   -0.395895162119    0.236459946619
      7   L      14             0.7705450    1.215834355681    0.860618805716

      8   L      15             0.1958570    1.000000000000    1.000000000000

 C         

      9   S      16           172.2560000    0.061766907377
      9   S      17            25.9109000    0.358794042852
      9   S      18             5.5333500    0.700713083689

     10   L      19             3.6649800   -0.395895162119    0.236459946619
     10   L      20             0.7705450    1.215834355681    0.860618805716

     11   L      21             0.1958570    1.000000000000    1.000000000000

 N         

     12   S      22           242.7660000    0.059865700508
     12   S      23            36.4851000    0.352955002994
     12   S      24             7.8144900    0.706513005993

     13   L      25             5.4252200   -0.413300077430    0.237972016222
     13   L      26             1.1491500    1.224417266851    0.858953058551

     14   L      27             0.2832050    1.000000000000    1.000000000000

 O         

     15   S      28           322.0370000    0.059239393389
     15   S      29            48.4308000    0.351499960776
     15   S      30            10.4206000    0.707657921031

     16   L      31             7.4029400   -0.404453583190    0.244586106967
     16   L      32             1.5762000    1.221561761397    0.853955373466

     17   L      33             0.3736840    1.000000000000    1.000000000000

 H         

     18   S      34             5.4471780    0.156284978695
     18   S      35             0.8245472    0.904690876670

     19   S      36             0.1831916    1.000000000000

 H         

     20   S      37             5.4471780    0.156284978695
     20   S      38             0.8245472    0.904690876670

     21   S      39             0.1831916    1.000000000000

 H         

     22   S      40             5.4471780    0.156284978695
     22   S      41             0.8245472    0.904690876670

     23   S      42             0.1831916    1.000000000000

 H         

     24   S      43             5.4471780    0.156284978695
     24   S      44             0.8245472    0.904690876670

     25   S      45             0.1831916    1.000000000000

 H         

     26   S      46             5.4471780    0.156284978695
     26   S      47             0.8245472    0.904690876670

     27   S      48             0.1831916    1.000000000000

 H         

     28   S      49             5.4471780    0.156284978695
     28   S      50             0.8245472    0.904690876670

     29   S      51             0.1831916    1.000000000000

 TOTAL NUMBER OF BASIS SET SHELLS             =   29
 NUMBER OF CARTESIAN GAUSSIAN BASIS FUNCTIONS =   59
 NUMBER OF ELECTRONS                          =   40
 CHARGE OF MOLECULE                           =    0
 SPIN MULTIPLICITY                            =    1
 NUMBER OF OCCUPIED ORBITALS (ALPHA)          =   20
 NUMBER OF OCCUPIED ORBITALS (BETA )          =   20
 TOTAL NUMBER OF ATOMS                        =   12
 THE NUCLEAR REPULSION ENERGY IS      178.2473114322

 SELECTED MURRAY-HANDY-LAMING RADIAL GRID

 LEGACY BECKE'S FUZZY CELL METHOD

 SELECTED ORIGINAL BECKE'S PARTITION FUNCTION

     LEBEDEV GRID-BASED DFT OPTIONS
     ------------------------------
     DFTTYP=B3LYP   
     NRAD  =      96     NLEB  =     302
     NRAD0 =      24     NLEB0 =     110
     SWOFF =    5.00E-03 (PURE SCF -> DFT)
     SWITCH=    3.00E-04 (COARSE -> TIGHT GRID)
     THRESH=    0.00E+00 GTHRE=    1.00E+00

 GRIMME'S EMPIRICAL DISPERSION CORRECTION= F

     $CONTRL OPTIONS
     ---------------
 SCFTYP=RHF          RUNTYP=OPTIMIZE     EXETYP=RUN     
 MPLEVL=       0     CITYP =NONE         CCTYP =NONE         VBTYP =NONE    
 DFTTYP=B3LYP        TDDFT =NONE    
 MULT  =       1     ICHARG=       0     NZVAR =       0     COORD =UNIQUE  
 PP    =NONE         RELWFN=NONE         LOCAL =NONE         NUMGRD=       F
 ISPHER=      -1     NOSYM =       0     MAXIT =      60     UNITS =ANGS    
 PLTORB=       F     MOLPLT=       F     AIMPAC=       F     FRIEND=        
 NPRINT=       7     IREST =       0     GEOM  =INPUT   
 NORMF =       0     NORMP =       0     ITOL  =      20     ICUT  =       9
 INTTYP=BEST         GRDTYP=BEST         QMTTOL= 1.0E-06

     $SYSTEM OPTIONS
     ---------------
  REPLICATED MEMORY=    30000000 WORDS (ON EVERY NODE).
 DISTRIBUTED MEMDDI=        1000 MILLION WORDS IN AGGREGATE,
 MEMDDI DISTRIBUTED OVER   6 PROCESSORS IS   166666666 WORDS/PROCESSOR.
 TOTAL MEMORY REQUESTED ON EACH PROCESSOR=   196666666 WORDS.
 TIMLIM=      525600.00 MINUTES, OR     365.0 DAYS.
 PARALL= T  BALTYP=  DLB     KDIAG=    0  COREFL= F
 MXSEQ2=     300 MXSEQ3=     150  mem10=         0

          ----------------
          PROPERTIES INPUT
          ----------------

     MOMENTS            FIELD           POTENTIAL          DENSITY
 IEMOM =       1   IEFLD =       0   IEPOT =       0   IEDEN =       0
 WHERE =COMASS     WHERE =NUCLEI     WHERE =NUCLEI     WHERE =NUCLEI  
 OUTPUT=BOTH       OUTPUT=BOTH       OUTPUT=BOTH       OUTPUT=BOTH    
 IEMINT=       0   IEFINT=       0                     IEDINT=       0
                                                       MORB  =       0
          EXTRAPOLATION IN EFFECT
          DIIS IN EFFECT
 ORBITAL PRINTING OPTION: NPREO=     1    59     2     1

     -------------------------------
     INTEGRAL TRANSFORMATION OPTIONS
     -------------------------------
     NWORD  =            0
     CUTOFF = 1.0E-09     MPTRAN =       0
     DIRTRF =       T     AOINTS =DUP     

          ----------------------
          INTEGRAL INPUT OPTIONS
          ----------------------
 NOPK  =       1 NORDER=       0 SCHWRZ=       T

     ------------------------------------------
     THE POINT GROUP IS C1 , NAXIS= 0, ORDER= 1
     ------------------------------------------

     DIMENSIONS OF THE SYMMETRY SUBSPACES ARE
 A   =   59

 ..... DONE SETTING UP THE RUN .....
 CPU     0: STEP CPU TIME=     0.02 TOTAL CPU TIME=          0.0 (      0.0 MIN)
 TOTAL WALL CLOCK TIME=          0.0 SECONDS, CPU UTILIZATION IS    66.67%


          -----------------------------
          STATIONARY POINT LOCATION RUN
          -----------------------------

 OBTAINING INITIAL HESSIAN, HESS=GUESS   
 CARTESIAN COORDINATE OPTIMIZATION USING BADGER'S RULE FORCE CONSTANT GUESS

          PARAMETERS CONTROLLING GEOMETRY SEARCH ARE
          METHOD =QA                  UPHESS =BFGS    
          NNEG   =         0          NFRZ   =         0
          NSTEP  =       999          IFOLOW =         1
          HESS   =GUESS               RESTAR =         F
          IHREP  =         0          HSSEND =         F
          NPRT   =         0          NPUN   =         0
          OPTTOL = 1.000E-04          RMIN   = 1.500E-03
          RMAX   = 1.000E-01          RLIM   = 7.000E-02
          DXMAX  = 3.000E-01          PURIFY =         F
          MOVIE  =         F          TRUPD  =         T
          TRMAX  = 5.000E-01          TRMIN  = 5.000E-02
          ITBMAT =         5          STPT   =         F
          STSTEP = 1.000E-02          PROJCT=          T

 BEGINNING GEOMETRY SEARCH POINT NSERCH=   0 ...

 COORDINATES OF ALL ATOMS ARE (ANGS)
   ATOM   CHARGE       X              Y              Z
 ------------------------------------------------------------
 C           6.0  -0.4798900000   0.2287200000  -0.3842900000
 H           1.0  -0.4001800000  -0.0131100000  -1.4481800000
 C           6.0   0.5855000000  -0.5068200000   0.4271600000
 C           6.0   2.0033700000  -0.0671100000   0.0581000000
 N           7.0   2.9909500000  -0.9476400000   0.4124200000
 O           8.0   2.2488200000   0.9909400000  -0.5028100000
 H           1.0   0.4504200000  -0.3062700000   1.4995900000
 H           1.0   0.4940400000  -1.5939600000   0.3069000000
 H           1.0   2.8039900000  -1.7734600000   0.9578600000
 H           1.0   3.9486700000  -0.6565400000   0.2857900000
 H           1.0  -1.4835500000  -0.0436000000  -0.0439000000
 H           1.0  -0.3525600000   1.3089700000  -0.2846800000

          ********************
          1 ELECTRON INTEGRALS
          ********************
 ...... END OF ONE-ELECTRON INTEGRALS ......
 CPU     0: STEP CPU TIME=     0.01 TOTAL CPU TIME=          0.0 (      0.0 MIN)
 TOTAL WALL CLOCK TIME=          0.0 SECONDS, CPU UTILIZATION IS    75.00%

          -------------
          GUESS OPTIONS
          -------------
          GUESS =HUCKEL            NORB  =       0          NORDER=       0
          MIX   =       F          PRTMO =       F          PUNMO =       F
          TOLZ  = 1.0E-08          TOLE  = 1.0E-05
          SYMDEN=       F          PURIFY=       F

 INITIAL GUESS ORBITALS GENERATED BY HUCKEL   ROUTINE.
 HUCKEL GUESS REQUIRES     38133 WORDS.

 SYMMETRIES FOR INITIAL GUESS ORBITALS FOLLOW.   BOTH SET(S).
    20 ORBITALS ARE OCCUPIED (    5 CORE ORBITALS).
     6=A        7=A        8=A        9=A       10=A       11=A       12=A   
    13=A       14=A       15=A       16=A       17=A       18=A       19=A   
    20=A       21=A       22=A       23=A       24=A       25=A       26=A   
    27=A       28=A       29=A       30=A   
 ...... END OF INITIAL ORBITAL SELECTION ......
 CPU     0: STEP CPU TIME=     0.01 TOTAL CPU TIME=          0.0 (      0.0 MIN)
 TOTAL WALL CLOCK TIME=          0.1 SECONDS, CPU UTILIZATION IS    80.00%

                    ----------------------
                    AO INTEGRAL TECHNOLOGY
                    ----------------------
     S,P,L SHELL ROTATED AXIS INTEGRALS, REPROGRAMMED BY
        KAZUYA ISHIMURA (IMS) AND JOSE SIERRA (SYNSTAR).
     S,P,D,L SHELL ROTATED AXIS INTEGRALS PROGRAMMED BY
        KAZUYA ISHIMURA (INSTITUTE FOR MOLECULAR SCIENCE).
     S,P,D,F,G SHELL TO TOTAL QUARTET ANGULAR MOMENTUM SUM 5,
        ERIC PROGRAM BY GRAHAM FLETCHER (ELORET AND NASA ADVANCED
        SUPERCOMPUTING DIVISION, AMES RESEARCH CENTER).
     S,P,D,F,G,L SHELL GENERAL RYS QUADRATURE PROGRAMMED BY
        MICHEL DUPUIS (PACIFIC NORTHWEST NATIONAL LABORATORY).

          --------------------
          2 ELECTRON INTEGRALS
          --------------------

 DIRECT SCF METHOD SKIPS INTEGRAL STORAGE ON DISK.
 DIRECT TRANSFORMATION SKIPS AO INTEGRAL STORAGE ON DISK.
  ...... END OF TWO-ELECTRON INTEGRALS .....
 CPU     0: STEP CPU TIME=     0.01 TOTAL CPU TIME=          0.0 (      0.0 MIN)
 TOTAL WALL CLOCK TIME=          0.1 SECONDS, CPU UTILIZATION IS    83.33%

          --------------------------
             R-B3LYP SCF CALCULATION
          --------------------------

     NUCLEAR ENERGY =       178.2473114322
     MAXIT =   60     NPUNCH=    2
     EXTRAP=T  DAMP=F  SHIFT=F  RSTRCT=F  DIIS=T  DEM=F  SOSCF=F
         DENSITY MATRIX CONVERGENCE THRESHOLD=  2.00E-05
     COARSE -> FINE DFT GRID SWITCH THRESHOLD=  3.00E-04 (SWITCH IN $DFT)
                   HF -> DFT SWITCH THRESHOLD=  5.00E-03 (SWOFF IN $DFT)
     MEMORY REQUIRED FOR RHF ITERS=    480988 WORDS.

 DIRECT SCF CALCULATION, SCHWRZ=T   FDIFF=T,  DIRTHR=  0.00E+00 NITDIR=10
 SCHWARZ INEQUALITY OVERHEAD:      1753 INTEGRALS, T=        0.00

 DFT CODE IS SWITCHING FROM THE FINE GRID NRAD= 96,  NLEB=  302
                      TO THE COARSE GRID NRAD0= 24, NLEB0=  110

     EXCHANGE FUNCTIONAL   =B88&HFX   
     CORRELATION FUNCTIONAL=LYP88&VWN5
     DFT THRESHOLD         =.115E-07
     GRID CHANGE THRESHOLD =.300E-03
 FOR AN EULER-MACLAURIN QUADRATURE USING  96 RADIAL POINTS:
 SMALLEST GAUSSIAN PRIMITIVE EXPONENT=        0.1831915800 OF TYPE -S-
 ON ATOM NUMBER   2 HAS RADIAL NORMALIZATION=  1.000000
  LARGEST GAUSSIAN PRIMITIVE EXPONENT=      322.0370000000 OF TYPE -S-
 ON ATOM NUMBER   6 HAS RADIAL NORMALIZATION=  1.000000
 DFT IS SWITCHED OFF, PERFORMING PURE SCF UNTIL SWOFF THRESHOLD IS REACHED.

                                                                                   NONZERO     BLOCKS
 ITER EX DEM     TOTAL ENERGY        E CHANGE  DENSITY CHANGE    DIIS ERROR      INTEGRALS    SKIPPED
   1  0  0     -244.9709598007  -244.9709598007   0.790122559   0.624109610        1347382      21772
          * * *   INITIATING DIIS PROCEDURE   * * *
   2  1  0     -245.5298924241    -0.5589326234   0.176667216   0.216280878        1345220      22870
   3  2  0     -245.5800627074    -0.0501702833   0.100158260   0.159500448        1340307      24343
   4  3  0     -245.6353794484    -0.0553167409   0.028027313   0.007845582        1332358      25877
   5  4  0     -245.6360223452    -0.0006428968   0.004638915   0.002780362        1311308      28515
 CONVERGED TO SWOFF, SO DFT CALCULATION IS NOW SWITCHED ON.
          * * *   INITIATING DIIS PROCEDURE   * * *
   6  5  0     -246.9918870853    -1.3558647400   0.087832276   0.078264469        1347710      21563
   7  6  0     -247.0071016876    -0.0152146023   0.096491842   0.042616526        1339156      24662
   8  7  0     -247.0067882754     0.0003134121   0.054031747   0.060031767        1332849      25530
   9  8  0     -247.0146634990    -0.0078752235   0.015525523   0.021449020        1325694      26843
  10  9  0     -247.0153044232    -0.0006409242   0.003698583   0.003968284        1310306      28727
  11 10  0     -247.0153295588    -0.0000251356   0.000596017   0.000465178        1273215      32487
  12 11  0     -247.0153303983    -0.0000008395   0.000120752   0.000105716        1241325      35334
 DFT CODE IS SWITCHING BACK TO THE FINE GRID
          * * *   INITIATING DIIS PROCEDURE   * * *
  13 12  0     -247.0150187025     0.0003116958   0.001586142   0.000957522        1347937      21410
  14 13  0     -247.0150241292    -0.0000054267   0.001149413   0.000922939        1272456      32450
  15 14  0     -247.0150232459     0.0000008833   0.000780385   0.001219473        1248082      35322
  16 15  0     -247.0150249982    -0.0000017523   0.000057122   0.000060548        1236010      36489
  17 16  0     -247.0150250085    -0.0000000103   0.000019161   0.000024595        1156363      42547
  18 17  0     -247.0150250104    -0.0000000019   0.000007390   0.000008519        1105265      46177

          -----------------
          DENSITY CONVERGED
          -----------------
     TIME TO FORM FOCK OPERATORS=       3.0 SECONDS (       0.2 SEC/ITER)
     FOCK TIME ON FIRST ITERATION=       0.0, LAST ITERATION=       0.4
     TIME TO SOLVE SCF EQUATIONS=       0.1 SECONDS (       0.0 SEC/ITER)

 FINAL R-B3LYP ENERGY IS     -247.0150250104 AFTER  18 ITERATIONS
 DFT EXCHANGE + CORRELATION ENERGY =       -27.6306632797
 TOTAL ELECTRON NUMBER             =        40.0000325013

          ------------
          EIGENVECTORS
          ------------

                      1          2          3          4          5
                  -18.9871   -14.2579   -10.2138   -10.1235   -10.1024
                     A          A          A          A          A   
    1  C  1  S   -0.000027  -0.000122  -0.001609  -0.016589   0.986154
    2  C  1  S    0.000015  -0.000934  -0.001508  -0.004618   0.112156
    3  C  1  X    0.000677  -0.001017  -0.001128   0.000423   0.000297
    4  C  1  Y   -0.000107  -0.000009   0.000093  -0.000059  -0.000034
    5  C  1  Z   -0.000131   0.000034  -0.000085  -0.000013  -0.000019
    6  C  1  S    0.004881  -0.000894   0.002892   0.026641  -0.090019
    7  C  1  X   -0.001239   0.003533   0.002929   0.010317  -0.004379
    8  C  1  Y   -0.001531   0.000867  -0.000948  -0.006533   0.002042
    9  C  1  Z    0.003964  -0.002412   0.001491   0.008151  -0.001819
   10  H  2  S    0.000484  -0.000460  -0.000482  -0.001442  -0.000046
   11  H  2  S    0.000660  -0.000977   0.000505   0.000897   0.016214
   12  C  3  S   -0.000056  -0.000056  -0.004843   0.986737   0.015976
   13  C  3  S   -0.000292  -0.000749  -0.003270   0.115878  -0.000207
   14  C  3  X   -0.000332  -0.000209  -0.000536   0.000000   0.000057
   15  C  3  Y    0.000484  -0.000299  -0.000160   0.000199  -0.000065
   16  C  3  Z   -0.000099  -0.000076   0.000403   0.000072   0.000232
   17  C  3  S    0.007596   0.001620   0.024244  -0.108231   0.017577
   18  C  3  X    0.009887  -0.002326   0.018722  -0.002826  -0.009494
   19  C  3  Y   -0.007450   0.005193   0.001764  -0.007569   0.004612
   20  C  3  Z    0.002053  -0.000530  -0.003455   0.005519  -0.006783
   21  C  4  S    0.000296  -0.000343   0.985347   0.004147   0.001495
   22  C  4  S    0.002007  -0.001940   0.105302  -0.002487  -0.000869
   23  C  4  X    0.000287   0.000042  -0.000700   0.000192   0.001033
   24  C  4  Y    0.001522   0.000045   0.000658   0.000293  -0.000179
   25  C  4  Z   -0.000754  -0.000074  -0.000229  -0.000135   0.000244
   26  C  4  S    0.016397   0.024407  -0.056664   0.025254  -0.000747
   27  C  4  X    0.009807   0.018788   0.020059  -0.019879  -0.005111
   28  C  4  Y    0.030262  -0.016843   0.015551  -0.001717   0.003524
   29  C  4  Z   -0.016313   0.006943  -0.009900   0.002350  -0.001365
   30  N  5  S   -0.000089   0.984932   0.000234  -0.000054  -0.000113
   31  N  5  S   -0.000601   0.110401  -0.000327  -0.000908  -0.001003
   32  N  5  X    0.001057  -0.000886   0.001467   0.000664   0.000394
   33  N  5  Y    0.000695   0.001167   0.000180  -0.000367  -0.000224
   34  N  5  Z   -0.000434   0.000143  -0.000198   0.000121  -0.000023
   35  N  5  S    0.005042  -0.074808   0.006824   0.002586   0.004524
   36  N  5  X   -0.008561   0.009097  -0.006959  -0.000975  -0.002880
   37  N  5  Y   -0.006022  -0.009489  -0.005339   0.002527   0.001921
   38  N  5  Z    0.003824   0.002634   0.003324  -0.001143  -0.000449
   39  O  6  S    0.982864  -0.000007   0.000456   0.000041   0.000034
   40  O  6  S    0.108253  -0.000471   0.002141   0.000091   0.000234
   41  O  6  X   -0.000792   0.000701   0.000692  -0.000291  -0.000024
   42  O  6  Y   -0.004126   0.000037   0.000697   0.000204   0.000126
   43  O  6  Z    0.002194  -0.000093  -0.000445  -0.000189   0.000086
   44  O  6  S   -0.066958   0.002091  -0.007956  -0.001686  -0.001586
   45  O  6  X    0.002987  -0.004804  -0.001953   0.003215   0.001058
   46  O  6  Y    0.015926   0.001160   0.006597   0.000248  -0.000226
   47  O  6  Z   -0.008418  -0.000144  -0.003084  -0.000056  -0.000370
   48  H  7  S   -0.000030   0.000072  -0.001779   0.001080  -0.001152
   49  H  7  S   -0.000389  -0.001415   0.003299   0.016400   0.001674
   50  H  8  S   -0.001289   0.000556  -0.001817   0.000610  -0.001282
   51  H  8  S   -0.002265   0.001194   0.001164   0.015695   0.000699
   52  H  9  S   -0.002657   0.000894  -0.002695   0.000252  -0.000437
   53  H  9  S   -0.001273   0.007681  -0.001044   0.000424   0.001185
   54  H 10  S    0.002434   0.001596   0.001285  -0.000407   0.000010
   55  H 10  S    0.001306   0.007266   0.002622   0.001777   0.000908
   56  H 11  S   -0.000708   0.000406  -0.000255  -0.001277  -0.000298
   57  H 11  S   -0.001498   0.002363   0.002110  -0.000413   0.015197
   58  H 12  S   -0.000150  -0.000494  -0.000429  -0.001620  -0.000077
   59  H 12  S    0.000183   0.000213   0.000051   0.000497   0.016008

                      6          7          8          9         10
                   -1.0329    -0.8936    -0.7684    -0.6474    -0.5669
                     A          A          A          A          A   
    1  C  1  S   -0.006104  -0.001822  -0.132656  -0.153286   0.053256
    2  C  1  S    0.007435   0.003668   0.131601   0.143929  -0.051741
    3  C  1  X    0.005130   0.004870   0.040860  -0.043165   0.042488
    4  C  1  Y   -0.000749  -0.002307  -0.027133   0.020062  -0.033867
    5  C  1  Z    0.002216   0.001004   0.029993  -0.023372   0.047182
    6  C  1  S   -0.008183   0.015636   0.319948   0.487643  -0.189519
    7  C  1  X    0.002946  -0.015303  -0.003596  -0.005178   0.031131
    8  C  1  Y    0.005749  -0.004887  -0.002762   0.001428  -0.016583
    9  C  1  Z   -0.013391   0.012651   0.001516  -0.001765   0.019035
   10  H  2  S    0.001638   0.002177   0.062646   0.097653  -0.053705
   11  H  2  S   -0.002562   0.003112  -0.001437   0.023064  -0.024233
   12  C  3  S   -0.022012  -0.021587  -0.170231   0.076062  -0.069078
   13  C  3  S    0.021545   0.020961   0.160611  -0.070906   0.061506
   14  C  3  X    0.020700   0.019208  -0.010889  -0.129118  -0.034173
   15  C  3  Y    0.009292  -0.007591   0.022222   0.042409  -0.026919
   16  C  3  Z   -0.007273   0.002618  -0.021639  -0.048332   0.048794
   17  C  3  S    0.009190   0.052987   0.465364  -0.258095   0.266445
   18  C  3  X   -0.035959   0.025402   0.010605  -0.034725   0.002918
   19  C  3  Y    0.019137  -0.028208   0.011646   0.014478  -0.006918
   20  C  3  Z   -0.002295   0.009208  -0.004159  -0.017813   0.030981
   21  C  4  S   -0.138505  -0.039062  -0.034759   0.081271   0.093561
   22  C  4  S    0.152571   0.049468   0.043395  -0.093321  -0.112181
   23  C  4  X    0.052432   0.061351  -0.111827   0.069942  -0.161500
   24  C  4  Y    0.113642  -0.155610  -0.042918   0.085025   0.126554
   25  C  4  Z   -0.061806   0.076075   0.030179  -0.057914  -0.034275
   26  C  4  S    0.157175   0.031652   0.052243  -0.191132  -0.251482
   27  C  4  X   -0.046571  -0.022817  -0.003107   0.046679  -0.025794
   28  C  4  Y   -0.065536   0.024192  -0.022998   0.053631   0.066349
   29  C  4  Z    0.038680  -0.010815   0.012879  -0.039408  -0.026516
   30  N  5  S   -0.060383  -0.204237   0.039265  -0.042580  -0.022266
   31  N  5  S    0.055826   0.188129  -0.035092   0.039510   0.019904
   32  N  5  X   -0.021590  -0.025450  -0.039421   0.135776   0.182445
   33  N  5  Y    0.030067   0.016496  -0.003705  -0.038752  -0.242895
   34  N  5  Z   -0.009264   0.012659   0.000039   0.017430   0.134110
   35  N  5  S    0.148206   0.630143  -0.137816   0.156175   0.082108
   36  N  5  X    0.007414  -0.044332  -0.019005   0.095953   0.134699
   37  N  5  Y    0.044488   0.028383  -0.012425  -0.028715  -0.198721
   38  N  5  Z   -0.019378   0.008020   0.002378   0.015787   0.112034
   39  O  6  S   -0.192635   0.087799   0.031690  -0.030795  -0.054280
   40  O  6  S    0.178753  -0.083914  -0.032354   0.031918   0.052103
   41  O  6  X   -0.026019   0.021831  -0.021423   0.013557  -0.045048
   42  O  6  Y   -0.125798   0.037870   0.012986   0.006452   0.049490
   43  O  6  Z    0.066845  -0.021071  -0.005430  -0.008116  -0.014461
   44  O  6  S    0.605166  -0.288960  -0.098866   0.099588   0.201672
   45  O  6  X   -0.017686   0.027028  -0.021280   0.007325  -0.040961
   46  O  6  Y   -0.124651   0.034690   0.010677   0.010115   0.040227
   47  O  6  Z    0.065508  -0.019983  -0.004751  -0.007545  -0.009842
   48  H  7  S    0.007424   0.008833   0.083166  -0.056288   0.070071
   49  H  7  S   -0.007243   0.000307  -0.002876  -0.010760   0.032371
   50  H  8  S    0.009456   0.010171   0.082718  -0.057772   0.061073
   51  H  8  S    0.000889  -0.004931   0.001018  -0.013116   0.035120
   52  H  9  S    0.027045   0.107747  -0.018946   0.038191   0.162457
   53  H  9  S    0.004636   0.022370  -0.007426   0.017231   0.110625
   54  H 10  S    0.018355   0.100219  -0.038581   0.089563   0.071182
   55  H 10  S   -0.000921   0.018365  -0.018177   0.046832   0.051348
   56  H 11  S    0.003042  -0.000676   0.062081   0.103956  -0.044977
   57  H 11  S    0.003345  -0.012334  -0.001433   0.030401  -0.010805
   58  H 12  S    0.002926   0.001381   0.062824   0.095654  -0.046992
   59  H 12  S    0.003532  -0.004043  -0.002940   0.021562  -0.009657

                     11         12         13         14         15
                   -0.5260    -0.4716    -0.4556    -0.3906    -0.3858
                     A          A          A          A          A   
    1  C  1  S    0.027840  -0.002905  -0.006793  -0.000351  -0.002109
    2  C  1  S   -0.023369   0.000023   0.005372  -0.001506   0.003512
    3  C  1  X    0.021685  -0.117279  -0.073552   0.115727   0.113223
    4  C  1  Y   -0.050032  -0.101676   0.122880   0.157100   0.073750
    5  C  1  Z    0.062620   0.028321   0.132435  -0.099392   0.236901
    6  C  1  S   -0.124978   0.021690   0.035082   0.020360  -0.005774
    7  C  1  X   -0.003871  -0.069520  -0.050015   0.100262   0.080487
    8  C  1  Y   -0.023169  -0.077963   0.080839   0.104401   0.075039
    9  C  1  Z    0.028822   0.029936   0.098583  -0.057378   0.177939
   10  H  2  S   -0.044657  -0.006419  -0.094284   0.048664  -0.163211
   11  H  2  S   -0.026190  -0.000372  -0.077301   0.052535  -0.144633
   12  C  3  S   -0.060713  -0.008681   0.010003  -0.010437  -0.012951
   13  C  3  S    0.051740   0.003551  -0.009820   0.005205   0.012602
   14  C  3  X   -0.088473  -0.153415  -0.027217   0.068341  -0.133624
   15  C  3  Y   -0.035511  -0.206002   0.151100  -0.015722   0.106290
   16  C  3  Z    0.064308   0.076165   0.239325   0.025247  -0.053533
   17  C  3  S    0.255403   0.068830  -0.034520   0.088392   0.055742
   18  C  3  X   -0.055687  -0.058785  -0.012627   0.121492  -0.095167
   19  C  3  Y   -0.008721  -0.154750   0.108725  -0.034089   0.089658
   20  C  3  Z    0.026444   0.056137   0.180086   0.028565  -0.033753
   21  C  4  S    0.023013   0.056192   0.004117   0.056828   0.011047
   22  C  4  S   -0.022669  -0.067011  -0.005667  -0.079224  -0.008515
   23  C  4  X    0.087508   0.218802   0.069588  -0.028290   0.049926
   24  C  4  Y    0.044311  -0.079121   0.059956  -0.214944  -0.100638
   25  C  4  Z   -0.016211  -0.005374   0.156018   0.104508  -0.208075
   26  C  4  S   -0.081511  -0.192450  -0.014401  -0.166242  -0.052100
   27  C  4  X    0.082267   0.165586   0.041198   0.038132   0.034338
   28  C  4  Y    0.032952  -0.003200   0.060971   0.019915  -0.085434
   29  C  4  Z   -0.012557  -0.033612   0.118884  -0.023099  -0.196081
   30  N  5  S   -0.001583  -0.002413  -0.000545  -0.008603  -0.015242
   31  N  5  S    0.003370   0.005216   0.000305   0.006981   0.014417
   32  N  5  X    0.244296  -0.166243  -0.063872  -0.007288  -0.070267
   33  N  5  Y    0.222512  -0.010857   0.036109   0.074478  -0.080739
   34  N  5  Z   -0.128916  -0.001305   0.083636  -0.046861  -0.146446
   35  N  5  S    0.000416   0.003271   0.006532   0.059173   0.065977
   36  N  5  X    0.206553  -0.158019  -0.056087  -0.049393  -0.065133
   37  N  5  Y    0.178151  -0.017096   0.035873   0.051196  -0.081189
   38  N  5  Z   -0.104069   0.001808   0.078431  -0.031076  -0.149230
   39  O  6  S    0.014406  -0.058961  -0.005370  -0.089823   0.000980
   40  O  6  S   -0.010592   0.054237   0.005166   0.079048  -0.000257
   41  O  6  X    0.049557   0.134177   0.031321   0.069569   0.007029
   42  O  6  Y   -0.019826   0.049868   0.052808   0.287963  -0.088582
   43  O  6  Z    0.013373  -0.050400   0.088240  -0.162006  -0.167652
   44  O  6  S   -0.066494   0.231857   0.019419   0.349971  -0.006494
   45  O  6  X    0.043265   0.109047   0.026128   0.062276   0.002359
   46  O  6  Y   -0.009968   0.042114   0.048290   0.280142  -0.081785
   47  O  6  Z    0.007643  -0.042019   0.078627  -0.156918  -0.158418
   48  H  7  S    0.081092   0.039272   0.160079   0.016204  -0.000020
   49  H  7  S    0.043945   0.036004   0.136115   0.013443  -0.011752
   50  H  8  S    0.059089   0.134949  -0.119632   0.009189  -0.049208
   51  H  8  S    0.020249   0.111630  -0.097235   0.000422  -0.042106
   52  H  9  S   -0.188575   0.036747   0.018500  -0.067334   0.016022
   53  H  9  S   -0.130049   0.034657   0.012442  -0.065820   0.010666
   54  H 10  S    0.197442  -0.106815  -0.044428   0.032740  -0.041529
   55  H 10  S    0.130225  -0.075671  -0.036099   0.048587  -0.041771
   56  H 11  S   -0.013042   0.085571   0.053527  -0.126516  -0.031618
   57  H 11  S   -0.005158   0.070390   0.040969  -0.117068  -0.030553
   58  H 12  S   -0.040894  -0.065311   0.080860   0.108951   0.076221
   59  H 12  S   -0.024817  -0.040859   0.063232   0.122614   0.052194

                     16         17         18         19         20
                   -0.3647    -0.3509    -0.3338    -0.2469    -0.2293
                     A          A          A          A          A   
    1  C  1  S   -0.014326  -0.002866   0.004040  -0.000684  -0.006867
    2  C  1  S    0.016950   0.004404  -0.004696  -0.004840   0.012850
    3  C  1  X    0.289356  -0.105041  -0.021270  -0.006328  -0.009519
    4  C  1  Y   -0.156470  -0.197461  -0.164277   0.009153   0.022648
    5  C  1  Z    0.010503   0.167943  -0.167982   0.017955   0.006111
    6  C  1  S    0.035915  -0.001901  -0.013956   0.032574   0.026396
    7  C  1  X    0.198909  -0.076081  -0.006359   0.026304  -0.098169
    8  C  1  Y   -0.118315  -0.163066  -0.138845   0.010673   0.030409
    9  C  1  Z   -0.001528   0.130641  -0.140132   0.013289   0.015784
   10  H  2  S    0.048659  -0.093404   0.155329  -0.018049  -0.005804
   11  H  2  S    0.031321  -0.096274   0.173388  -0.009463  -0.020753
   12  C  3  S   -0.021364  -0.003199   0.001125  -0.001745  -0.035469
   13  C  3  S    0.018353   0.008736  -0.000555   0.003401   0.016118
   14  C  3  X   -0.217604   0.044536   0.008040   0.010877   0.159312
   15  C  3  Y    0.140401   0.126834   0.168936  -0.003945   0.073366
   16  C  3  Z   -0.118452  -0.145990   0.186048  -0.011772  -0.064440
   17  C  3  S    0.108239  -0.010876  -0.002809   0.006253   0.341239
   18  C  3  X   -0.138281   0.024344   0.008842   0.019201   0.223649
   19  C  3  Y    0.113288   0.077254   0.138910  -0.041676   0.109115
   20  C  3  Z   -0.109377  -0.105180   0.166065   0.017681  -0.118716
   21  C  4  S    0.021456  -0.003356   0.002944  -0.003375  -0.012365
   22  C  4  S   -0.018223  -0.009859  -0.006573   0.004478   0.015836
   23  C  4  X    0.143454  -0.145973  -0.017314  -0.004771  -0.072976
   24  C  4  Y    0.058766  -0.133835  -0.069580  -0.029189  -0.021217
   25  C  4  Z    0.092988   0.114024  -0.091918  -0.039279   0.015509
   26  C  4  S   -0.107445   0.072718   0.008466   0.010797   0.046040
   27  C  4  X    0.134555  -0.115319  -0.006805  -0.007277   0.239581
   28  C  4  Y    0.077446  -0.002675  -0.061550  -0.034038  -0.072301
   29  C  4  Z    0.083984   0.049798  -0.115522  -0.067427   0.016709
   30  N  5  S   -0.010770  -0.007823  -0.006859   0.014929   0.045726
   31  N  5  S    0.010328   0.004253   0.007366  -0.014086  -0.023169
   32  N  5  X   -0.095005   0.011215  -0.015483   0.022054   0.082731
   33  N  5  Y    0.051997   0.051601  -0.058470   0.190581  -0.107989
   34  N  5  Z    0.098402   0.002440  -0.100889   0.355255   0.017707
   35  N  5  S    0.050563   0.058431   0.026165  -0.065677  -0.367635
   36  N  5  X   -0.088843  -0.008831  -0.008286   0.029683   0.133074
   37  N  5  Y    0.052536   0.042996  -0.065099   0.248845  -0.168916
   38  N  5  Z    0.103350   0.009168  -0.100739   0.451808   0.031835
   39  O  6  S    0.001453  -0.047268  -0.007475  -0.000195   0.001425
   40  O  6  S    0.000602   0.040420   0.007223   0.000332  -0.001669
   41  O  6  X    0.079572  -0.033388   0.000425   0.003859   0.474823
   42  O  6  Y    0.037477   0.226432  -0.042521  -0.152793  -0.076691
   43  O  6  Z    0.101572  -0.068346  -0.154410  -0.292615   0.020264
   44  O  6  S   -0.015399   0.188091   0.026243  -0.000939  -0.009128
   45  O  6  X    0.067173  -0.021759   0.000711   0.004517   0.499392
   46  O  6  Y    0.041131   0.222280  -0.042052  -0.170921  -0.076683
   47  O  6  Z    0.095774  -0.066953  -0.157979  -0.327475   0.021393
   48  H  7  S   -0.025156  -0.095146   0.176139  -0.007260  -0.031481
   49  H  7  S   -0.021094  -0.108309   0.190046   0.003341  -0.051479
   50  H  8  S   -0.060186  -0.089678  -0.160767   0.000281  -0.042356
   51  H  8  S   -0.069498  -0.110059  -0.177105  -0.051093  -0.078672
   52  H  9  S    0.031425  -0.046420   0.001429   0.010614   0.044225
   53  H  9  S    0.020000  -0.064176  -0.006419   0.014972   0.056550
   54  H 10  S   -0.065570   0.034034  -0.007569   0.008819   0.017044
   55  H 10  S   -0.068923   0.045513  -0.008693   0.009399   0.075264
   56  H 11  S   -0.152910   0.157653   0.002007   0.007893   0.015515
   57  H 11  S   -0.168988   0.165260   0.008705   0.022964  -0.017331
   58  H 12  S   -0.072858  -0.137950  -0.146864   0.005230   0.013175
   59  H 12  S   -0.080484  -0.110014  -0.151571  -0.015546  -0.057876

                     21         22         23         24         25
                    0.0500     0.1038     0.1374     0.1623     0.1764
                     A          A          A          A          A   
    1  C  1  S   -0.022117   0.000169  -0.102320   0.073202  -0.051872
    2  C  1  S    0.009176   0.004972   0.044937  -0.031146   0.018036
    3  C  1  X    0.021575  -0.057173  -0.067827   0.031443   0.051721
    4  C  1  Y   -0.024452   0.028332  -0.020080  -0.066177  -0.117463
    5  C  1  Z    0.014385  -0.037864  -0.003364   0.057224  -0.166120
    6  C  1  S    0.243475  -0.014839   1.341837  -1.014072   0.689940
    7  C  1  X    0.036620  -0.189932  -0.181765   0.051392   0.219079
    8  C  1  Y   -0.121921   0.134336   0.017780  -0.240435  -0.367302
    9  C  1  Z   -0.037132  -0.169671  -0.073153   0.254704  -0.475296
   10  H  2  S   -0.001709  -0.002520  -0.001827   0.021838  -0.090419
   11  H  2  S   -0.109760  -0.121992  -0.511892   0.578369  -1.152611
   12  C  3  S   -0.002657  -0.072836  -0.060292   0.049128   0.041013
   13  C  3  S    0.004974   0.032543   0.026849  -0.029671  -0.011565
   14  C  3  X    0.007183  -0.005921  -0.049079  -0.097250   0.053949
   15  C  3  Y    0.017448  -0.090031  -0.126016  -0.063363  -0.166850
   16  C  3  Z    0.020968   0.032057   0.120249  -0.032103  -0.213240
   17  C  3  S    0.022142   0.879882   0.834388  -0.578606  -0.569656
   18  C  3  X    0.068578  -0.193696   0.008171  -0.347155   0.224487
   19  C  3  Y    0.153507  -0.195319  -0.511777  -0.160743  -0.571215
   20  C  3  Z    0.248956   0.041548   0.480363  -0.188894  -0.602220
   21  C  4  S    0.002885   0.017147  -0.002157  -0.035340   0.003818
   22  C  4  S   -0.000003  -0.006815   0.031284   0.000941  -0.012789
   23  C  4  X    0.031512  -0.061072   0.013931  -0.074102   0.039855
   24  C  4  Y    0.209414   0.031717  -0.072569  -0.027682   0.031513
   25  C  4  Z    0.401957  -0.014824  -0.008132   0.086373   0.060693
   26  C  4  S   -0.035680  -0.046632  -0.151166   0.483399   0.007547
   27  C  4  X    0.064395  -0.007389  -0.088312  -0.196120   0.075961
   28  C  4  Y    0.244173  -0.103901  -0.096721  -0.113138   0.107991
   29  C  4  Z    0.486973   0.049184  -0.013889   0.199009   0.211155
   30  N  5  S   -0.008572  -0.125621   0.059912   0.021925   0.002107
   31  N  5  S    0.005646   0.072724  -0.036973  -0.011228  -0.002219
   32  N  5  X   -0.001589   0.064593  -0.113652  -0.175701   0.026124
   33  N  5  Y   -0.096267  -0.119795  -0.028512  -0.193694  -0.031190
   34  N  5  Z   -0.181414   0.090454   0.009058   0.083486  -0.051154
   35  N  5  S    0.058032   1.148791  -0.535503  -0.231702  -0.016970
   36  N  5  X    0.002361   0.219555  -0.320904  -0.432716   0.066596
   37  N  5  Y   -0.156130  -0.320389  -0.042941  -0.509455  -0.049462
   38  N  5  Z   -0.289176   0.229861   0.026710   0.242925  -0.078216
   39  O  6  S   -0.000905  -0.017740  -0.018197   0.001667  -0.000053
   40  O  6  S    0.000317   0.015200   0.010616  -0.007493   0.001677
   41  O  6  X   -0.021018   0.044433  -0.082091   0.033051  -0.014833
   42  O  6  Y   -0.147246  -0.042560  -0.021180  -0.052172  -0.030640
   43  O  6  Z   -0.283395   0.023349   0.042329  -0.017144  -0.043709
   44  O  6  S    0.009565   0.139121   0.161968   0.019750  -0.008154
   45  O  6  X   -0.034539   0.034781  -0.089022   0.050456  -0.028081
   46  O  6  Y   -0.208617  -0.076511  -0.070368  -0.062432  -0.042725
   47  O  6  Z   -0.396333   0.041815   0.080132  -0.035136  -0.081961
   48  H  7  S   -0.104120   0.011166  -0.020842  -0.001473   0.072868
   49  H  7  S   -0.468271  -0.358700  -0.723374   0.383713   1.237706
   50  H  8  S    0.070315   0.004808  -0.054470  -0.019403  -0.051189
   51  H  8  S    0.301714  -0.577247  -0.880857  -0.057424  -0.635862
   52  H  9  S   -0.015189  -0.087637   0.013773  -0.067341  -0.005642
   53  H  9  S   -0.021433  -1.070584   0.073947  -0.833585   0.037535
   54  H 10  S   -0.010839  -0.073596   0.081398   0.080787  -0.009650
   55  H 10  S   -0.044593  -0.656921   0.765858   1.021430  -0.085511
   56  H 11  S   -0.009128  -0.009899  -0.034445  -0.033256   0.022292
   57  H 11  S   -0.086637  -0.137216  -0.768686   0.208059   0.092602
   58  H 12  S    0.002984   0.013517   0.000201   0.050090   0.052672
   59  H 12  S    0.004844  -0.045337  -0.396587   0.683518   0.349719

                     26         27         28         29         30
                    0.1942     0.1996     0.2263     0.2536     0.2797
                     A          A          A          A          A   
    1  C  1  S   -0.103160   0.055456  -0.014621  -0.056568  -0.046676
    2  C  1  S    0.039997  -0.024234   0.002241   0.007786   0.020385
    3  C  1  X    0.050565   0.255954   0.067258   0.160421   0.119731
    4  C  1  Y    0.156597   0.101702   0.151501  -0.212352   0.027442
    5  C  1  Z   -0.030640  -0.131993   0.231831   0.137975  -0.025254
    6  C  1  S    1.390969  -0.698953   0.187577   0.808856   0.590631
    7  C  1  X    0.251582   0.944100   0.330471   0.838278   0.718503
    8  C  1  Y    0.464731   0.439995   0.686951  -1.019457   0.010109
    9  C  1  Z   -0.022135  -0.552165   0.999896   0.689322  -0.111803
   10  H  2  S   -0.001621  -0.028199   0.067545   0.030716   0.017413
   11  H  2  S   -0.458897  -0.338752   1.191678   0.132943  -0.340605
   12  C  3  S    0.086518  -0.069734   0.010784   0.058865   0.118306
   13  C  3  S   -0.032765   0.029392   0.002914  -0.019933  -0.038358
   14  C  3  X    0.054577   0.021302   0.055448   0.258491  -0.159181
   15  C  3  Y    0.123057  -0.017091  -0.221018  -0.039766  -0.105028
   16  C  3  Z   -0.020832   0.047589  -0.118055   0.188933   0.180189
   17  C  3  S   -1.195753   0.917001  -0.194886  -0.919938  -1.556015
   18  C  3  X    0.240492  -0.037730   0.266019   1.210126  -0.984964
   19  C  3  Y    0.315069  -0.238883  -0.932566  -0.280433  -0.568696
   20  C  3  Z   -0.039270   0.347528  -0.436152   0.837054   0.798945
   21  C  4  S    0.027009   0.042354   0.001990   0.058939  -0.165285
   22  C  4  S   -0.026294  -0.024710  -0.010913  -0.030663   0.074193
   23  C  4  X   -0.046030   0.077373   0.059776   0.034768  -0.151569
   24  C  4  Y    0.013643   0.028601   0.031432  -0.045890  -0.141244
   25  C  4  Z   -0.031900   0.003446   0.122458  -0.072831   0.063075
   26  C  4  S   -0.263546  -0.400553   0.017069  -0.804959   2.274875
   27  C  4  X   -0.096882   0.037267   0.060628   0.073323  -0.660181
   28  C  4  Y   -0.086970   0.159634   0.036608  -0.118391  -0.402150
   29  C  4  Z   -0.005822  -0.095324   0.230712  -0.174925   0.174668
   30  N  5  S   -0.031924   0.001338   0.009878  -0.024754   0.043570
   31  N  5  S    0.016297  -0.001352  -0.007519   0.004555  -0.030461
   32  N  5  X   -0.094626  -0.089501   0.063596   0.055516   0.188364
   33  N  5  Y   -0.073293   0.001325  -0.015752   0.009502  -0.067485
   34  N  5  Z    0.075059  -0.011634  -0.066958   0.022703   0.025674
   35  N  5  S    0.301171   0.006063  -0.080197   0.327853  -0.387397
   36  N  5  X   -0.283506  -0.246554   0.160128   0.003049   0.600030
   37  N  5  Y   -0.204450   0.036171  -0.008700   0.050507  -0.164719
   38  N  5  Z    0.172141  -0.018130  -0.101974   0.053804   0.067891
   39  O  6  S   -0.016660  -0.000141  -0.011003  -0.027767   0.030874
   40  O  6  S    0.011511  -0.000872   0.011112   0.014246  -0.025960
   41  O  6  X    0.005660  -0.004566  -0.050363  -0.001643   0.084327
   42  O  6  Y   -0.022097  -0.022955  -0.022668  -0.074241   0.097655
   43  O  6  Z    0.029987   0.024144  -0.022780   0.089322  -0.028134
   44  O  6  S    0.157066  -0.005952   0.075700   0.278283  -0.265041
   45  O  6  X    0.013547  -0.012234  -0.070495  -0.042861   0.175732
   46  O  6  Y   -0.069457  -0.035184  -0.060428  -0.149327   0.198125
   47  O  6  Z    0.063987   0.028350  -0.053127   0.166123  -0.078552
   48  H  7  S    0.025983  -0.010903  -0.018108  -0.021997  -0.057870
   49  H  7  S    0.466016  -0.595938   0.697830  -0.368735  -0.305489
   50  H  8  S    0.065961  -0.008580  -0.021033  -0.040645  -0.037823
   51  H  8  S    0.988829  -0.477096  -0.979807   0.202292   0.009997
   52  H  9  S   -0.082784   0.022222  -0.004211  -0.060010  -0.022741
   53  H  9  S   -0.663498  -0.001430   0.154834  -0.196807   0.085744
   54  H 10  S    0.042626   0.006443  -0.003562   0.041383  -0.009931
   55  H 10  S    0.378577   0.296057  -0.188978  -0.173601  -0.370464
   56  H 11  S    0.027322   0.100609   0.012834   0.044249  -0.021809
   57  H 11  S   -0.036974   1.721042   0.100995   0.067529   0.373349
   58  H 12  S   -0.072566  -0.031666  -0.050176   0.054900   0.041604
   59  H 12  S   -1.239247  -0.325520  -0.976055   0.650183  -0.290567

                     31         32         33         34         35
                    0.3959     0.4341     0.6872     0.7216     0.7316
                     A          A          A          A          A   
    1  C  1  S   -0.018709  -0.022788   0.001944  -0.017409  -0.002095
    2  C  1  S    0.013277  -0.026637  -0.020243   0.081721   0.006846
    3  C  1  X   -0.030291  -0.165110  -0.204746   0.517117   0.164053
    4  C  1  Y   -0.018499  -0.018677   0.290889   0.182019  -0.362372
    5  C  1  Z    0.039772   0.033464   0.267639   0.121761   0.366260
    6  C  1  S    0.245140   0.744915   0.065717  -0.260809   0.320591
    7  C  1  X    0.046083   0.362473   0.298972  -0.860228  -0.121708
    8  C  1  Y   -0.148298  -0.201259  -0.451292  -0.367715   0.451189
    9  C  1  Z    0.126158   0.395865  -0.464843  -0.131598  -0.452067
   10  H  2  S   -0.028834  -0.013225  -0.402815  -0.035737  -0.203543
   11  H  2  S    0.013483   0.111347   0.014583  -0.027168  -0.025211
   12  C  3  S   -0.029246   0.028905   0.001104   0.004613   0.025731
   13  C  3  S   -0.010478  -0.032404   0.011834  -0.062133  -0.125027
   14  C  3  X    0.089897   0.036207   0.017765   0.046979  -0.790074
   15  C  3  Y   -0.031297  -0.147886   0.193873  -0.093646  -0.006277
   16  C  3  Z    0.074946   0.032580   0.176283   0.201313   0.032775
   17  C  3  S    0.763357  -0.249810  -0.234390   0.730547   0.590024
   18  C  3  X    0.906417   0.431026  -0.108974   0.283348   1.122870
   19  C  3  Y    0.255309  -0.841022  -0.331755   0.500364   0.051002
   20  C  3  Z   -0.095465   0.469665  -0.089089  -0.592834  -0.095006
   21  C  4  S   -0.059803   0.019520   0.002966  -0.001242  -0.010326
   22  C  4  S   -0.021734  -0.064055  -0.030877  -0.031360  -0.044722
   23  C  4  X    0.418998  -0.324521   0.130679  -0.553000  -0.194793
   24  C  4  Y    0.014106   0.288300   0.275459   0.409085   0.038398
   25  C  4  Z   -0.069208  -0.125655   0.526648  -0.283134  -0.001174
   26  C  4  S    0.832766  -0.201810   0.136177  -0.085910  -0.546478
   27  C  4  X    1.607135  -0.720721  -0.290359   1.221748   0.538159
   28  C  4  Y    0.591859   1.853707  -0.216696  -0.270128   0.179184
   29  C  4  Z   -0.488613  -0.885276  -0.466652   0.217677  -0.162621
   30  N  5  S    0.059141  -0.080493   0.001355  -0.017281  -0.003431
   31  N  5  S   -0.040375   0.025864  -0.002657   0.036082  -0.025812
   32  N  5  X    0.092691  -0.167099  -0.012032  -0.050105   0.129910
   33  N  5  Y   -0.209036   0.085786   0.031271   0.057402  -0.031218
   34  N  5  Z    0.117814  -0.052122   0.033445  -0.005976   0.009189
   35  N  5  S   -0.576181   1.187078   0.053711  -0.411609   0.048869
   36  N  5  X    0.239697  -0.829000   0.010998   0.037071  -0.194250
   37  N  5  Y   -0.748356   0.492865   0.058258  -0.123552  -0.094650
   38  N  5  Z    0.390999  -0.189608   0.047079   0.024516   0.075096
   39  O  6  S    0.090388   0.090252  -0.000184   0.017220   0.009989
   40  O  6  S   -0.046541  -0.035760   0.003747  -0.010907  -0.024188
   41  O  6  X   -0.122924   0.152631   0.012340  -0.114536   0.068126
   42  O  6  Y    0.170224   0.070995   0.009417   0.104083  -0.005907
   43  O  6  Z   -0.068404  -0.041437   0.036920  -0.071245   0.012840
   44  O  6  S   -1.061141  -1.206659  -0.011296  -0.071844  -0.084806
   45  O  6  X   -0.242051   0.374772   0.042807  -0.139427  -0.067162
   46  O  6  Y    0.535842   0.369238   0.031271   0.158981   0.020345
   47  O  6  Z   -0.237787  -0.217236   0.052016  -0.095584  -0.004778
   48  H  7  S    0.038451  -0.039551   0.361047   0.102199   0.085527
   49  H  7  S   -0.092463  -0.010725  -0.125136   0.102986   0.047102
   50  H  8  S    0.078907   0.064713  -0.319252  -0.129226   0.054218
   51  H  8  S    0.106650  -0.480123   0.066047   0.219991   0.017156
   52  H  9  S    0.086448   0.092005   0.005472   0.019636  -0.215492
   53  H  9  S   -0.597699   0.068620   0.009616  -0.078447   0.007559
   54  H 10  S   -0.130243  -0.046861   0.026276  -0.154911   0.134419
   55  H 10  S    0.088333   0.273347   0.000959   0.018327  -0.106232
   56  H 11  S    0.073006   0.105948   0.133969  -0.322794   0.210261
   57  H 11  S   -0.092760  -0.260709  -0.010731  -0.041808  -0.039963
   58  H 12  S   -0.035819  -0.023181   0.291160   0.269033  -0.212994
   59  H 12  S    0.010959  -0.073271  -0.008833   0.020498  -0.034152

                     36         37         38         39         40
                    0.7726     0.7966     0.8075     0.8350     0.8853
                     A          A          A          A          A   
    1  C  1  S   -0.014202   0.042004   0.010984   0.011227   0.007348
    2  C  1  S    0.048507  -0.081770  -0.074886  -0.033215  -0.023133
    3  C  1  X    0.136839  -0.330210  -0.091304  -0.138747   0.187929
    4  C  1  Y   -0.420888   0.410518  -0.173355   0.057874   0.121609
    5  C  1  Z   -0.325713  -0.610099   0.025659  -0.013656  -0.050465
    6  C  1  S   -0.182229  -0.012943   0.536914   0.332688   0.380153
    7  C  1  X   -0.290192   0.441113   0.390810   0.400073  -0.249213
    8  C  1  Y    0.691307  -0.758093   0.275584  -0.162613  -0.435636
    9  C  1  Z    0.522967   1.123378  -0.009197   0.101643   0.278308
   10  H  2  S    0.241815   0.265286   0.082447   0.066775   0.099946
   11  H  2  S    0.057392   0.280716  -0.074618  -0.024277   0.013974
   12  C  3  S    0.014755  -0.035102  -0.033780  -0.012416   0.000877
   13  C  3  S   -0.050696   0.086724   0.075891  -0.003373  -0.037606
   14  C  3  X    0.109379  -0.580599   0.037004  -0.063640  -0.180980
   15  C  3  Y   -0.143703  -0.060297   0.514464   0.328624   0.118485
   16  C  3  Z    0.154147   0.124234  -0.513067  -0.340970  -0.277269
   17  C  3  S    0.247009  -0.336141  -0.109776   0.707335   0.271118
   18  C  3  X   -0.062602   1.177425  -0.188726   0.637981   0.763719
   19  C  3  Y    0.353805   0.194262  -1.080586  -0.522253  -0.171820
   20  C  3  Z   -0.338996  -0.298752   1.102126   0.592566   0.478322
   21  C  4  S   -0.000495   0.002648  -0.013772   0.053774  -0.025635
   22  C  4  S    0.012036  -0.092959  -0.057166  -0.278714   0.247659
   23  C  4  X   -0.154921  -0.083606   0.164757  -0.583739  -0.012757
   24  C  4  Y    0.386075   0.217420   0.607216  -0.542376   0.001540
   25  C  4  Z    0.650388  -0.076426  -0.176452   0.377372   0.110913
   26  C  4  S   -0.049959  -0.394658   0.763596  -0.223712  -0.782118
   27  C  4  X    0.417467   0.625296  -0.369743   1.184212   0.068658
   28  C  4  Y   -0.632547  -0.261469  -0.184084   0.768856   0.504644
   29  C  4  Z   -0.691225   0.076028  -0.186735  -0.653489  -0.491536
   30  N  5  S    0.002496   0.001253  -0.015908  -0.012307   0.051442
   31  N  5  S    0.007010  -0.017469  -0.004746   0.003787  -0.060344
   32  N  5  X   -0.014603   0.064364   0.034624   0.153163   0.100249
   33  N  5  Y    0.103982  -0.007255  -0.087960  -0.021179  -0.073590
   34  N  5  Z    0.129634   0.018795   0.042787   0.002385   0.016287
   35  N  5  S   -0.240656  -0.206122   0.046933   0.013890   0.274100
   36  N  5  X    0.082863  -0.000877  -0.067628  -0.130612  -0.544328
   37  N  5  Y   -0.033183  -0.133200   0.017481  -0.116531   0.339820
   38  N  5  Z    0.072104   0.061803   0.070496   0.113700  -0.143896
   39  O  6  S   -0.002205   0.003147   0.038336  -0.014582   0.011149
   40  O  6  S   -0.005639  -0.012967  -0.033085   0.038360  -0.005457
   41  O  6  X   -0.015497   0.005724  -0.011707  -0.184821  -0.043916
   42  O  6  Y    0.034784   0.030034   0.141420  -0.193471   0.047977
   43  O  6  Z    0.033072  -0.035879  -0.026271   0.140111  -0.013196
   44  O  6  S    0.083160   0.091557  -0.261274  -0.386242  -0.198837
   45  O  6  X   -0.069215  -0.086162   0.092792  -0.156221   0.038001
   46  O  6  Y    0.048542   0.031186   0.280836  -0.078493   0.042160
   47  O  6  Z    0.116988  -0.001855  -0.110615   0.073378   0.009318
   48  H  7  S    0.031627   0.000594  -0.325674  -0.105564   0.018604
   49  H  7  S    0.145347   0.113390  -0.257559  -0.144842  -0.172070
   50  H  8  S    0.114356  -0.037444  -0.292689  -0.102228   0.011204
   51  H  8  S    0.064239   0.084681  -0.331202  -0.145368  -0.023922
   52  H  9  S    0.061161  -0.193285  -0.285881   0.038410   0.847953
   53  H  9  S   -0.026185   0.022973   0.036443  -0.153202  -0.494770
   54  H 10  S   -0.061014   0.045588   0.008135  -0.331343   0.809666
   55  H 10  S    0.003975  -0.078327   0.032946   0.129552  -0.366614
   56  H 11  S   -0.074099   0.140970  -0.139994  -0.019610  -0.092496
   57  H 11  S   -0.055523  -0.009275   0.226097   0.172405  -0.145867
   58  H 12  S   -0.263105   0.179305  -0.015071   0.080699   0.107642
   59  H 12  S   -0.076541   0.238495  -0.125842  -0.003683   0.116292

                     41         42         43         44         45
                    0.9473     0.9687     1.0511     1.0652     1.0887
                     A          A          A          A          A   
    1  C  1  S   -0.000833  -0.061975   0.003741  -0.004103  -0.010527
    2  C  1  S   -0.013902  -0.011228   0.049937   0.004269   0.019127
    3  C  1  X    0.133056   0.064252  -0.670435   0.128421  -0.256414
    4  C  1  Y    0.423710   0.155295  -0.261712  -0.421705  -0.329491
    5  C  1  Z    0.255741  -0.196725   0.355588  -0.542671   0.038944
    6  C  1  S    0.139744   0.342788  -0.622228   0.065734   0.214052
    7  C  1  X   -0.260460  -0.438164   1.026858  -0.151187   0.147598
    8  C  1  Y   -1.102061  -0.158226   0.724147   0.673313   0.031483
    9  C  1  Z   -0.646767   0.271034  -0.779569   0.854592   0.095448
   10  H  2  S    0.116223  -0.483844   0.357147  -0.547174  -0.097345
   11  H  2  S   -0.541251   0.303479  -0.644738   1.147145   0.106533
   12  C  3  S   -0.002579  -0.045134  -0.022525   0.003950   0.013398
   13  C  3  S    0.004859  -0.011437   0.077406  -0.038451  -0.039529
   14  C  3  X   -0.081304  -0.095391   0.083806   0.064573  -0.196105
   15  C  3  Y   -0.664743  -0.161931  -0.419335  -0.289010   0.002488
   16  C  3  Z   -0.632882   0.288078   0.036942  -0.381077   0.011415
   17  C  3  S   -0.003890   0.149925  -0.039024   0.104036   0.045230
   18  C  3  X    0.266530   0.530038  -0.551622  -0.031495   0.684102
   19  C  3  Y    1.476364  -0.090286   0.838037   0.120011   0.122603
   20  C  3  Z    1.395693  -0.204312  -0.289155   0.416977   0.083044
   21  C  4  S   -0.000873   0.035214   0.007315  -0.005997   0.005183
   22  C  4  S    0.049369  -0.350557  -0.247642   0.048979   0.063766
   23  C  4  X    0.109070   0.119931  -0.237330  -0.000262   0.152684
   24  C  4  Y    0.049893  -0.149493   0.110638  -0.119928  -0.125541
   25  C  4  Z    0.203135   0.099404  -0.169736  -0.103452   0.098951
   26  C  4  S   -0.219798  -0.192439   0.475413  -0.081226  -0.506951
   27  C  4  X   -0.086855  -0.032216   0.867930  -0.138878  -0.151312
   28  C  4  Y   -0.300935   0.749194  -0.953225   0.405931   0.454532
   29  C  4  Z   -0.589191  -0.418327   0.675242   0.019043  -0.297104
   30  N  5  S   -0.011252  -0.006284   0.034334  -0.009297  -0.009225
   31  N  5  S    0.013733  -0.001249  -0.044564   0.014252   0.015951
   32  N  5  X   -0.009661   0.127478   0.017128   0.034694  -0.070154
   33  N  5  Y    0.083947  -0.062741  -0.013580  -0.109711   0.082253
   34  N  5  Z    0.243330   0.050495  -0.050212  -0.019674   0.239297
   35  N  5  S    0.042764   0.322909  -0.704011   0.180107   0.271717
   36  N  5  X    0.047450  -0.421055   0.220506  -0.152485  -0.049066
   37  N  5  Y   -0.080097   0.061839  -0.156927   0.109380  -0.065788
   38  N  5  Z   -0.051180  -0.015929   0.049051  -0.012257  -0.216078
   39  O  6  S    0.000587   0.014501  -0.015075   0.007370   0.003099
   40  O  6  S   -0.010639  -0.022539  -0.005888  -0.010233  -0.001516
   41  O  6  X    0.043884   0.015583   0.020155  -0.030606   0.016063
   42  O  6  Y    0.027130  -0.096423   0.000764  -0.002793   0.033361
   43  O  6  Z    0.047032   0.048213  -0.041792  -0.052005   0.032296
   44  O  6  S    0.044056  -0.364790   0.393900  -0.137560  -0.135028
   45  O  6  X    0.005232   0.029933  -0.201816   0.055069   0.041861
   46  O  6  Y    0.014975   0.050987  -0.068940   0.010717  -0.036920
   47  O  6  Z    0.088079  -0.023174   0.033522  -0.012455  -0.005269
   48  H  7  S    0.025985  -0.567049   0.166331   0.564916  -0.068336
   49  H  7  S   -0.827890   0.487855  -0.184355  -0.914391   0.103127
   50  H  8  S   -0.039243  -0.524362  -0.507401  -0.517996   0.442369
   51  H  8  S    0.855527   0.253755   0.932362   0.678436  -0.299032
   52  H  9  S   -0.238740  -0.054600   0.297551  -0.096724  -0.191479
   53  H  9  S    0.136338  -0.010935  -0.287239   0.078852   0.201283
   54  H 10  S   -0.115669   0.199838   0.168808   0.021282   0.044849
   55  H 10  S    0.075506  -0.026183  -0.202352   0.019317  -0.043231
   56  H 11  S   -0.049110  -0.536198  -0.286674   0.143903  -0.835972
   57  H 11  S   -0.139420  -0.039410   1.177447  -0.307569   0.877800
   58  H 12  S   -0.106251  -0.433893  -0.036397   0.332204   0.759596
   59  H 12  S    0.654306   0.203395  -0.326826  -0.813929  -0.857278

                     46         47         48         49         50
                    1.1010     1.1177     1.1324     1.1553     1.2734
                     A          A          A          A          A   
    1  C  1  S    0.046678  -0.020020   0.013403   0.058511  -0.003506
    2  C  1  S   -0.129303   0.046462  -0.024225  -0.340850  -0.012416
    3  C  1  X    0.093111  -0.081629  -0.073620   0.362365   0.133363
    4  C  1  Y   -0.201141  -0.006530  -0.079304  -0.151780  -0.025315
    5  C  1  Z    0.020622  -0.058985   0.000681   0.180821  -0.039738
    6  C  1  S   -0.052530   0.133762  -0.270347   0.775761   0.341038
    7  C  1  X   -0.043820   0.155028   0.131475  -0.890784  -0.142327
    8  C  1  Y    0.383733  -0.151632  -0.178980   0.187957  -0.048930
    9  C  1  Z   -0.356149   0.103442  -0.623671   0.118511   0.224589
   10  H  2  S   -0.111496  -0.196364  -0.381865   0.695617   0.076942
   11  H  2  S    0.070093   0.174193   0.067034  -0.621556   0.009490
   12  C  3  S   -0.042093   0.012858  -0.019771  -0.034704   0.008352
   13  C  3  S    0.229097  -0.088701   0.129828   0.178412   0.028516
   14  C  3  X    0.021580  -0.192243   0.042152  -0.144180  -0.129834
   15  C  3  Y   -0.118141  -0.027782  -0.308338  -0.092280   0.050209
   16  C  3  Z    0.137434  -0.103650  -0.045319   0.195886  -0.129214
   17  C  3  S   -0.320716  -0.325099  -0.138591  -0.142257  -0.225080
   18  C  3  X   -0.495083   0.274786  -0.320910   0.437253   0.216244
   19  C  3  Y    0.287370   0.063443   1.322259  -0.209443  -0.157403
   20  C  3  Z   -0.163027   0.378145   0.505254  -0.430202   0.303250
   21  C  4  S    0.006855  -0.009145   0.003499   0.007041   0.018653
   22  C  4  S   -0.127381   0.245494  -0.123134   0.135892  -0.585198
   23  C  4  X   -0.012278   0.186621  -0.137398   0.296570   0.126831
   24  C  4  Y    0.015746   0.151832   0.169737  -0.196840  -0.022282
   25  C  4  Z   -0.081223  -0.061198   0.126617   0.186713   0.008820
   26  C  4  S    0.427821  -0.536914   0.276582  -0.773914   2.128019
   27  C  4  X    0.005480  -0.596256   0.508680  -0.887985   0.590388
   28  C  4  Y   -0.304318  -0.360407  -1.197085   1.130651  -0.107270
   29  C  4  Z    0.432173   0.059750  -0.237598  -0.696247  -0.102797
   30  N  5  S    0.014679  -0.010902   0.015555  -0.039362   0.036936
   31  N  5  S   -0.013441   0.012122  -0.023534   0.093646  -0.136284
   32  N  5  X    0.043064   0.494944  -0.172959   0.106745  -0.526396
   33  N  5  Y    0.426828   0.367974  -0.348439  -0.198255   0.654489
   34  N  5  Z    0.498489  -0.362691  -0.521611  -0.274325  -0.427446
   35  N  5  S   -0.217836   0.173628  -0.480265   0.789514  -0.227010
   36  N  5  X    0.089593  -0.342469   0.451900  -0.469970   0.992064
   37  N  5  Y   -0.425401  -0.088693   0.293687   0.457366  -1.363580
   38  N  5  Z   -0.567162   0.244963   0.697273   0.235918   0.813326
   39  O  6  S   -0.013424  -0.014235  -0.023511   0.016739   0.025615
   40  O  6  S    0.033820   0.026116   0.037873  -0.019787  -0.015125
   41  O  6  X   -0.039675   0.090870  -0.036703  -0.006708   0.038549
   42  O  6  Y   -0.008100   0.061038   0.130389  -0.019121  -0.224583
   43  O  6  Z   -0.018491   0.001553   0.162239  -0.018392   0.119933
   44  O  6  S    0.144520   0.318176   0.363987  -0.389415  -0.534960
   45  O  6  X   -0.002044   0.023140  -0.105428   0.210576  -0.072537
   46  O  6  Y   -0.043280  -0.084105  -0.099283   0.029815   0.396720
   47  O  6  Z   -0.012545   0.044744   0.051612   0.021803  -0.183474
   48  H  7  S   -0.590520  -0.019152  -0.602570  -0.112502   0.114944
   49  H  7  S    0.595808  -0.151740   0.202348   0.418589  -0.260476
   50  H  8  S   -0.208075   0.038615   0.292753  -0.528405  -0.087387
   51  H  8  S    0.324049   0.105226   0.458956   0.441271   0.130119
   52  H  9  S    0.296444   0.601374   0.058646  -0.098112   0.016468
   53  H  9  S   -0.279481  -0.804798  -0.041156   0.097114  -0.789646
   54  H 10  S   -0.065123  -0.762612   0.061509  -0.178102   0.210591
   55  H 10  S    0.089391   0.980737  -0.258139   0.335229  -0.481027
   56  H 11  S    0.573831  -0.205885   0.240734   0.015664  -0.055391
   57  H 11  S   -0.385326   0.192139  -0.019020  -0.507643  -0.115546
   58  H 12  S    0.412243  -0.034281   0.361668   0.408820   0.023611
   59  H 12  S   -0.521383   0.038900  -0.186535  -0.515725  -0.042497

                     51         52         53         54         55
                    1.3720     1.5770     1.5979     1.6748     1.7330
                     A          A          A          A          A   
    1  C  1  S    0.026055   0.001112   0.000086  -0.001590   0.000797
    2  C  1  S   -0.308588  -0.424988   0.230529   0.088209   0.648720
    3  C  1  X    0.101741   0.083408  -0.027089   0.092950   0.065827
    4  C  1  Y    0.003780   0.021769   0.003894  -0.012847   0.010772
    5  C  1  Z    0.024264  -0.029196   0.042493  -0.033846   0.001400
    6  C  1  S    0.046729   0.848474  -0.392433   0.006344  -1.118655
    7  C  1  X   -0.459501  -0.169931   0.088352  -0.119494  -0.053920
    8  C  1  Y    0.129183  -0.023144  -0.166428   0.004446  -0.076166
    9  C  1  Z   -0.360568   0.079140  -0.221612   0.129067   0.068826
   10  H  2  S    0.090330   0.009597  -0.072101   0.011767   0.028586
   11  H  2  S   -0.277778  -0.142752   0.026050   0.104106   0.291957
   12  C  3  S    0.026126   0.013198  -0.003593   0.008962  -0.020193
   13  C  3  S   -0.417220  -0.479621   0.029528   0.131108   0.847432
   14  C  3  X    0.270050  -0.084237  -0.021045  -0.086591   0.192781
   15  C  3  Y   -0.068052   0.084097  -0.042732   0.048739   0.058009
   16  C  3  Z   -0.004312  -0.054557  -0.064618  -0.035248  -0.018317
   17  C  3  S    0.521999   0.292862   0.027374  -0.549457  -0.367948
   18  C  3  X   -1.066559  -0.031887  -0.003553  -0.126889   0.093471
   19  C  3  Y    0.327310  -0.321149   0.353387  -0.043567   0.224865
   20  C  3  Z   -0.032911   0.271947   0.407226   0.057008  -0.328280
   21  C  4  S    0.013155  -0.009497   0.001068   0.006129  -0.016977
   22  C  4  S   -1.031203  -0.766378   0.017022  -0.172932   0.079451
   23  C  4  X    0.102278   0.066984   0.005590   0.044713  -0.199541
   24  C  4  Y    0.137753  -0.122578   0.060121   0.137232  -0.148644
   25  C  4  Z   -0.059542   0.053833   0.083898  -0.070125   0.112164
   26  C  4  S    1.526440   0.405912   0.022947   0.652205  -0.206778
   27  C  4  X   -0.263597  -0.433307  -0.006330  -0.191324   1.202295
   28  C  4  Y   -0.129495  -0.509239  -0.399662  -0.621358   0.474211
   29  C  4  Z    0.053032   0.262776  -0.588908   0.322522  -0.362549
   30  N  5  S    0.010969   0.009700  -0.000375   0.012705   0.007272
   31  N  5  S   -0.019370  -0.132108   0.005159  -0.030119  -0.032666
   32  N  5  X    0.631758  -0.261512  -0.013723  -0.175472   0.311156
   33  N  5  Y    0.004748  -0.130449  -0.039785  -0.382699   0.229107
   34  N  5  Z   -0.047329   0.087739  -0.098348   0.211798  -0.160062
   35  N  5  S   -0.392287   0.068553  -0.040051  -0.346212  -0.167809
   36  N  5  X   -1.030668   0.717045   0.060274   0.713062  -0.838004
   37  N  5  Y   -0.165513   0.411330   0.091471   0.809780  -0.848097
   38  N  5  Z    0.148169  -0.258544   0.272856  -0.481629   0.533718
   39  O  6  S    0.013473  -0.063185  -0.000437   0.002543   0.005502
   40  O  6  S   -0.036068   0.203165   0.002588  -0.007404  -0.009783
   41  O  6  X    0.012527   0.329370  -0.113424   0.628550   0.600213
   42  O  6  Y   -0.188110   0.551824  -0.470161  -0.549896   0.244425
   43  O  6  Z    0.070694  -0.390690  -0.870116   0.219306  -0.150191
   44  O  6  S   -0.231364   0.295479   0.024203   0.168468  -0.310418
   45  O  6  X    0.025729  -0.365371   0.121297  -0.696469  -0.845190
   46  O  6  Y    0.233366  -0.845157   0.553210   0.635165  -0.219877
   47  O  6  Z   -0.094302   0.552045   1.023755  -0.254666   0.158559
   48  H  7  S    0.157004   0.042728  -0.177666   0.048604  -0.017390
   49  H  7  S   -0.371650  -0.335303  -0.027526  -0.018864   0.457535
   50  H  8  S    0.354009  -0.019236   0.116682   0.024822   0.033520
   51  H  8  S   -0.392793  -0.289468   0.075619   0.039640   0.277712
   52  H  9  S   -0.177163   0.279009  -0.016959   0.381542  -0.384536
   53  H  9  S    0.057243  -0.004946  -0.013993   0.242241  -0.216374
   54  H 10  S    0.312904  -0.251828  -0.010061  -0.353002   0.370182
   55  H 10  S    0.328320  -0.219480  -0.013900  -0.132791   0.197814
   56  H 11  S    0.107178  -0.023410   0.016131  -0.010009   0.045216
   57  H 11  S   -0.348488  -0.303820   0.147331  -0.070246   0.188497
   58  H 12  S    0.206993  -0.031786   0.081470   0.097350   0.101841
   59  H 12  S   -0.281127  -0.115399   0.101831  -0.117084   0.198253

                     56         57         58         59
                    1.8445     2.2209     2.5294     3.3488
                     A          A          A          A   
    1  C  1  S   -0.028128   0.073730   0.003820  -0.001070
    2  C  1  S   -1.589594   1.003241   0.179356  -0.030940
    3  C  1  X   -0.124123  -0.095188   0.105393  -0.040289
    4  C  1  Y    0.026300   0.036309  -0.007389   0.006654
    5  C  1  Z   -0.017297  -0.029258   0.007144   0.008492
    6  C  1  S    3.036380  -3.299818  -0.072870  -0.159262
    7  C  1  X    0.261844  -0.667043  -0.244970   0.134971
    8  C  1  Y   -0.068294   0.429605  -0.079444   0.058275
    9  C  1  Z   -0.024094  -0.534672   0.205312  -0.216239
   10  H  2  S   -0.213443   0.237578   0.050131  -0.050098
   11  H  2  S   -0.553053   0.234262   0.108382  -0.036426
   12  C  3  S   -0.015212  -0.119747   0.009391   0.011677
   13  C  3  S   -0.304584  -1.918125   0.263679   0.086388
   14  C  3  X    0.180862   0.067978  -0.008432  -0.001988
   15  C  3  Y   -0.031301  -0.021412   0.015979  -0.020198
   16  C  3  Z    0.024294   0.030820   0.022364  -0.003151
   17  C  3  S    1.150710   5.889511  -0.767117  -0.799100
   18  C  3  X    1.088350   0.291784  -0.013117  -0.648880
   19  C  3  Y    0.163517   0.763372  -0.403844   0.377991
   20  C  3  Z    0.064294  -0.736012   0.023210  -0.034683
   21  C  4  S    0.016612   0.049867   0.027294  -0.003708
   22  C  4  S    0.835087   0.574095   0.067867  -0.287984
   23  C  4  X   -0.284754  -0.018345   0.000131  -0.018758
   24  C  4  Y   -0.021006  -0.067094   0.023056  -0.157759
   25  C  4  Z    0.022630   0.050442  -0.003837   0.077439
   26  C  4  S   -1.625842  -2.393983  -1.375825  -0.556026
   27  C  4  X    1.919638   1.796850  -1.695072  -0.716413
   28  C  4  Y    0.280617   0.588956   0.953583  -1.868261
   29  C  4  Z   -0.387010  -0.456676  -0.323647   1.011383
   30  N  5  S    0.014200  -0.000949  -0.008473   0.003416
   31  N  5  S   -0.237532  -0.162291  -1.886966   0.141742
   32  N  5  X    0.029592   0.012168   0.088092  -0.104329
   33  N  5  Y    0.189173   0.101598  -0.133861  -0.068182
   34  N  5  Z   -0.097349  -0.070075   0.048959   0.043919
   35  N  5  S    0.138551   0.326062   3.720167  -0.507925
   36  N  5  X   -0.240319  -0.365700  -0.584648   0.671745
   37  N  5  Y   -0.727598  -0.444380   0.838636   0.446019
   38  N  5  Z    0.420257   0.296323  -0.314078  -0.291187
   39  O  6  S    0.018250   0.011796   0.004100   0.038719
   40  O  6  S   -0.098011  -0.111400  -0.096634  -1.801594
   41  O  6  X    0.281778   0.198073  -0.146846   0.028685
   42  O  6  Y   -0.121823  -0.015719   0.015404   0.200475
   43  O  6  Z   -0.066012   0.040856   0.012970  -0.109505
   44  O  6  S   -0.020806   0.036888   0.104959   3.295263
   45  O  6  X   -0.611697  -0.509421   0.503670  -0.157253
   46  O  6  Y    0.239270   0.019902  -0.163222  -0.977187
   47  O  6  Z    0.068061  -0.033787   0.025287   0.520789
   48  H  7  S   -0.105716  -0.457013   0.039487   0.018040
   49  H  7  S   -0.014578  -0.343721   0.172525   0.016429
   50  H  8  S   -0.009270  -0.391327  -0.016126   0.111708
   51  H  8  S   -0.043472  -0.429621  -0.023998   0.133474
   52  H  9  S   -0.256856  -0.235293  -0.117956   0.252760
   53  H  9  S   -0.311486  -0.127635  -0.200681   0.108289
   54  H 10  S    0.190035   0.153659  -0.281263  -0.208945
   55  H 10  S   -0.112243  -0.075020  -0.213254  -0.071218
   56  H 11  S   -0.145042   0.235766  -0.037444   0.051053
   57  H 11  S   -0.391754   0.333372  -0.134074   0.072356
   58  H 12  S   -0.121075   0.296792   0.036999  -0.002604
   59  H 12  S   -0.622226   0.190042   0.043032  -0.000172
 ...... END OF RHF CALCULATION ......
 CPU     0: STEP CPU TIME=     3.22 TOTAL CPU TIME=          3.3 (      0.1 MIN)
 TOTAL WALL CLOCK TIME=          3.3 SECONDS, CPU UTILIZATION IS    98.49%

     ---------------------------------------------------------------------
     PROPERTIES FOR THE B3LYP    DFT FUNCTIONAL (RHF  TYPE) DENSITY MATRIX
     ---------------------------------------------------------------------

          -----------------
          ENERGY COMPONENTS
          -----------------

         WAVEFUNCTION NORMALIZATION =       1.0000000000

                ONE ELECTRON ENERGY =    -688.0118760816
[...]
   59  H 12  S    0.008234  -0.046732   0.405522   0.634574   0.560103

                     26         27         28         29         30
                    0.1924     0.1995     0.2284     0.2445     0.2803
                     A          A          A          A          A   
    1  C  1  S   -0.120281   0.046418  -0.008230   0.045949   0.053692
    2  C  1  S    0.046114  -0.021987   0.000814  -0.003634  -0.024344
    3  C  1  X    0.032184   0.268858   0.025127  -0.152117  -0.149686
    4  C  1  Y    0.111981   0.136447   0.143929   0.226087  -0.017131
    5  C  1  Z   -0.023493  -0.102494   0.232571  -0.150134   0.007088
    6  C  1  S    1.603132  -0.571169   0.105412  -0.632258  -0.687673
    7  C  1  X    0.194165   0.992638   0.139372  -0.739495  -0.825262
    8  C  1  Y    0.287529   0.545038   0.663870   1.032478   0.032999
    9  C  1  Z    0.006735  -0.419477   1.018791  -0.695447  -0.014740
   10  H  2  S   -0.011351  -0.019899   0.065563  -0.034224  -0.031793
   11  H  2  S   -0.592106  -0.256505   1.207906  -0.292358   0.272176
   12  C  3  S    0.101954  -0.056148   0.004589  -0.048354  -0.121201
   13  C  3  S   -0.038047   0.024314   0.001454   0.015386   0.039954
   14  C  3  X    0.069948   0.041869   0.038997  -0.272377   0.127516
   15  C  3  Y    0.112780  -0.000015  -0.207680   0.069660   0.155997
   16  C  3  Z   -0.035043   0.030355  -0.172655  -0.139892  -0.171047
   17  C  3  S   -1.400271   0.715497  -0.089398   0.767784   1.593559
   18  C  3  X    0.325231   0.051528   0.192996  -1.244331   0.828808
   19  C  3  Y    0.297221  -0.208299  -0.841420   0.375759   0.752076
   20  C  3  Z   -0.080133   0.275785  -0.681859  -0.631409  -0.772298
   21  C  4  S    0.024999   0.051056   0.007049  -0.070900   0.159094
   22  C  4  S   -0.025541  -0.030192  -0.007131   0.040128  -0.074168
   23  C  4  X   -0.043603   0.069985   0.032937  -0.056862   0.135184
   24  C  4  Y    0.007820   0.029128   0.074525   0.029320   0.125741
   25  C  4  Z   -0.025137  -0.012685   0.123957   0.033666  -0.090874
   26  C  4  S   -0.246272  -0.495949  -0.078629   0.910764  -2.155317
   27  C  4  X   -0.074292   0.042243   0.046195  -0.133929   0.621230
   28  C  4  Y   -0.107228   0.142613   0.143071   0.055746   0.377813
   29  C  4  Z    0.027371  -0.121995   0.240952   0.084303  -0.263179
   30  N  5  S   -0.030142  -0.006480   0.002950   0.026297  -0.042722
   31  N  5  S    0.015070   0.002693  -0.003199  -0.005687   0.031633
   32  N  5  X   -0.072134  -0.095989   0.028794  -0.056484  -0.197956
   33  N  5  Y   -0.066360  -0.002034  -0.030819  -0.013717   0.061341
   34  N  5  Z    0.064698   0.002472  -0.066060  -0.002885  -0.034435
   35  N  5  S    0.277389   0.083890  -0.013791  -0.337303   0.369710
   36  N  5  X   -0.221493  -0.276238   0.062862   0.004264  -0.603006
   37  N  5  Y   -0.181585   0.018880  -0.034305  -0.048953   0.146173
   38  N  5  Z    0.154986  -0.001201  -0.098788   0.001416  -0.085889
   39  O  6  S   -0.017921  -0.002454  -0.007696   0.029922  -0.028051
   40  O  6  S    0.013047   0.000640   0.007342  -0.017035   0.025609
   41  O  6  X    0.002243   0.004279  -0.028362   0.012561  -0.078822
   42  O  6  Y   -0.019492  -0.028533  -0.029626   0.087649  -0.081599
   43  O  6  Z    0.033403   0.033583  -0.022239  -0.082963   0.047923
   44  O  6  S    0.166000   0.017722   0.054898  -0.285051   0.225246
   45  O  6  X    0.007544  -0.002082  -0.041159   0.057634  -0.158569
   46  O  6  Y   -0.063668  -0.047061  -0.074789   0.166218  -0.162478
   47  O  6  Z    0.072734   0.047423  -0.056892  -0.159759   0.106375
   48  H  7  S    0.034408  -0.009404  -0.010726   0.028697   0.056929
   49  H  7  S    0.643481  -0.467267   0.852607   0.252426   0.238347
   50  H  8  S    0.060177   0.001682  -0.008770   0.037193   0.047333
   51  H  8  S    1.004185  -0.321365  -0.984353  -0.085003   0.121139
   52  H  9  S   -0.085613   0.010375  -0.001187   0.061529   0.028456
   53  H  9  S   -0.590041  -0.091719   0.066215   0.163879  -0.077900
   54  H 10  S    0.037028   0.011150   0.002170  -0.038316   0.003190
   55  H 10  S    0.292915   0.304798  -0.095022   0.192963   0.388907
   56  H 11  S    0.017126   0.103755   0.003117  -0.039988   0.015223
   57  H 11  S   -0.256566   1.724988  -0.058610  -0.042472  -0.412921
   58  H 12  S   -0.058144  -0.042905  -0.051481  -0.052727  -0.041384
   59  H 12  S   -1.091618  -0.533187  -0.965106  -0.666580   0.322850

     ---------------------------------------------------------------------
     PROPERTIES FOR THE B3LYP    DFT FUNCTIONAL (RHF  TYPE) DENSITY MATRIX
     ---------------------------------------------------------------------

          -----------------
          ENERGY COMPONENTS
          -----------------

         WAVEFUNCTION NORMALIZATION =       1.0000000000

                ONE ELECTRON ENERGY =    -687.1070357867
                TWO ELECTRON ENERGY =     262.3279461395
           NUCLEAR REPULSION ENERGY =     177.7628458402
                                      ------------------
                       TOTAL ENERGY =    -247.0162438070

 ELECTRON-ELECTRON POTENTIAL ENERGY =     262.3279461395
  NUCLEUS-ELECTRON POTENTIAL ENERGY =    -932.2033881243
   NUCLEUS-NUCLEUS POTENTIAL ENERGY =     177.7628458402
                                      ------------------
             TOTAL POTENTIAL ENERGY =    -492.1125961446
               TOTAL KINETIC ENERGY =     245.0963523376
                 VIRIAL RATIO (V/T) =       2.0078332111

          ---------------------------------------
          MULLIKEN AND LOWDIN POPULATION ANALYSES
          ---------------------------------------

     ATOMIC MULLIKEN POPULATION IN EACH MOLECULAR ORBITAL

                      1          2          3          4          5

                  2.000000   2.000000   2.000000   2.000000   2.000000

    1            -0.000004   0.000000   0.000093   0.006004   1.985361
    2             0.000000  -0.000000   0.000001   0.000016   0.003251
    3             0.000062  -0.000069   0.006261   1.980818   0.004976
    4             0.008793   0.008023   1.995143   0.006711   0.000139
    5            -0.000029   1.989301   0.000863   0.000023   0.000003
    6             1.991173  -0.000008  -0.002519  -0.000011  -0.000001
    7            -0.000000  -0.000002   0.000065   0.003251   0.000035
    8            -0.000001   0.000001   0.000045   0.003177   0.000022
    9            -0.000001   0.001411  -0.000032   0.000004   0.000000
   10             0.000006   0.001343   0.000078   0.000001   0.000000
   11            -0.000000   0.000000  -0.000000  -0.000007   0.002981
   12             0.000001  -0.000000   0.000001   0.000012   0.003233

                      6          7          8          9         10

                  2.000000   2.000000   2.000000   2.000000   2.000000

    1             0.000368   0.001366   0.600093   0.764009   0.143323
    2             0.000016  -0.000006   0.024847   0.078939   0.024051
    3             0.001110   0.037443   0.999117   0.300714   0.183512
    4             0.433741   0.148322   0.120778   0.287793   0.350190
    5             0.163538   1.368182   0.061276   0.235252   0.802597
    6             1.391158   0.252614   0.033864   0.027397   0.114541
    7            -0.000606   0.000615   0.045223   0.023721   0.043619
    8             0.000093   0.000177   0.047227   0.025083   0.043143
    9             0.006391   0.104438   0.003058   0.013060   0.219579
   10             0.003617   0.087020   0.015810   0.071639   0.039104
   11             0.000156  -0.000223   0.024725   0.095679   0.017237
   12             0.000418   0.000050   0.023982   0.076716   0.019104

                     11         12         13         14         15

                  2.000000   2.000000   2.000000   2.000000   2.000000

    1             0.074332   0.217852   0.293303   0.348996   0.484960
    2             0.017627   0.002191   0.090465   0.054093   0.204160
    3             0.196320   0.504898   0.699419   0.071425   0.059089
    4             0.086747   0.417833   0.259691   0.199152   0.481342
    5             0.933750   0.203564   0.078238   0.042176   0.339616
    6             0.028629   0.271922   0.081244   1.004009   0.313316
    7             0.046986   0.041238   0.240276   0.001380   0.000158
    8             0.032478   0.129275   0.175891   0.001729   0.005562
    9             0.263885   0.010160   0.000587   0.030425   0.000059
   10             0.300529   0.087300   0.003848   0.008957   0.002718
   11             0.001590   0.090227   0.007475   0.146157   0.004473
   12             0.017126   0.023540   0.069564   0.091501   0.104549

                     16         17         18         19         20

                  2.000000   2.000000   2.000000   2.000000   2.000000

    1             0.740186   0.502355   0.355630   0.003901   0.013069
    2             0.000470   0.091087   0.204284   0.001304   0.001253
    3             0.626749   0.203092   0.376762   0.001922   0.237377
    4             0.148518   0.208727   0.109448   0.013779   0.059565
    5             0.096339   0.012367   0.109363   1.200686   0.118690
    6             0.054705   0.449568   0.203575   0.776565   1.510624
    7             0.015318   0.080126   0.232947   0.000437   0.012086
    8             0.032000   0.066103   0.222252   0.000765   0.014271
    9             0.003547   0.019797   0.000090   0.000007   0.014488
   10             0.037907   0.009846   0.000001   0.000002   0.015115
   11             0.199961   0.231673   0.000009   0.000147   0.000250
   12             0.044301   0.125259   0.185639   0.000485   0.003210

               ----- POPULATIONS IN EACH AO -----
                             MULLIKEN      LOWDIN
              1  C  1  S      1.98636     1.97424
              2  C  1  S      0.36954     0.42066
              3  C  1  X      0.55367     0.51878
              4  C  1  Y      0.56634     0.53012
              5  C  1  Z      0.56382     0.52655
              6  C  1  S      1.09290     0.57689
              7  C  1  X      0.42976     0.55120
              8  C  1  Y      0.48695     0.57734
              9  C  1  Z      0.48586     0.57720
             10  H  2  S      0.47025     0.46974
             11  H  2  S      0.32780     0.43382
             12  C  3  S      1.98779     1.97408
             13  C  3  S      0.36059     0.42580
             14  C  3  X      0.54971     0.53077
             15  C  3  Y      0.56551     0.53010
             16  C  3  Z      0.56523     0.52992
             17  C  3  S      1.11847     0.57007
             18  C  3  X      0.34610     0.52966
             19  C  3  Y      0.49393     0.56624
             20  C  3  Z      0.50366     0.57118
             21  C  4  S      1.98482     1.97369
             22  C  4  S      0.42712     0.42945
             23  C  4  X      0.58755     0.55435
             24  C  4  Y      0.54736     0.51571
             25  C  4  Z      0.47936     0.45244
             26  C  4  S      0.57518     0.51002
             27  C  4  X      0.26843     0.46598
             28  C  4  Y      0.15752     0.43158
             29  C  4  Z      0.31710     0.46649
             30  N  5  S      1.98587     1.97574
             31  N  5  S      0.37321     0.47533
             32  N  5  X      0.59399     0.56282
             33  N  5  Y      0.64324     0.62400
             34  N  5  Z      0.70056     0.69611
             35  N  5  S      1.27541     0.73504
             36  N  5  X      0.59111     0.64520
             37  N  5  Y      0.72864     0.74536
             38  N  5  Z      0.86376     0.86182
             39  O  6  S      1.98600     1.98038
             40  O  6  S      0.43389     0.59147
             41  O  6  X      0.82766     0.82055
             42  O  6  Y      0.65134     0.63764
             43  O  6  Z      0.63624     0.62412
             44  O  6  S      1.55865     1.05575
             45  O  6  X      0.90642     0.97832
             46  O  6  Y      0.74760     0.79428
             47  O  6  Z      0.75456     0.78938
             48  H  7  S      0.46635     0.47074
             49  H  7  S      0.32052     0.42826
             50  H  8  S      0.46874     0.47262
             51  H  8  S      0.33055     0.43314
             52  H  9  S      0.44973     0.44734
             53  H  9  S      0.24123     0.35718
             54  H 10  S      0.44414     0.44352
             55  H 10  S      0.24070     0.35636
             56  H 11  S      0.47304     0.47151
             57  H 11  S      0.34946     0.44354
             58  H 12  S      0.46892     0.46792
             59  H 12  S      0.31977     0.43047

          ----- MULLIKEN ATOMIC OVERLAP POPULATIONS -----
          (OFF-DIAGONAL ELEMENTS NEED TO BE MULTIPLIED BY 2)

             1           2           3           4           5

    1    5.2961593
    2    0.3739733   0.5200961
    3    0.2542186  -0.0440434   5.7831455
    4   -0.0577583  -0.0012820   0.1018905   4.6695525
    5    0.0033484   0.0000567  -0.1315878   0.1482964   7.1793960
    6    0.0089275   0.0016686  -0.0986968   0.5826351  -0.0730049
    7   -0.0353325   0.0033283   0.3544075  -0.0348046   0.0018896
    8   -0.0357520  -0.0027665   0.3485182  -0.0320104   0.0024283
    9   -0.0000465  -0.0000014   0.0024607  -0.0176086   0.3147325
   10   -0.0001260  -0.0000009   0.0060804  -0.0190516   0.3101101
   11    0.3558936  -0.0268340  -0.0381086   0.0050629  -0.0000103
   12    0.3716920  -0.0261468  -0.0472854  -0.0004869   0.0001406

             6           7           8           9          10

    6    8.0683635
    7    0.0006625   0.5271389
    8    0.0011436  -0.0270471   0.5410743
    9    0.0018606   0.0006120   0.0014457   0.4112262
   10    0.0026108  -0.0001545  -0.0001445  -0.0237170   0.4092356
   11    0.0002476  -0.0017235  -0.0010606  -0.0000072   0.0000007
   12    0.0059466  -0.0021052   0.0034667  -0.0000040  -0.0000011

            11          12

   11    0.5542037
   12   -0.0251563   0.5086298

          TOTAL MULLIKEN AND LOWDIN ATOMIC POPULATIONS
       ATOM         MULL.POP.    CHARGE          LOW.POP.     CHARGE
    1 C             6.535198   -0.535198         6.252993   -0.252993
    2 H             0.798048    0.201952         0.903564    0.096436
    3 C             6.490999   -0.490999         6.227822   -0.227822
    4 C             5.344435    0.655565         5.799695    0.200305
    5 N             7.755796   -0.755796         7.321426   -0.321426
    6 O             8.502365   -0.502365         8.271900   -0.271900
    7 H             0.786872    0.213128         0.898996    0.101004
    8 H             0.799296    0.200704         0.905762    0.094238
    9 H             0.690953    0.309047         0.804516    0.195484
   10 H             0.684842    0.315158         0.799877    0.200123
   11 H             0.822508    0.177492         0.915054    0.084946
   12 H             0.788690    0.211310         0.898395    0.101605

          -------------------------------
          BOND ORDER AND VALENCE ANALYSIS     BOND ORDER THRESHOLD=0.050
          -------------------------------

                   BOND                       BOND                       BOND
  ATOM PAIR DIST  ORDER      ATOM PAIR DIST  ORDER      ATOM PAIR DIST  ORDER
    1   2  1.094  0.922        1   3  1.536  0.946        1  11  1.094  0.922
    1  12  1.093  0.915        3   4  1.536  0.835        3   7  1.099  0.901
    3   8  1.098  0.903        4   5  1.371  0.999        4   6  1.239  1.808
    5   6  2.295  0.146        5   9  1.012  0.856        5  10  1.014  0.853

                       TOTAL       BONDED        FREE
      ATOM            VALENCE     VALENCE     VALENCE
    1 C                 3.702       3.702       0.000
    2 H                 0.917       0.917      -0.000
    3 C                 3.602       3.602       0.000
    4 C                 3.622       3.622      -0.000
    5 N                 2.868       2.868      -0.000
    6 O                 2.075       2.075      -0.000
    7 H                 0.907       0.907      -0.000
    8 H                 0.914       0.914       0.000
    9 H                 0.880       0.880       0.000
   10 H                 0.880       0.880       0.000
   11 H                 0.924       0.924      -0.000
   12 H                 0.919       0.919      -0.000

          ---------------------
          ELECTROSTATIC MOMENTS
          ---------------------

 POINT   1           X           Y           Z (BOHR)    CHARGE
                 2.793278   -0.152052   -0.053462       -0.00 (A.U.)
         DX          DY          DZ         /D/  (DEBYE)
     0.394843   -2.918945    2.082789    3.607513
 ...... END OF PROPERTY EVALUATION ......
 CPU     0: STEP CPU TIME=     0.02 TOTAL CPU TIME=        133.0 (      2.2 MIN)
 TOTAL WALL CLOCK TIME=        135.0 SECONDS, CPU UTILIZATION IS    98.57%
  $VIB   
          IVIB=   0 IATOM=   0 ICOORD=   0 E=     -247.0162438070
 -3.153194665E-05 2.636879604E-05 2.182043508E-05-7.540583560E-06-7.131443892E-06
 -1.907081908E-05 2.924525095E-05-1.877850456E-05-7.198534624E-08-7.344338382E-05
 -9.377795676E-06-4.791957397E-06 2.027333798E-05-2.237537065E-05 8.110828635E-06
  1.503589998E-05 3.693651399E-05-1.426258274E-05-6.334499181E-06 2.103489646E-05
  1.679953198E-05 6.789078787E-06-2.242896628E-05-7.170711506E-06 4.555096063E-06
 -2.686513092E-05 2.364945065E-05 3.894891464E-05 1.219128806E-05-8.704918751E-06
 -9.983740722E-07 1.021013438E-08-1.652404390E-05 5.001208891E-06 1.041550728E-05
  2.167723837E-07
  3.948430944E-01-2.918944575E+00 2.082788913E+00
 ......END OF GEOMETRY SEARCH......
 CPU     0: STEP CPU TIME=     0.01 TOTAL CPU TIME=        133.0 (      2.2 MIN)
 TOTAL WALL CLOCK TIME=        135.0 SECONDS, CPU UTILIZATION IS    98.58%
               580000  WORDS OF DYNAMIC MEMORY USED
 EXECUTION OF GAMESS TERMINATED NORMALLY Sat May 16 16:45:07 2020
 DDI: 263640 bytes (0.3 MB / 0 MWords) used by master data server.
Note: The following floating-point exceptions are signalling: IEEE_UNDERFLOW_FLAGNote: The following floating-point exceptions are signalling: IEEE_UNDERFLOW_FLAGNote: The following floating-point exceptions are signalling: IEEE_UNDERFLOW_FLAGNote: The following floating-point exceptions are signalling: IEEE_UNDERFLOW_FLAG
 ----------------------------------------
 CPU timing information for all processes
 ========================================
 0: 129.872 + 3.175 = 133.48
 1: 130.538 + 0.997 = 131.536
 2: 130.673 + 0.637 = 131.310
 3: 130.436 + 0.764 = 131.200
 4: 130.425 + 0.832 = 131.257
 5: 130.196 + 0.620 = 130.817
 ----------------------------------------
 IEEE_DENORMAL
 IEEE_DENORMAL
 IEEE_DENORMAL
 IEEE_DENORMAL
Note: The following floating-point exceptions are signalling: IEEE_UNDERFLOW_FLAGNote: The following floating-point exceptions are signalling: IEEE_DENORMAL
 IEEE_UNDERFLOW_FLAG IEEE_DENORMAL
 ddikick.x: exited gracefully.
unset echo
----- accounting info -----
Files used on the master node pietdev were:
-rwxr-xr-x 1 piet piet      665 mei 16 16:42 /home/piet/scr/asparagine_geoopt.F05*
-rw-r--r-- 1 piet piet 57344000 mei 16 16:45 /home/piet/scr/asparagine_geoopt.F10
-rw-r--r-- 1 piet piet  3253680 mei 16 16:45 /home/piet/scr/asparagine_geoopt.F22
-rw-r--r-- 1 piet piet  3253680 mei 16 16:45 /home/piet/scr/asparagine_geoopt.F22.001
-rw-r--r-- 1 piet piet  3253680 mei 16 16:45 /home/piet/scr/asparagine_geoopt.F22.002
-rw-r--r-- 1 piet piet  3253680 mei 16 16:45 /home/piet/scr/asparagine_geoopt.F22.003
-rw-r--r-- 1 piet piet  3253680 mei 16 16:45 /home/piet/scr/asparagine_geoopt.F22.004
-rw-r--r-- 1 piet piet  3253680 mei 16 16:45 /home/piet/scr/asparagine_geoopt.F22.005
ls: No match.
ls: No match.
ls: No match.
za 16 mei 2020 16:45:10 CEST
0.104u 0.028s 2:18.10 0.0%	0+0k 0+8io 0pf+0w
