----- GAMESS execution script 'rungms' -----
This job is running on host pietdev
under operating system Linux at za 16 mei 2020 17:05:08 CEST
Available scratch disk space (Kbyte units) at beginning of the job is
Filesystem     1K-blocks     Used Available Use% Mounted on
/dev/sda2      244568380 30358960 201716364  14% /
GAMESS temporary binary files will be written to /home/piet/scr
GAMESS supplementary output files will be written to /home/piet/gamess/scr
Copying input file asparagine_fukui_base.inp to your run's scratch directory...
cp asparagine_fukui_base.inp /home/piet/scr/asparagine_fukui_base.F05
unset echo
 
Assuming a single but multicore node.
 
/home/piet/gamess/ddikick.x /home/piet/gamess/gamess.03.x asparagine_fukui_base -ddi 1 6 pietdev:cpus=6 -scr /home/piet/scr

 Distributed Data Interface kickoff program.
 Initiating 6 compute processes on 1 nodes to run the following command:
 /home/piet/gamess/gamess.03.x asparagine_fukui_base 

          ******************************************************
          *         GAMESS VERSION = 30 SEP 2019 (R2)          *
          *             FROM IOWA STATE UNIVERSITY             *
          * M.W.SCHMIDT, K.K.BALDRIDGE, J.A.BOATZ, S.T.ELBERT, *
          *   M.S.GORDON, J.H.JENSEN, S.KOSEKI, N.MATSUNAGA,   *
          *          K.A.NGUYEN, S.J.SU, T.L.WINDUS,           *
          *       TOGETHER WITH M.DUPUIS, J.A.MONTGOMERY       *
          *         J.COMPUT.CHEM.  14, 1347-1363(1993)        *
          **************** 64 BIT LINUX VERSION ****************

  SINCE 1993, STUDENTS AND POSTDOCS WORKING AT IOWA STATE UNIVERSITY
  AND ALSO IN THEIR VARIOUS JOBS AFTER LEAVING ISU HAVE MADE IMPORTANT
  CONTRIBUTIONS TO THE CODE:
     IVANA ADAMOVIC, CHRISTINE AIKENS, YURI ALEXEEV, POOJA ARORA,
     ANDREY ASADCHEV, ROB BELL, PRADIPTA BANDYOPADHYAY, JONATHAN BENTZ,
     COLLEEN BERTONI, BRETT BODE, KURT BRORSEN, CALEB CARLIN, GALINA CHABAN,
     WEI CHEN, CHEOL HO CHOI, PAUL DAY, ALBERT DEFUSCO, NUWAN DESILVA,
     TIM DUDLEY, DMITRI FEDOROV, ALEX FINDLATER, GRAHAM FLETCHER, 
     MARK FREITAG, KURT GLAESEMANN, EMILIE B GUIDEZ, ANASTASIA GUNINA, 
     DAN KEMP, SAROM SOK LEANG, GRANT MERRILL,
     NORIYUKI MINEZAWA, JONATHAN MULLIN,
     TAKESHI NAGATA, SEAN NEDD, HEATHER NETZLOFF, BOSILJKA NJEGIC, RYAN OLSON,
     MIKE PAK, BUU PHAM, DAVID POOLE,
     SPENCER PRUITT, LUKE ROSKOP, TOSAPORN SATTASATHUCHANA,
     JIM SHOEMAKER, LYUDMILA SLIPCHENKO,
     TONY SMITH, JIE SONG, TETSUYA TAKETSUGU, SIMON WEBB,
     JORGE LUIS GALVEZ VALLEJO, PENG XU, SOOHAENG YOO,
     FEDERICO ZAHARIEV

  ADDITIONAL CODE HAS BEEN PROVIDED BY COLLABORATORS IN OTHER GROUPS:
     IOWA STATE UNIVERSITY:
          JOE IVANIC, AARON WEST, LAIMUTIS BYTAUTAS, KLAUS RUEDENBERG
     UNIVERSITY OF TOKYO: KIMIHIKO HIRAO, TAKAHITO NAKAJIMA,
          TAKAO TSUNEDA, MUNEAKI KAMIYA, SUSUMU YANAGISAWA,
          KIYOSHI YAGI, MAHITO CHIBA, SEIKEN TOKURA, NAOAKI KAWAKAMI
     UNIVERSITY OF AARHUS: FRANK JENSEN
     UNIVERSITY OF IOWA: VISVALDAS KAIRYS, HUI LI
     NATIONAL INST. OF STANDARDS AND TECHNOLOGY: WALT STEVENS, DAVID GARMER
     UNIVERSITY OF PISA: BENEDETTA MENNUCCI, JACOPO TOMASI
     UNIVERSITY OF MEMPHIS: HENRY KURTZ, PRAKASHAN KORAMBATH
     UNIVERSITY OF ALBERTA: TOBY ZENG, MARIUSZ KLOBUKOWSKI
     UNIVERSITY OF NEW ENGLAND: MARK SPACKMAN
     MIE UNIVERSITY: HIROAKI UMEDA
     NAT. INST. OF ADVANCED INDUSTRIAL SCIENCE AND TECHNOLOGY: KAZUO KITAURA
     MICHIGAN STATE UNIVERSITY:
          KAROL KOWALSKI, MARTA WLOCH, JEFFREY GOUR, JESSE LUTZ,
          WEI LI, JUN SHEN, J. EMILIANO DEUSTUA, PIOTR PIECUCH
     UNIVERSITY OF MINNESOTA:
          ANDREW SAND, PRACHI SHARMA, YINAN SHU
     UNIVERSITY OF SILESIA: MONIKA MUSIAL, STANISLAW KUCHARSKI
     FACULTES UNIVERSITAIRES NOTRE-DAME DE LA PAIX:
          OLIVIER QUINET, BENOIT CHAMPAGNE
     UNIVERSITY OF CALIFORNIA - SANTA BARBARA: BERNARD KIRTMAN
     INSTITUTE FOR MOLECULAR SCIENCE:
          KAZUYA ISHIMURA, MICHIO KATOUDA, AND SHIGERU NAGASE
     UNIVERSITY OF NOTRE DAME: ANNA POMOGAEVA, DAN CHIPMAN
     KYUSHU UNIVERSITY:
          HARUYUKI NAKANO,
          FENG LONG GU, JACEK KORCHOWIEC, MARCIN MAKOWSKI, AND YURIKO AOKI,
          HIROTOSHI MORI AND EISAKU MIYOSHI
     PENNSYLVANIA STATE UNIVERSITY:
          TZVETELIN IORDANOV, CHET SWALINA, JONATHAN SKONE,
          SHARON HAMMES-SCHIFFER
     WASEDA UNIVERSITY:
          MASATO KOBAYASHI, TOMOKO AKAMA, TSUGUKI TOUMA,
          TAKESHI YOSHIKAWA, YASUHIRO IKABATA, JUNJI SEINO,
          YUYA NAKAJIMA, HIROMI NAKAI
     NANJING UNIVERSITY: SHUHUA LI
     UNIVERSITY OF NEBRASKA:
          PEIFENG SU, DEJUN SI, NANDUN THELLAMUREGE, YALI WANG, HUI LI
     UNIVERSITY OF ZURICH: ROBERTO PEVERATI, KIM BALDRIDGE
     N. COPERNICUS UNIVERSITY AND JACKSON STATE UNIVERSITY:
          MARIA BARYSZ
     UNIVERSITY OF COPENHAGEN: Jimmy Kromann, CASPER STEINMANN
     TOKYO INSTITUTE OF TECHNOLOGY: HIROYA NAKATA
     NAGOYA UNIVERSITY: YOSHIO NISHIMOTO, STEPHAN IRLE
     MOSCOW STATE UNIVERSITY: VLADIMIR MIRONOV
     A.N.NESMEYANOV INSTITUTE OF ORGANOELEMENT COMPOUNDS OF RUSSIAN ACADEMY OF SCIENCES:
          IGOR S. GERASIMOV
     JOHANNES KEPLER UNIVERSITY LINZ:
          CHRISTIAN FRIEDL


 PARALLEL VERSION RUNNING ON        6 PROCESSORS IN        1 NODES.

 EXECUTION OF GAMESS BEGUN Sat May 16 17:05:09 2020

            ECHO OF THE FIRST FEW INPUT CARDS -
 INPUT CARD> $BASIS GBASIS=N21 NGAUSS=3 $END                                                
 INPUT CARD> $CONTRL SCFTYP=UHF MAXIT=60 MULT=2 ICHARG=1 $END                               
 INPUT CARD> $SYSTEM MEMDDI=1000 MWORDS=30 $END                                             
 INPUT CARD> $SCF DIRSCF=.TRUE. $END                                                        
 INPUT CARD> $STATPT OPTTOL=0.0001 NSTEP=999 $END                                           
 INPUT CARD> $DATA                                                                          
 INPUT CARD>                                                                                
 INPUT CARD>C1                                                                              
 INPUT CARD>C 6.0000000 -0.4805827013 0.2574298214 -0.3562470455                            
 INPUT CARD>H 1.0000000 -0.3950906039 0.0842825993 -1.4331830201                            
 INPUT CARD>C 6.0000000 0.5816350737 -0.5546029556 0.4005330954                             
 INPUT CARD>C 6.0000000 1.9939761610 -0.1002376789 0.0037717868                             
 INPUT CARD>N 7.0000000 2.9966123094 -0.8837403629 0.5145850527                             
 INPUT CARD>O 8.0000000 2.2086812885 0.8928453784 -0.7056850388                             
 INPUT CARD>H 1.0000000 0.4681171458 -0.4168998755 1.4851742701                             
 INPUT CARD>H 1.0000000 0.4765843979 -1.6281400787 0.1966126165                             
 INPUT CARD>H 1.0000000 2.8118031458 -1.7000282039 1.0841740673                             
 INPUT CARD>H 1.0000000 3.9584715651 -0.6374866458 0.3076958403                             
 INPUT CARD>H 1.0000000 -1.4882215998 -0.0185355895 -0.0302550974                           
 INPUT CARD>H 1.0000000 -0.3224061821 1.3252335915 -0.1832165273                            
 INPUT CARD> $END                                                                           
   30000000 WORDS OF MEMORY AVAILABLE

     BASIS OPTIONS
     -------------
     GBASIS=N21          IGAUSS=       3      POLAR=NONE    
     NDFUNC=       0     NFFUNC=       0     DIFFSP=       F
     NPFUNC=       0      DIFFS=       F     BASNAM=        


     RUN TITLE
     ---------
                                                                                 

 THE POINT GROUP OF THE MOLECULE IS C1      
 THE ORDER OF THE PRINCIPAL AXIS IS     0

 ATOM      ATOMIC                      COORDINATES (BOHR)
           CHARGE         X                   Y                   Z
 C           6.0    -0.9081696199        0.4864718235       -0.6732092999
 H           1.0    -0.7466129817        0.1592710182       -2.7083231982
 C           6.0     1.0991309141       -1.0480476181        0.7568977993
 C           6.0     3.7680685703       -0.1894217468        0.0071276435
 N           7.0     5.6627761562       -1.6700271302        0.9724247470
 O           8.0     4.1738024295        1.6872331146       -1.3335513570
 H           1.0     0.8846131357       -0.7878265290        2.8065724145
 H           1.0     0.9006139221       -3.0767386184        0.3715439709
 H           1.0     5.3135374770       -3.2125874768        2.0487919102
 H           1.0     7.4804265882       -1.2046750814        0.5814608257
 H           1.0    -2.8123310326       -0.0350271852       -0.0571738438
 H           1.0    -0.6092593409        2.5043283577       -0.3462290330

          INTERNUCLEAR DISTANCES (ANGS.)
          ------------------------------

                1 C          2 H          3 C          4 C          5 N     

   1 C       0.0000000    1.0941115 *  1.5363658 *  2.5260604 *  3.7618484  
   2 H       1.0941115 *  0.0000000    2.1736335 *  2.7940163 *  4.0292081  
   3 C       1.5363658 *  2.1736335 *  0.0000000    1.5357652 *  2.4399701 *
   4 C       2.5260604 *  2.7940163 *  1.5357652 *  0.0000000    1.3711622 *
   5 N       3.7618484    4.0292081    2.4399701 *  1.3711622 *  0.0000000  
   6 O       2.7853188 *  2.8218177 *  2.4425611 *  1.2392099 *  2.2948096 *
   7 H       2.1784362 *  3.0843347    1.0992247 *  2.1501335 *  2.7483215 *
   8 H       2.1856799 *  2.5196116 *  1.0977710 *  2.1619785 *  2.6468430 *
   9 H       4.0922194    4.4502831    2.5986561 *  2.0965304 *  1.0123793 *
  10 H       4.5767782    4.7439555    3.3791291    2.0591864 *  1.0142077 *
  11 H       1.0944240 *  1.7814920 *  2.1811129 *  3.4833223    4.5999093  
  12 H       1.0932357 *  1.7628552 *  2.1660655 *  2.7262722 *  4.0475149  

                6 O          7 H          8 H          9 H         10 H     

   1 C       2.7853188 *  2.1784362 *  2.1856799 *  4.0922194    4.5767782  
   2 H       2.8218177 *  3.0843347    2.5196116 *  4.4502831    4.7439555  
   3 C       2.4425611 *  1.0992247 *  1.0977710 *  2.5986561 *  3.3791291  
   4 C       1.2392099 *  2.1501335 *  2.1619785 *  2.0965304 *  2.0591864 *
   5 N       2.2948096 *  2.7483215 *  2.6468430 *  1.0123793 *  1.0142077 *
   6 O       0.0000000    3.0894758    3.1889917    3.2078568    2.5358673 *
   7 H       3.0894758    0.0000000    1.7684925 *  2.7018667 *  3.6902152  
   8 H       3.1889917    1.7684925 *  0.0000000    2.4992358 *  3.6217775  
   9 H       3.2078568    2.7018667 *  2.4992358 *  0.0000000    1.7454975 *
  10 H       2.5358673 *  3.6902152    3.6217775    1.7454975 *  0.0000000  
  11 H       3.8670288    2.5064879 *  2.5500506 *  4.7496929    5.4921560  
  12 H       2.6203696 *  2.5384019 *  3.0830297    4.5367120    4.7348896  

               11 H         12 H     

   1 C       1.0944240 *  1.0932357 *
   2 H       1.7814920 *  1.7628552 *
   3 C       2.1811129 *  2.1660655 *
   4 C       3.4833223    2.7262722 *
   5 N       4.5999093    4.0475149  
   6 O       3.8670288    2.6203696 *
   7 H       2.5064879 *  2.5384019 *
   8 H       2.5500506 *  3.0830297  
   9 H       4.7496929    4.5367120  
  10 H       5.4921560    4.7348896  
  11 H       0.0000000    1.7855639 *
  12 H       1.7855639 *  0.0000000  

  * ... LESS THAN  3.000


     ATOMIC BASIS SET
     ----------------
 THE CONTRACTED PRIMITIVE FUNCTIONS HAVE BEEN UNNORMALIZED
 THE CONTRACTED BASIS FUNCTIONS ARE NOW NORMALIZED TO UNITY

  SHELL TYPE  PRIMITIVE        EXPONENT          CONTRACTION COEFFICIENT(S)

 C         

      1   S       1           172.2560000    0.061766907377
      1   S       2            25.9109000    0.358794042852
      1   S       3             5.5333500    0.700713083689

      2   L       4             3.6649800   -0.395895162119    0.236459946619
      2   L       5             0.7705450    1.215834355681    0.860618805716

      3   L       6             0.1958570    1.000000000000    1.000000000000

 H         

      4   S       7             5.4471780    0.156284978695
      4   S       8             0.8245472    0.904690876670

      5   S       9             0.1831916    1.000000000000

 C         

      6   S      10           172.2560000    0.061766907377
      6   S      11            25.9109000    0.358794042852
      6   S      12             5.5333500    0.700713083689

      7   L      13             3.6649800   -0.395895162119    0.236459946619
      7   L      14             0.7705450    1.215834355681    0.860618805716

      8   L      15             0.1958570    1.000000000000    1.000000000000

 C         

      9   S      16           172.2560000    0.061766907377
      9   S      17            25.9109000    0.358794042852
      9   S      18             5.5333500    0.700713083689

     10   L      19             3.6649800   -0.395895162119    0.236459946619
     10   L      20             0.7705450    1.215834355681    0.860618805716

     11   L      21             0.1958570    1.000000000000    1.000000000000

 N         

     12   S      22           242.7660000    0.059865700508
     12   S      23            36.4851000    0.352955002994
     12   S      24             7.8144900    0.706513005993

     13   L      25             5.4252200   -0.413300077430    0.237972016222
     13   L      26             1.1491500    1.224417266851    0.858953058551

     14   L      27             0.2832050    1.000000000000    1.000000000000

 O         

     15   S      28           322.0370000    0.059239393389
     15   S      29            48.4308000    0.351499960776
     15   S      30            10.4206000    0.707657921031

     16   L      31             7.4029400   -0.404453583190    0.244586106967
     16   L      32             1.5762000    1.221561761397    0.853955373466

     17   L      33             0.3736840    1.000000000000    1.000000000000

 H         

     18   S      34             5.4471780    0.156284978695
     18   S      35             0.8245472    0.904690876670

     19   S      36             0.1831916    1.000000000000

 H         

     20   S      37             5.4471780    0.156284978695
     20   S      38             0.8245472    0.904690876670

     21   S      39             0.1831916    1.000000000000

 H         

     22   S      40             5.4471780    0.156284978695
     22   S      41             0.8245472    0.904690876670

     23   S      42             0.1831916    1.000000000000

 H         

     24   S      43             5.4471780    0.156284978695
     24   S      44             0.8245472    0.904690876670

     25   S      45             0.1831916    1.000000000000

 H         

     26   S      46             5.4471780    0.156284978695
     26   S      47             0.8245472    0.904690876670

     27   S      48             0.1831916    1.000000000000

 H         

     28   S      49             5.4471780    0.156284978695
     28   S      50             0.8245472    0.904690876670

     29   S      51             0.1831916    1.000000000000

 TOTAL NUMBER OF BASIS SET SHELLS             =   29
 NUMBER OF CARTESIAN GAUSSIAN BASIS FUNCTIONS =   59
 NUMBER OF ELECTRONS                          =   39
 CHARGE OF MOLECULE                           =    1
 SPIN MULTIPLICITY                            =    2
 NUMBER OF OCCUPIED ORBITALS (ALPHA)          =   20
 NUMBER OF OCCUPIED ORBITALS (BETA )          =   19
 TOTAL NUMBER OF ATOMS                        =   12
 THE NUCLEAR REPULSION ENERGY IS      177.7628458403

     $CONTRL OPTIONS
     ---------------
 SCFTYP=UHF          RUNTYP=ENERGY       EXETYP=RUN     
 MPLEVL=       0     CITYP =NONE         CCTYP =NONE         VBTYP =NONE    
 DFTTYP=NONE         TDDFT =NONE    
 MULT  =       2     ICHARG=       1     NZVAR =       0     COORD =UNIQUE  
 PP    =NONE         RELWFN=NONE         LOCAL =NONE         NUMGRD=       F
 ISPHER=      -1     NOSYM =       0     MAXIT =      60     UNITS =ANGS    
 PLTORB=       F     MOLPLT=       F     AIMPAC=       F     FRIEND=        
 NPRINT=       7     IREST =       0     GEOM  =INPUT   
 NORMF =       0     NORMP =       0     ITOL  =      20     ICUT  =       9
 INTTYP=BEST         GRDTYP=BEST         QMTTOL= 1.0E-06

     $SYSTEM OPTIONS
     ---------------
  REPLICATED MEMORY=    30000000 WORDS (ON EVERY NODE).
 DISTRIBUTED MEMDDI=        1000 MILLION WORDS IN AGGREGATE,
 MEMDDI DISTRIBUTED OVER   6 PROCESSORS IS   166666666 WORDS/PROCESSOR.
 TOTAL MEMORY REQUESTED ON EACH PROCESSOR=   196666666 WORDS.
 TIMLIM=      525600.00 MINUTES, OR     365.0 DAYS.
 PARALL= T  BALTYP=  DLB     KDIAG=    0  COREFL= F
 MXSEQ2=     300 MXSEQ3=     150  mem10=         0

          ----------------
          PROPERTIES INPUT
          ----------------

     MOMENTS            FIELD           POTENTIAL          DENSITY
 IEMOM =       1   IEFLD =       0   IEPOT =       0   IEDEN =       0
 WHERE =COMASS     WHERE =NUCLEI     WHERE =NUCLEI     WHERE =NUCLEI  
 OUTPUT=BOTH       OUTPUT=BOTH       OUTPUT=BOTH       OUTPUT=BOTH    
 IEMINT=       0   IEFINT=       0                     IEDINT=       0
                                                       MORB  =       0
          EXTRAPOLATION IN EFFECT
          SOSCF IN EFFECT
          DIIS or SOSCF will be reset if energy rises
 ORBITAL PRINTING OPTION: NPREO=     1    59     2     1

     -------------------------------
     INTEGRAL TRANSFORMATION OPTIONS
     -------------------------------
     NWORD  =            0
     CUTOFF = 1.0E-09     MPTRAN =       0
     DIRTRF =       T     AOINTS =DUP     

          ----------------------
          INTEGRAL INPUT OPTIONS
          ----------------------
 NOPK  =       1 NORDER=       0 SCHWRZ=       T

     ------------------------------------------
     THE POINT GROUP IS C1 , NAXIS= 0, ORDER= 1
     ------------------------------------------

     DIMENSIONS OF THE SYMMETRY SUBSPACES ARE
 A   =   59

 ..... DONE SETTING UP THE RUN .....
 CPU     0: STEP CPU TIME=     0.02 TOTAL CPU TIME=          0.0 (      0.0 MIN)
 TOTAL WALL CLOCK TIME=          0.0 SECONDS, CPU UTILIZATION IS    66.67%

          ********************
          1 ELECTRON INTEGRALS
          ********************
 ...... END OF ONE-ELECTRON INTEGRALS ......
 CPU     0: STEP CPU TIME=     0.01 TOTAL CPU TIME=          0.0 (      0.0 MIN)
 TOTAL WALL CLOCK TIME=          0.0 SECONDS, CPU UTILIZATION IS    75.00%

          -------------
          GUESS OPTIONS
          -------------
          GUESS =HUCKEL            NORB  =       0          NORDER=       0
          MIX   =       F          PRTMO =       F          PUNMO =       F
          TOLZ  = 1.0E-08          TOLE  = 1.0E-05
          SYMDEN=       F          PURIFY=       F

 INITIAL GUESS ORBITALS GENERATED BY HUCKEL   ROUTINE.
 HUCKEL GUESS REQUIRES     38133 WORDS.

 SYMMETRIES FOR INITIAL GUESS ORBITALS FOLLOW.  ALPHA SET(S).
    20 ORBITALS ARE OCCUPIED (    5 CORE ORBITALS).
     6=A        7=A        8=A        9=A       10=A       11=A       12=A   
    13=A       14=A       15=A       16=A       17=A       18=A       19=A   
    20=A       21=A       22=A       23=A       24=A       25=A       26=A   
    27=A       28=A       29=A       30=A   

 SYMMETRIES FOR INITIAL GUESS ORBITALS FOLLOW.   BETA SET(S).
    19 ORBITALS ARE OCCUPIED (    5 CORE ORBITALS).
     6=A        7=A        8=A        9=A       10=A       11=A       12=A   
    13=A       14=A       15=A       16=A       17=A       18=A       19=A   
    20=A       21=A       22=A       23=A       24=A       25=A       26=A   
    27=A       28=A       29=A   
 ...... END OF INITIAL ORBITAL SELECTION ......
 CPU     0: STEP CPU TIME=     0.02 TOTAL CPU TIME=          0.0 (      0.0 MIN)
 TOTAL WALL CLOCK TIME=          0.1 SECONDS, CPU UTILIZATION IS    83.33%

                    ----------------------
                    AO INTEGRAL TECHNOLOGY
                    ----------------------
     S,P,L SHELL ROTATED AXIS INTEGRALS, REPROGRAMMED BY
        KAZUYA ISHIMURA (IMS) AND JOSE SIERRA (SYNSTAR).
     S,P,D,L SHELL ROTATED AXIS INTEGRALS PROGRAMMED BY
        KAZUYA ISHIMURA (INSTITUTE FOR MOLECULAR SCIENCE).
     S,P,D,F,G SHELL TO TOTAL QUARTET ANGULAR MOMENTUM SUM 5,
        ERIC PROGRAM BY GRAHAM FLETCHER (ELORET AND NASA ADVANCED
        SUPERCOMPUTING DIVISION, AMES RESEARCH CENTER).
     S,P,D,F,G,L SHELL GENERAL RYS QUADRATURE PROGRAMMED BY
        MICHEL DUPUIS (PACIFIC NORTHWEST NATIONAL LABORATORY).

          --------------------
          2 ELECTRON INTEGRALS
          --------------------

 DIRECT SCF METHOD SKIPS INTEGRAL STORAGE ON DISK.
 DIRECT TRANSFORMATION SKIPS AO INTEGRAL STORAGE ON DISK.
  ...... END OF TWO-ELECTRON INTEGRALS .....
 CPU     0: STEP CPU TIME=     0.01 TOTAL CPU TIME=          0.1 (      0.0 MIN)
 TOTAL WALL CLOCK TIME=          0.1 SECONDS, CPU UTILIZATION IS    85.71%

          ---------------------------
                  UHF SCF CALCULATION
          ---------------------------

     NUCLEAR ENERGY =       177.7628458403
     MAXIT = 60     NPUNCH=  2     MULT=  2
     EXTRAP=T  DAMP=F  SHIFT=F  RSTRCT=F  DIIS=F  SOSCF=T
     DENSITY MATRIX CONV=  2.00E-05
     SOSCF WILL OPTIMIZE     780 ALPHA AND     760 BETA ROTATION ANGLES.
     SOGTOL= 2.500E-01
     MEMORY REQUIRED FOR UHF/ROHF ITERS=     91760 WORDS.

 DIRECT SCF CALCULATION, SCHWRZ=T   FDIFF=T
 SCHWARZ INEQUALITY OVERHEAD:      1753 INTEGRALS, T=        0.00

                                                                                NONZERO     BLOCKS
 ITER EX      TOTAL ENERGY        E CHANGE  DENSITY CHANGE    ORB. GRAD       INTEGRALS    SKIPPED
   1  0     -244.5832832323  -244.5832832323   0.763565538   0.000000000        1348654      22737
          ---------------START SECOND ORDER SCF---------------
   2  1     -245.2234509893    -0.6401677570   0.151909094   0.120694507        1345602      23631
   3  2     -245.2740885762    -0.0506375869   0.070582716   0.073590851        1337602      25453
   4  3     -245.3361718123    -0.0620832361   0.029794194   0.019858138        1331740      26628
   5  4     -245.3408029079    -0.0046310956   0.016608468   0.007501422        1321126      28290
   6  5     -245.3416933472    -0.0008904393   0.007527783   0.003104037        1313264      29287
   7  6     -245.3418118594    -0.0001185122   0.006973281   0.001627666        1284722      31871
   8  7     -245.3418600609    -0.0000482014   0.001341754   0.000805814        1281031      32448
   9  8     -245.3418691674    -0.0000091066   0.001314244   0.000399658        1253190      35042
  10  9     -245.3418720237    -0.0000028563   0.000478270   0.000197932        1244390      35532
  11 10     -245.3418724674    -0.0000004436   0.000166743   0.000114553        1212344      38470
  12 11     -245.3418726043    -0.0000001369   0.000136497   0.000048304        1183786      40689
  13 12     -245.3418726502    -0.0000000459   0.000119563   0.000028859        1160482      42267
  14 13     -245.3418726710    -0.0000000209   0.000073025   0.000016332        1148257      43457
  15 14     -245.3418726795    -0.0000000084   0.000031618   0.000006902        1123428      45280
  16 15     -245.3418726817    -0.0000000022   0.000014202   0.000003527        1092068      47076
  17 16     -245.3418726822    -0.0000000005   0.000006317   0.000003092        1049689      49851

          -----------------
          DENSITY CONVERGED
          -----------------
     TIME TO FORM FOCK OPERATORS=       0.3 SECONDS (       0.0 SEC/ITER)
     FOCK TIME ON FIRST ITERATION=       0.0, LAST ITERATION=       0.0
     TIME TO SOLVE SCF EQUATIONS=       0.0 SECONDS (       0.0 SEC/ITER)

 FINAL UHF ENERGY IS     -245.3418726822 AFTER  17 ITERATIONS

          --------------------
          SPIN SZ   =    0.500
          S-SQUARED =    0.762
          --------------------

  ----- ALPHA SET ----- 

          ------------
          EIGENVECTORS
          ------------

                      1          2          3          4          5
                  -20.8675   -15.7824   -11.6048   -11.4197   -11.3447
                     A          A          A          A          A   
    1  C  1  S   -0.000041  -0.000143  -0.000647  -0.001665   0.987504
    2  C  1  S   -0.000135  -0.001036  -0.001144  -0.002550   0.101726
    3  C  1  X    0.000500  -0.000960  -0.000979   0.000616   0.000811
    4  C  1  Y   -0.000086  -0.000008   0.000136  -0.000234  -0.000134
    5  C  1  Z   -0.000004   0.000044  -0.000086   0.000178   0.000123
    6  C  1  S    0.004690   0.000039   0.001767   0.022731  -0.079945
    7  C  1  X   -0.000844   0.003886   0.002337   0.009067  -0.004903
    8  C  1  Y   -0.002046   0.001134  -0.001037  -0.006541   0.001937
    9  C  1  Z    0.002687  -0.001705   0.000926   0.006490  -0.001609
   10  H  2  S    0.000237  -0.000513  -0.000412  -0.001364   0.000391
   11  H  2  S    0.000200  -0.000598   0.000371   0.000811   0.014367
   12  C  3  S   -0.000026  -0.000020  -0.001093   0.987999   0.000930
   13  C  3  S   -0.000085  -0.000547  -0.002452   0.105035  -0.001727
   14  C  3  X   -0.000260  -0.000251  -0.000120   0.000785  -0.000130
   15  C  3  Y    0.000338  -0.000126  -0.000170   0.000461   0.000064
   16  C  3  Z   -0.000148  -0.000029   0.000239  -0.000304   0.000004
   17  C  3  S    0.006164   0.000413   0.020960  -0.095237   0.017949
   18  C  3  X    0.008708  -0.002109   0.015799  -0.003140  -0.007951
   19  C  3  Y   -0.005440   0.002972   0.002595  -0.007073   0.005245
   20  C  3  Z    0.002900  -0.001000  -0.002991   0.005608  -0.005494
   21  C  4  S    0.000183  -0.000301   0.986765   0.000326   0.000524
   22  C  4  S    0.001721  -0.001694   0.094977  -0.002460  -0.000739
   23  C  4  X    0.000184   0.000144  -0.000283  -0.000125   0.000898
   24  C  4  Y    0.001322  -0.000014   0.001104   0.000182  -0.000221
   25  C  4  Z   -0.000929  -0.000029  -0.000738  -0.000121   0.000217
   26  C  4  S    0.014527   0.022530  -0.050348   0.023165  -0.002059
   27  C  4  X    0.007976   0.016699   0.016293  -0.017541  -0.004091
   28  C  4  Y    0.024802  -0.013583   0.012457  -0.001862   0.003275
   29  C  4  Z   -0.017777   0.008802  -0.009642   0.002074  -0.002175
   30  N  5  S   -0.000072   0.985948  -0.000001  -0.000040  -0.000116
   31  N  5  S   -0.000500   0.101625  -0.000329  -0.000779  -0.001004
   32  N  5  X    0.000940  -0.001281   0.001018   0.000630   0.000414
   33  N  5  Y    0.000666   0.001133   0.000341  -0.000285  -0.000161
   34  N  5  Z   -0.000487  -0.000767  -0.000272   0.000162   0.000043
   35  N  5  S    0.004581  -0.066391   0.006977   0.001975   0.004469
   36  N  5  X   -0.007628   0.008724  -0.006133  -0.000952  -0.003083
   37  N  5  Y   -0.005326  -0.007260  -0.003958   0.001964   0.001526
   38  N  5  Z    0.003979   0.004806   0.003020  -0.001296  -0.000792
   39  O  6  S    0.983524  -0.000001   0.000238   0.000053   0.000025
   40  O  6  S    0.101605  -0.000371   0.002050   0.000205   0.000112
   41  O  6  X   -0.000679   0.000595   0.000448  -0.000302   0.000090
   42  O  6  Y   -0.003907   0.000040   0.000132   0.000171   0.000100
   43  O  6  Z    0.002797  -0.000070  -0.000129  -0.000152   0.000013
   44  O  6  S   -0.058835   0.001883  -0.005998  -0.001875  -0.001320
   45  O  6  X    0.002204  -0.004182  -0.001716   0.003009   0.000560
   46  O  6  Y    0.013355   0.000826   0.004976   0.000332  -0.000164
   47  O  6  Z   -0.009546  -0.000350  -0.003368  -0.000234  -0.000147
   48  H  7  S   -0.000326   0.000213  -0.001599   0.001166  -0.001136
   49  H  7  S   -0.000659  -0.000761   0.002454   0.014209   0.001061
   50  H  8  S   -0.000824   0.000415  -0.001605   0.000966  -0.001174
   51  H  8  S   -0.001386   0.000195   0.001739   0.013887   0.000619
   52  H  9  S   -0.002395   0.001023  -0.002305   0.000179  -0.000460
   53  H  9  S   -0.001373   0.006755  -0.000993   0.000552   0.001099
   54  H 10  S    0.002233   0.001575   0.000939  -0.000293   0.000076
   55  H 10  S    0.001219   0.006325   0.002289   0.001556   0.000905
   56  H 11  S   -0.000648   0.000374  -0.000186  -0.001160   0.000057
   57  H 11  S   -0.001160   0.002297   0.001836  -0.000239   0.013150
   58  H 12  S   -0.000059  -0.000544  -0.000393  -0.001449   0.000392
   59  H 12  S    0.000218  -0.000126   0.000358   0.000612   0.014294

                      6          7          8          9         10
                   -1.8032    -1.4817    -1.2806    -1.1141    -1.0582
                     A          A          A          A          A   
    1  C  1  S   -0.002495  -0.003419  -0.102703  -0.145348  -0.094282
    2  C  1  S    0.003612   0.007349   0.103666   0.130941   0.088200
    3  C  1  X    0.001109   0.006628   0.046045  -0.012719  -0.027152
    4  C  1  Y   -0.000239  -0.002196  -0.025948   0.004703   0.014467
    5  C  1  Z    0.000821   0.001611   0.024974  -0.003660  -0.015325
    6  C  1  S   -0.018179   0.005711   0.228895   0.467473   0.308157
    7  C  1  X    0.005188  -0.018220   0.002018   0.029974  -0.010649
    8  C  1  Y    0.010037  -0.002859   0.005352  -0.007263   0.004740
    9  C  1  Z   -0.013368   0.005372  -0.005512   0.006136  -0.003991
   10  H  2  S    0.000150   0.003195   0.047047   0.082234   0.062019
   11  H  2  S   -0.001359   0.000391  -0.008412   0.011262   0.008973
   12  C  3  S   -0.010432  -0.027899  -0.173934   0.014275   0.048455
   13  C  3  S    0.010528   0.027808   0.164358  -0.013455  -0.042913
   14  C  3  X    0.012486   0.026153   0.018785  -0.132365  -0.061995
   15  C  3  Y    0.005659  -0.000832   0.029166   0.027730   0.034874
   16  C  3  Z   -0.005014  -0.000626  -0.025223  -0.027085  -0.033645
   17  C  3  S   -0.013253   0.063377   0.488113  -0.051848  -0.189311
   18  C  3  X   -0.041290   0.011265   0.013526  -0.008191  -0.043975
   19  C  3  Y    0.020814  -0.014226   0.019497   0.002141   0.024404
   20  C  3  Z   -0.009891   0.007145  -0.012246  -0.003663  -0.023786
   21  C  4  S   -0.105729  -0.081352  -0.059990   0.115779  -0.057135
   22  C  4  S    0.117987   0.103569   0.077808  -0.144674   0.081127
   23  C  4  X    0.032698   0.081758  -0.145005   0.016948   0.195990
   24  C  4  Y    0.104567  -0.110162  -0.026708   0.021698   0.045109
   25  C  4  Z   -0.075040   0.074478   0.025349  -0.020516  -0.044478
   26  C  4  S    0.060544   0.100363   0.115800  -0.296449   0.125274
   27  C  4  X   -0.043673  -0.030996  -0.038686   0.062940   0.093157
   28  C  4  Y   -0.091390   0.017812  -0.024987   0.058481  -0.019226
   29  C  4  Z    0.066389  -0.010845   0.019714  -0.047426   0.007240
   30  N  5  S   -0.023671  -0.206408   0.050507  -0.056001   0.031164
   31  N  5  S    0.022486   0.189630  -0.045572   0.050930  -0.025425
   32  N  5  X   -0.013499  -0.043502  -0.044973   0.139954  -0.035699
   33  N  5  Y    0.014419   0.029902  -0.001449  -0.079790   0.173639
   34  N  5  Z   -0.009653  -0.019700   0.003239   0.048698  -0.121114
   35  N  5  S    0.043397   0.647728  -0.179286   0.218850  -0.139977
   36  N  5  X    0.019211  -0.054681  -0.018145   0.093172  -0.002989
   37  N  5  Y    0.034620   0.046276  -0.007037  -0.070689   0.154586
   38  N  5  Z   -0.025036  -0.030895   0.005515   0.044634  -0.108649
   39  O  6  S   -0.224885   0.057418   0.032233  -0.054860   0.058698
   40  O  6  S    0.219980  -0.058224  -0.035090   0.059838  -0.061226
   41  O  6  X   -0.020801   0.022179  -0.072741   0.025150   0.188545
   42  O  6  Y   -0.097720  -0.008448  -0.011059   0.114598  -0.188767
   43  O  6  Z    0.069866   0.005091   0.010858  -0.085708   0.119966
   44  O  6  S    0.744994  -0.209367  -0.111874   0.202406  -0.230611
   45  O  6  X   -0.019737   0.029407  -0.059548   0.013379   0.171248
   46  O  6  Y   -0.129468   0.002134  -0.006451   0.100942  -0.164747
   47  O  6  Z    0.092278  -0.002933   0.006936  -0.074596   0.104151
   48  H  7  S    0.004035   0.010839   0.080469  -0.013094  -0.038767
   49  H  7  S   -0.003298  -0.004277  -0.012972   0.001885  -0.010204
   50  H  8  S    0.005368   0.011280   0.080315  -0.013115  -0.039407
   51  H  8  S    0.000733  -0.005946  -0.009546   0.001675  -0.013070
   52  H  9  S    0.013139   0.093516  -0.023418   0.069346  -0.127421
   53  H  9  S    0.004041   0.008630  -0.007336   0.023656  -0.049435
   54  H 10  S   -0.000004   0.088154  -0.047008   0.092824  -0.008604
   55  H 10  S   -0.004477   0.003712  -0.014676   0.038300  -0.013766
   56  H 11  S    0.002577   0.000155   0.042270   0.086125   0.065289
   57  H 11  S    0.006122  -0.011348  -0.005300   0.021594   0.012203
   58  H 12  S    0.000917   0.003098   0.048450   0.082544   0.060137
   59  H 12  S    0.001523  -0.002035  -0.008031   0.014404   0.002636

                     11         12         13         14         15
                   -1.0191    -0.9646    -0.9320    -0.9147    -0.8199
                     A          A          A          A          A   
    1  C  1  S    0.022486   0.053795  -0.006128   0.006102   0.000299
    2  C  1  S   -0.018087  -0.046200   0.006302  -0.006000  -0.000465
    3  C  1  X   -0.005790   0.035972  -0.008102   0.020017   0.010753
    4  C  1  Y   -0.032781  -0.054315   0.031735   0.016180   0.130357
    5  C  1  Z    0.026396   0.054281   0.022709  -0.011933   0.130401
    6  C  1  S   -0.095404  -0.221535   0.020728  -0.021019  -0.000632
    7  C  1  X   -0.021657  -0.006771  -0.006777   0.027112   0.007996
    8  C  1  Y   -0.019532  -0.020065   0.015157   0.010397   0.084040
    9  C  1  Z    0.016016   0.021021   0.015217  -0.010876   0.081812
   10  H  2  S   -0.024593  -0.056767  -0.012142   0.001765  -0.094734
   11  H  2  S   -0.005866  -0.025820  -0.014979   0.006868  -0.067804
   12  C  3  S   -0.066633  -0.081995   0.007109   0.004636   0.000300
   13  C  3  S    0.052061   0.064862  -0.006143   0.000396  -0.000710
   14  C  3  X   -0.032442  -0.065738   0.005746   0.040417   0.012511
   15  C  3  Y   -0.079848  -0.043225   0.072523   0.023714   0.227059
   16  C  3  Z    0.064506   0.058884   0.078732  -0.022012   0.217736
   17  C  3  S    0.318187   0.368620  -0.031569  -0.053588   0.000709
   18  C  3  X    0.029738  -0.025144   0.001248   0.006610   0.009185
   19  C  3  Y   -0.041811  -0.002992   0.049576   0.005564   0.219432
   20  C  3  Z    0.029951   0.019223   0.051538  -0.005158   0.217685
   21  C  4  S    0.042328   0.035154  -0.002207  -0.007569  -0.002435
   22  C  4  S   -0.057503  -0.035046   0.001525  -0.001314   0.001685
   23  C  4  X    0.100517  -0.022179   0.012602  -0.007672  -0.017407
   24  C  4  Y   -0.156191   0.168757   0.109225  -0.148109  -0.005572
   25  C  4  Z    0.108541  -0.099701   0.187679   0.092088   0.005556
   26  C  4  S   -0.122171  -0.147674   0.011105   0.063403   0.017472
   27  C  4  X    0.151199   0.056438   0.001348  -0.073062  -0.004938
   28  C  4  Y   -0.014992   0.049634   0.105544  -0.014648  -0.015019
   29  C  4  Z    0.005625  -0.022795   0.154733   0.002069  -0.017069
   30  N  5  S    0.018514  -0.006104  -0.000593  -0.004771  -0.000054
   31  N  5  S   -0.010488   0.007677   0.000162  -0.001228   0.000560
   32  N  5  X   -0.085433   0.305543  -0.012055   0.095009   0.000119
   33  N  5  Y    0.057479   0.036599   0.075865   0.251448   0.003710
   34  N  5  Z   -0.035545  -0.027740   0.085722  -0.183753   0.024286
   35  N  5  S   -0.097941   0.011120   0.004908   0.052758  -0.002875
   36  N  5  X   -0.076044   0.295600  -0.012351   0.088384   0.003277
   37  N  5  Y    0.029307   0.039765   0.069841   0.262118   0.007961
   38  N  5  Z   -0.016406  -0.030608   0.076994  -0.190353   0.034203
   39  O  6  S   -0.060436   0.024840  -0.002095  -0.023575   0.000754
   40  O  6  S    0.062960  -0.025221   0.002330   0.026576  -0.000376
   41  O  6  X    0.379042   0.065606   0.000491  -0.213185   0.032416
   42  O  6  Y    0.155937  -0.121655   0.268270   0.204323  -0.112383
   43  O  6  Z   -0.123081   0.112388   0.343534  -0.164038  -0.170075
   44  O  6  S    0.235835  -0.097471   0.007338   0.084248  -0.006046
   45  O  6  X    0.342348   0.060724   0.001133  -0.201073   0.034061
   46  O  6  Y    0.140893  -0.113551   0.266279   0.202753  -0.119079
   47  O  6  Z   -0.111129   0.105976   0.341011  -0.163594  -0.183049
   48  H  7  S    0.069685   0.086566   0.045070  -0.017241   0.156518
   49  H  7  S    0.024534   0.033241   0.026455  -0.015129   0.093188
   50  H  8  S    0.076092   0.074540  -0.055397  -0.018988  -0.172239
   51  H  8  S    0.025850   0.027698  -0.028863  -0.018434  -0.107280
   52  H  9  S   -0.041248  -0.049807  -0.006720  -0.202182   0.006024
   53  H  9  S   -0.021860  -0.018099  -0.003813  -0.103163   0.000668
   54  H 10  S   -0.042403   0.185047  -0.006324   0.116262  -0.002184
   55  H 10  S   -0.012829   0.086303  -0.003304   0.060957  -0.000176
   56  H 11  S   -0.004076  -0.036947   0.007712  -0.018224  -0.002728
   57  H 11  S   -0.001413  -0.015778   0.001798  -0.004102  -0.000916
   58  H 12  S   -0.030404  -0.055673   0.024420   0.006029   0.095334
   59  H 12  S   -0.007521  -0.028112   0.023815   0.016745   0.065426

                     16         17         18         19         20
                   -0.8097    -0.7216    -0.7113    -0.7061    -0.6773
                     A          A          A          A          A   
    1  C  1  S    0.003119  -0.003762  -0.000151   0.004479  -0.000865
    2  C  1  S    0.001820   0.000876  -0.000911  -0.010848   0.000159
    3  C  1  X    0.145444  -0.232823   0.083678   0.221066  -0.005331
    4  C  1  Y    0.055000   0.105096  -0.197615   0.200425   0.154157
    5  C  1  Z   -0.076320  -0.191441  -0.100053  -0.164944   0.198789
    6  C  1  S   -0.036933   0.087791  -0.017726   0.005866   0.005927
    7  C  1  X    0.084959  -0.164142   0.068774   0.246973  -0.005181
    8  C  1  Y    0.051174   0.046891  -0.162078   0.180436   0.156032
    9  C  1  Z   -0.063664  -0.128150  -0.110713  -0.149776   0.197841
   10  H  2  S    0.048214   0.111683   0.099409   0.100397  -0.168544
   11  H  2  S    0.025398   0.105399   0.087322   0.087689  -0.148451
   12  C  3  S   -0.004772   0.027799  -0.009079  -0.005506  -0.000554
   13  C  3  S    0.000941  -0.021796   0.007941   0.000389   0.001224
   14  C  3  X    0.171907   0.245017  -0.088909  -0.066660   0.001668
   15  C  3  Y    0.149153  -0.156629   0.098440  -0.114281  -0.119886
   16  C  3  Z   -0.167325   0.164175  -0.017122   0.090471  -0.157207
   17  C  3  S    0.020183  -0.150702   0.045737   0.055969  -0.002281
   18  C  3  X    0.112458   0.201729  -0.073966  -0.009838   0.000853
   19  C  3  Y    0.130451  -0.170254   0.084966  -0.103835  -0.143034
   20  C  3  Z   -0.153830   0.169592  -0.024923   0.083583  -0.170072
   21  C  4  S   -0.027200  -0.019687   0.006949   0.034663  -0.001697
   22  C  4  S    0.023194   0.013704  -0.005204  -0.031504   0.002172
   23  C  4  X   -0.237725  -0.122448   0.047014   0.154321  -0.007868
   24  C  4  Y   -0.034653   0.020880   0.065210   0.037703   0.030858
   25  C  4  Z    0.034984   0.044916   0.087155  -0.025539   0.046533
   26  C  4  S    0.169808   0.127984  -0.040855  -0.196049   0.006818
   27  C  4  X   -0.098319  -0.098505   0.037085   0.131024  -0.009574
   28  C  4  Y   -0.025084  -0.013376   0.072330   0.045224   0.045069
   29  C  4  Z    0.026236   0.061416   0.076818  -0.029749   0.061482
   30  N  5  S    0.015040   0.018611  -0.007574  -0.006685   0.001127
   31  N  5  S   -0.009519  -0.013589   0.005951   0.005278  -0.001418
   32  N  5  X    0.127434   0.104813  -0.028386  -0.048001   0.014306
   33  N  5  Y   -0.052600   0.049814   0.190334   0.026799   0.154310
   34  N  5  Z    0.029291   0.104948   0.263427   0.005215   0.223480
   35  N  5  S   -0.096154  -0.101924   0.039887   0.041549  -0.003336
   36  N  5  X    0.148273   0.132376  -0.033950  -0.065782   0.014385
   37  N  5  Y   -0.059349   0.064633   0.234070   0.027563   0.194404
   38  N  5  Z    0.031526   0.126290   0.326580   0.010474   0.275924
   39  O  6  S    0.003479  -0.001025  -0.000315   0.002671   0.000433
   40  O  6  S   -0.003164  -0.001368   0.001372  -0.002832  -0.000574
   41  O  6  X    0.292305   0.038657  -0.024397  -0.055023   0.005031
   42  O  6  Y    0.037129  -0.059851  -0.088386  -0.035794  -0.053813
   43  O  6  Z   -0.004895  -0.051401  -0.140950   0.020782  -0.071960
   44  O  6  S   -0.025403   0.014642  -0.002595  -0.008548  -0.002227
   45  O  6  X    0.318373   0.053096  -0.030758  -0.077927   0.006396
   46  O  6  Y    0.043302  -0.073171  -0.107193  -0.037730  -0.065937
   47  O  6  Z   -0.008039  -0.060727  -0.171382   0.021373  -0.088177
   48  H  7  S   -0.104565   0.059695   0.014855   0.066533  -0.135169
   49  H  7  S   -0.076566   0.055888   0.033069   0.065669  -0.112448
   50  H  8  S   -0.083767   0.044783  -0.056372   0.082453   0.118598
   51  H  8  S   -0.064919   0.027648  -0.073068   0.081205   0.091053
   52  H  9  S    0.007214  -0.012286   0.005134   0.004914  -0.001475
   53  H  9  S   -0.002233  -0.010249   0.003501   0.010121   0.001725
   54  H 10  S    0.064316   0.055542  -0.020966  -0.027288   0.003577
   55  H 10  S    0.059094   0.050350  -0.019936  -0.031250   0.004923
   56  H 11  S   -0.108673   0.093171  -0.040561  -0.223322   0.019590
   57  H 11  S   -0.076919   0.073659  -0.029215  -0.163172   0.016379
   58  H 12  S    0.037051   0.029711  -0.144480   0.140955   0.140994
   59  H 12  S    0.013299   0.029215  -0.136105   0.124686   0.121877

                     21         22         23         24         25
                   -0.0925     0.0459     0.0787     0.1090     0.1387
                     A          A          A          A          A   
    1  C  1  S   -0.006232   0.005218  -0.082649  -0.063954  -0.016798
    2  C  1  S    0.002780   0.004008   0.024759   0.017126   0.002234
    3  C  1  X    0.010226  -0.038306   0.013963  -0.005827   0.021592
    4  C  1  Y   -0.014184   0.028487  -0.021413   0.036102  -0.084490
    5  C  1  Z   -0.000313  -0.028310   0.016137  -0.023720  -0.099087
    6  C  1  S    0.057373  -0.088838   1.095117   0.916694   0.232814
    7  C  1  X    0.005214  -0.150743   0.010877  -0.001987   0.110648
    8  C  1  Y   -0.074586   0.144903   0.004210   0.214457  -0.275713
    9  C  1  Z   -0.048086  -0.145638  -0.009394  -0.176770  -0.331606
   10  H  2  S   -0.001190   0.005646   0.007732  -0.014490  -0.060671
   11  H  2  S   -0.059244  -0.067832  -0.371292  -0.492766  -0.766779
   12  C  3  S   -0.000394  -0.056970  -0.065464  -0.081328   0.008822
   13  C  3  S    0.001101   0.028062   0.024267   0.034306  -0.000404
   14  C  3  X    0.001561  -0.003758  -0.005654   0.126986   0.029375
   15  C  3  Y   -0.008259  -0.059077  -0.093728   0.023698  -0.179534
   16  C  3  Z   -0.017813   0.032328   0.077941   0.017164  -0.216259
   17  C  3  S    0.000572   0.658170   0.893529   1.047789  -0.139048
   18  C  3  X    0.020446  -0.272892   0.125822   0.543686   0.146673
   19  C  3  Y    0.105450  -0.144418  -0.542793  -0.001085  -0.779868
   20  C  3  Z    0.109557   0.067539   0.453121   0.174388  -0.870290
   21  C  4  S    0.001092   0.024816   0.023613   0.049194   0.004698
   22  C  4  S    0.001033  -0.005356   0.022781   0.002672  -0.009263
   23  C  4  X    0.016763  -0.083023   0.017521   0.115220   0.035703
   24  C  4  Y    0.263041   0.021481  -0.085481   0.038094   0.039604
   25  C  4  Z    0.371753  -0.001448   0.052863  -0.053845   0.055388
   26  C  4  S   -0.022271  -0.115693  -0.430403  -0.719830  -0.032298
   27  C  4  X    0.031096  -0.173249  -0.004319   0.376384   0.107732
   28  C  4  Y    0.403784  -0.164264  -0.213652   0.130592   0.189876
   29  C  4  Z    0.562438   0.150515   0.132525  -0.178736   0.260798
   30  N  5  S    0.000792  -0.130550   0.050545  -0.011932   0.004130
   31  N  5  S   -0.000585   0.065761  -0.023163   0.003934  -0.002206
   32  N  5  X   -0.006937   0.037180  -0.113001   0.140379   0.020443
   33  N  5  Y   -0.125095  -0.082273  -0.043063   0.138627  -0.034763
   34  N  5  Z   -0.185861   0.048825   0.029870  -0.090798  -0.059311
   35  N  5  S   -0.005180   1.245383  -0.507177   0.144322  -0.041803
   36  N  5  X   -0.016086   0.207631  -0.391010   0.415192   0.067583
   37  N  5  Y   -0.230407  -0.281414  -0.124380   0.455437  -0.057164
   38  N  5  Z   -0.347625   0.172707   0.100656  -0.306813  -0.100507
   39  O  6  S    0.000125  -0.025085  -0.034551  -0.005897   0.000197
   40  O  6  S   -0.000338   0.018144   0.017681   0.011166   0.000697
   41  O  6  X   -0.007609   0.038639  -0.064813  -0.045467  -0.009452
   42  O  6  Y   -0.127671  -0.050510  -0.064793   0.017553  -0.029546
   43  O  6  Z   -0.181590   0.029691   0.054141   0.003102  -0.034986
   44  O  6  S    0.000163   0.246766   0.356804   0.021420  -0.006460
   45  O  6  X   -0.012569   0.031239  -0.085088  -0.080538  -0.023369
   46  O  6  Y   -0.197659  -0.118412  -0.174787   0.005973  -0.051595
   47  O  6  Z   -0.279369   0.073057   0.134011   0.022234  -0.074957
   48  H  7  S   -0.094564   0.015818  -0.031114  -0.005306   0.058243
   49  H  7  S   -0.323777  -0.360497  -0.778837  -0.523102   1.324542
   50  H  8  S    0.081354   0.018167  -0.046786   0.000085  -0.057556
   51  H  8  S    0.294197  -0.446682  -0.888655  -0.298052  -1.138298
   52  H  9  S    0.001901  -0.084881  -0.015529   0.070274   0.006043
   53  H  9  S    0.012445  -1.095086  -0.157931   0.860625   0.072180
   54  H 10  S    0.000207  -0.048618   0.089232  -0.067182  -0.007310
   55  H 10  S    0.000153  -0.688082   0.909123  -0.979340  -0.094931
   56  H 11  S   -0.004169  -0.008183  -0.021807   0.036421   0.013561
   57  H 11  S   -0.024533  -0.082053  -0.463351  -0.137983   0.097722
   58  H 12  S    0.002707   0.012361   0.010176  -0.028601   0.046401
   59  H 12  S    0.038479  -0.032987  -0.339882  -0.587361   0.472718

                     26         27         28         29         30
                    0.1538     0.1754     0.1964     0.1999     0.2278
                     A          A          A          A          A   
    1  C  1  S   -0.089160   0.101348   0.016433   0.003691   0.064832
    2  C  1  S    0.010045  -0.042458  -0.009232  -0.008243  -0.001141
    3  C  1  X    0.103492   0.163816   0.023309   0.010392  -0.187129
    4  C  1  Y    0.067672   0.029128  -0.003804  -0.252847   0.050179
    5  C  1  Z   -0.019897  -0.043087   0.252960  -0.007543  -0.049785
    6  C  1  S    1.279333  -1.314667  -0.279191  -0.072519  -0.950523
    7  C  1  X    0.525099   0.890424   0.055247   0.003167  -1.254854
    8  C  1  Y    0.229029   0.201683   0.039119  -1.373844   0.327478
    9  C  1  Z   -0.001072  -0.258797   1.362067  -0.048863  -0.275694
   10  H  2  S   -0.014840  -0.030968   0.061717  -0.013342  -0.027097
   11  H  2  S   -0.558201   0.161802   1.648121  -0.302015   0.157087
   12  C  3  S    0.071786  -0.078823  -0.001885   0.007985  -0.126535
   13  C  3  S   -0.018218   0.020009   0.003224  -0.002633   0.020956
   14  C  3  X    0.135264   0.075630   0.123887   0.144505   0.030750
   15  C  3  Y    0.096620  -0.004746  -0.094033   0.078161   0.149103
   16  C  3  Z   -0.061157   0.011458  -0.075807   0.085320  -0.162981
   17  C  3  S   -1.158871   1.073007  -0.109252  -0.258806   1.880226
   18  C  3  X    0.698329   0.250886   0.714156   0.839778   0.353036
   19  C  3  Y    0.239713  -0.208513  -0.502339   0.433905   1.028162
   20  C  3  Z   -0.138146   0.222370  -0.465485   0.500376  -1.042707
   21  C  4  S    0.086082   0.067635   0.057104   0.075038   0.098209
   22  C  4  S   -0.057122  -0.047341  -0.028644  -0.031451  -0.042113
   23  C  4  X   -0.002245   0.079497   0.056687   0.018426   0.114946
   24  C  4  Y    0.011480   0.030649   0.009688  -0.074051   0.090225
   25  C  4  Z   -0.010788  -0.009145   0.085807  -0.056331  -0.066496
   26  C  4  S   -1.045670  -0.775417  -0.796670  -1.070613  -1.456586
   27  C  4  X   -0.040660   0.109183   0.206158   0.113969   0.809368
   28  C  4  Y   -0.095672   0.365686  -0.092913  -0.234097   0.332082
   29  C  4  Z    0.047821  -0.271216   0.249638  -0.068287  -0.215781
   30  N  5  S   -0.045127  -0.013918  -0.007950  -0.023265  -0.016292
   31  N  5  S    0.019494   0.002307   0.005062   0.010293   0.022076
   32  N  5  X   -0.077715  -0.086552   0.036035   0.009837  -0.155773
   33  N  5  Y   -0.007910   0.016600   0.010640   0.059314   0.011401
   34  N  5  Z    0.012090  -0.014285  -0.053184   0.002515   0.001193
   35  N  5  S    0.449448   0.210522   0.063093   0.237560   0.052691
   36  N  5  X   -0.320658  -0.352810   0.070730  -0.055216  -0.466948
   37  N  5  Y   -0.026488   0.092884   0.044637   0.151407  -0.025529
   38  N  5  Z    0.036319  -0.054337  -0.101070  -0.029372   0.024964
   39  O  6  S   -0.038209   0.004009  -0.035280  -0.036507  -0.006896
   40  O  6  S    0.024112  -0.003156   0.021250   0.017814   0.014141
   41  O  6  X   -0.002477   0.014958  -0.035098  -0.004609  -0.076679
   42  O  6  Y   -0.073593  -0.036314  -0.075432  -0.084437  -0.020230
   43  O  6  Z    0.061644   0.028830   0.041573   0.071181   0.003107
   44  O  6  S    0.399814  -0.083131   0.379364   0.411614   0.018300
   45  O  6  X   -0.022593   0.000704  -0.090232  -0.056372  -0.142937
   46  O  6  Y   -0.203863  -0.032451  -0.203815  -0.188944  -0.035746
   47  O  6  Z    0.155098   0.024916   0.096175   0.192308   0.014811
   48  H  7  S    0.020738  -0.006967  -0.029951  -0.007767   0.064295
   49  H  7  S    0.681207  -0.526464   0.528640  -0.424044   0.325052
   50  H  8  S    0.030015  -0.005980  -0.020563  -0.036564   0.059735
   51  H  8  S    0.851534  -0.491355  -0.574178   0.596155   0.199788
   52  H  9  S   -0.081224   0.028154  -0.026247  -0.040578   0.055356
   53  H  9  S   -0.471845  -0.009129   0.070305  -0.007645  -0.137565
   54  H 10  S    0.045871  -0.005422   0.027703   0.037957  -0.037149
   55  H 10  S    0.241956   0.272459  -0.192844  -0.123658   0.439592
   56  H 11  S    0.052325   0.085818  -0.012393  -0.005491  -0.011585
   57  H 11  S    0.292731   1.731229  -0.271683  -0.308509  -0.597336
   58  H 12  S   -0.042150  -0.033286  -0.014876   0.056473  -0.035687
   59  H 12  S   -0.952881   0.172024  -0.198836   1.573902   0.193109

                     31         32         33         34         35
                    0.2915     0.3500     0.6830     0.7000     0.7606
                     A          A          A          A          A   
    1  C  1  S   -0.039534  -0.037453   0.000145  -0.006396   0.005887
    2  C  1  S    0.014420  -0.031792  -0.014140   0.068637  -0.016734
    3  C  1  X    0.023354  -0.164237  -0.104363   0.392274   0.103668
    4  C  1  Y   -0.048864  -0.047926   0.153625   0.113747  -0.281000
    5  C  1  Z    0.050713   0.060035   0.203762  -0.030978   0.239729
    6  C  1  S    0.529539   1.021338   0.064613  -0.278217   0.262422
    7  C  1  X    0.253558   0.166342   0.115537  -0.482365  -0.055012
    8  C  1  Y   -0.353890  -0.395577  -0.246967  -0.244822   0.333799
    9  C  1  Z    0.293275   0.497746  -0.337236   0.096918  -0.283498
   10  H  2  S   -0.008337  -0.021423  -0.321324   0.097846  -0.152123
   11  H  2  S    0.020675   0.131350   0.019150   0.010554   0.017524
   12  C  3  S   -0.010629   0.024761   0.001248  -0.001129   0.006843
   13  C  3  S   -0.025694  -0.035724   0.005744  -0.043337  -0.081146
   14  C  3  X    0.134543   0.039645   0.006359   0.026296  -0.766360
   15  C  3  Y   -0.053711  -0.107976   0.183888  -0.011146   0.039509
   16  C  3  Z    0.078150   0.045723   0.193280   0.090338  -0.025023
   17  C  3  S    0.492087  -0.183247  -0.132657   0.638693   0.237558
   18  C  3  X    1.152698   0.714061  -0.060287   0.279075   0.876536
   19  C  3  Y    0.101322  -0.811767  -0.272120   0.308808  -0.048396
   20  C  3  Z    0.047322   0.523511  -0.163328  -0.361612   0.033714
   21  C  4  S   -0.052201   0.039632  -0.000325   0.007642  -0.033053
   22  C  4  S   -0.040493  -0.060874  -0.007051  -0.063803   0.048575
   23  C  4  X    0.328136  -0.272360   0.128641  -0.696982   0.083216
   24  C  4  Y    0.045095   0.236820   0.428331   0.516608   0.393806
   25  C  4  Z   -0.062240  -0.160470   0.665909  -0.229383  -0.301299
   26  C  4  S    0.744453  -0.641189   0.063233  -0.099238  -0.260880
   27  C  4  X    1.663365  -0.814257  -0.229484   1.303770   0.063461
   28  C  4  Y    0.496421   1.779071  -0.381661  -0.432289  -0.223645
   29  C  4  Z   -0.469731  -1.221095  -0.604600   0.162367   0.166082
   30  N  5  S    0.045007  -0.087389   0.002377  -0.024377  -0.000483
   31  N  5  S   -0.027704   0.010782  -0.003492   0.037671  -0.036098
   32  N  5  X    0.102625  -0.153584   0.002543  -0.044864   0.101379
   33  N  5  Y   -0.198440   0.073992   0.031408   0.040539  -0.039926
   34  N  5  Z    0.141710  -0.056345   0.050547  -0.010474   0.013197
   35  N  5  S   -0.459636   1.365862   0.056379  -0.434975  -0.003262
   36  N  5  X    0.270584  -0.974344   0.005094   0.010349  -0.149819
   37  N  5  Y   -0.788139   0.493092   0.062986  -0.054799  -0.081498
   38  N  5  Z    0.554469  -0.308088   0.065255   0.045429   0.064567
   39  O  6  S    0.075207   0.075474  -0.000106   0.010843   0.022130
   40  O  6  S   -0.040741  -0.029604  -0.000084  -0.004949  -0.050114
   41  O  6  X   -0.102748   0.119585   0.020538  -0.140534   0.120324
   42  O  6  Y    0.122272   0.048393   0.016768   0.093538   0.093889
   43  O  6  Z   -0.075195  -0.035380   0.041351  -0.062280  -0.067047
   44  O  6  S   -0.919076  -1.100488  -0.006888   0.013853   0.057526
   45  O  6  X   -0.220474   0.307618   0.024588  -0.120238  -0.032814
   46  O  6  Y    0.429388   0.310226   0.040745   0.123700   0.108711
   47  O  6  Z   -0.281417  -0.230728   0.065774  -0.071151  -0.078974
   48  H  7  S    0.022406  -0.008144   0.333070   0.015912   0.003612
   49  H  7  S   -0.089208  -0.102218  -0.084134   0.066620  -0.025207
   50  H  8  S    0.039731   0.028771  -0.300873  -0.128943   0.002794
   51  H  8  S    0.103137  -0.380433   0.061302   0.113834  -0.036159
   52  H  9  S    0.053247   0.057961  -0.001615  -0.009606  -0.300382
   53  H  9  S   -0.818162   0.040894   0.002811  -0.058622   0.030252
   54  H 10  S   -0.095812  -0.025277   0.022635  -0.162125   0.239842
   55  H 10  S    0.022605   0.324516   0.001887   0.001733  -0.114706
   56  H 11  S    0.055873   0.097745   0.085340  -0.300734   0.138852
   57  H 11  S   -0.062885  -0.593104  -0.052446   0.163840   0.008896
   58  H 12  S   -0.012371  -0.029673   0.227825   0.236758  -0.183772
   59  H 12  S    0.043006  -0.004718  -0.018757   0.021235   0.029752

                     36         37         38         39         40
                    0.7626     0.7806     0.8259     0.8695     0.9139
                     A          A          A          A          A   
    1  C  1  S   -0.005423   0.001380  -0.006324   0.049719  -0.011661
    2  C  1  S    0.012401  -0.004646   0.079602  -0.125650   0.022154
    3  C  1  X    0.026119  -0.000816   0.092650  -0.502460  -0.136667
    4  C  1  Y   -0.195996   0.377672   0.137481   0.519546  -0.140871
    5  C  1  Z    0.091200   0.436766  -0.149671  -0.520229   0.135661
    6  C  1  S    0.145713   0.046972  -0.627758   0.103856  -0.296498
    7  C  1  X    0.022305   0.016806  -0.384023   0.702160   0.208974
    8  C  1  Y    0.255996  -0.550852  -0.234479  -0.821250   0.433196
    9  C  1  Z   -0.107174  -0.631442   0.252315   0.844059  -0.409663
   10  H  2  S   -0.057542  -0.406117   0.042401   0.243286  -0.114735
   11  H  2  S   -0.024125   0.073658   0.093315   0.173015  -0.086221
   12  C  3  S    0.019001   0.000584   0.032149  -0.046897   0.001455
   13  C  3  S   -0.113761  -0.008277  -0.066169   0.125588   0.040119
   14  C  3  X   -0.376382  -0.068138  -0.199505  -0.458034   0.233638
   15  C  3  Y   -0.008113   0.123871  -0.654877   0.097930  -0.166750
   16  C  3  Z   -0.007104   0.093607   0.632001  -0.058612   0.177493
   17  C  3  S    0.871924   0.080254  -0.167480  -0.388803  -0.288454
   18  C  3  X    0.840330   0.119986   0.272364   0.829090  -0.865781
   19  C  3  Y    0.114617  -0.245442   1.310610  -0.172061   0.241858
   20  C  3  Z   -0.064497  -0.190658  -1.278341   0.095677  -0.246143
   21  C  4  S    0.039239   0.005863  -0.014098   0.015939   0.021168
   22  C  4  S   -0.322809  -0.050173   0.151033  -0.251528  -0.293941
   23  C  4  X   -0.609630  -0.057424  -0.004368  -0.045874   0.047481
   24  C  4  Y   -0.561686  -0.477070  -0.051575   0.027989   0.067791
   25  C  4  Z    0.544617  -0.444063   0.007453  -0.024708  -0.095894
   26  C  4  S   -0.379345  -0.046171  -0.649450   0.022615   0.990249
   27  C  4  X    1.293823   0.076748   0.211819   0.409527  -0.100759
   28  C  4  Y    0.621260   0.672073  -0.454680  -0.013812  -0.587526
   29  C  4  Z   -0.658466   0.556074   0.425101   0.006554   0.511160
   30  N  5  S   -0.002405  -0.000006   0.015302  -0.004906  -0.049976
   31  N  5  S   -0.013036  -0.003107   0.008623  -0.020171   0.053197
   32  N  5  X    0.135019   0.016154  -0.096863   0.076880  -0.116587
   33  N  5  Y    0.001513  -0.073787   0.092719  -0.031788   0.061886
   34  N  5  Z    0.012533  -0.105733  -0.036401   0.006495  -0.055770
   35  N  5  S   -0.036225   0.067243  -0.259242  -0.107525  -0.310237
   36  N  5  X   -0.095579  -0.044127   0.187866   0.016991   0.602020
   37  N  5  Y   -0.164342  -0.043302  -0.007063  -0.144827  -0.340400
   38  N  5  Z    0.137640  -0.052785  -0.039781   0.104679   0.209609
   39  O  6  S   -0.016681  -0.002105  -0.022087   0.000354  -0.007555
   40  O  6  S    0.021592   0.007814   0.009264  -0.000178   0.003336
   41  O  6  X   -0.085905  -0.017147   0.082481  -0.027910   0.070785
   42  O  6  Y   -0.183744  -0.055410   0.018796  -0.026794  -0.035490
   43  O  6  Z    0.146372  -0.011446  -0.043974   0.009227   0.019705
   44  O  6  S   -0.290644  -0.079976   0.435879  -0.041321   0.184760
   45  O  6  X   -0.174748  -0.003782  -0.082086  -0.043489  -0.056665
   46  O  6  Y   -0.116589  -0.076459  -0.148706   0.014467  -0.005232
   47  O  6  Z    0.108828  -0.080428   0.101339  -0.004040  -0.007177
   48  H  7  S    0.012552   0.179611   0.384763  -0.099538  -0.028488
   49  H  7  S    0.064193  -0.053744   0.285937  -0.006692   0.070824
   50  H  8  S    0.054034  -0.187896   0.338061  -0.113777  -0.015625
   51  H  8  S    0.049984   0.036694   0.300236  -0.026261   0.052201
   52  H  9  S   -0.013426   0.013558   0.136881  -0.280551  -0.833058
   53  H  9  S   -0.076919  -0.015634   0.081881   0.056047   0.453485
   54  H 10  S   -0.130707   0.003620   0.041675  -0.052029  -0.816158
   55  H 10  S   -0.074065  -0.009210  -0.055225  -0.027241   0.352015
   56  H 11  S    0.085291   0.041470   0.107363   0.141027   0.094781
   57  H 11  S    0.030385   0.000682  -0.144149   0.093668   0.105275
   58  H 12  S   -0.158704   0.358608   0.049813   0.222323  -0.123838
   59  H 12  S   -0.004368  -0.077037   0.093677   0.160429  -0.093258

                     41         42         43         44         45
                    0.9931     1.0260     1.1013     1.1324     1.1712
                     A          A          A          A          A   
    1  C  1  S   -0.002337   0.054552  -0.004333   0.002151  -0.010248
    2  C  1  S   -0.009067   0.055271  -0.031100   0.001070   0.018698
    3  C  1  X    0.123241  -0.214461   0.604920  -0.103540  -0.046355
    4  C  1  Y    0.419755  -0.157949   0.171879   0.221895  -0.021106
    5  C  1  Z    0.319908   0.215803  -0.266656   0.316028  -0.070056
    6  C  1  S    0.103626  -0.376961   0.706753  -0.117143  -0.044927
    7  C  1  X   -0.267764   0.784221  -1.070347   0.152922   0.026518
    8  C  1  Y   -1.111386   0.130212  -0.713195  -0.528960  -0.075016
    9  C  1  Z   -0.854441  -0.324186   0.885210  -0.805075  -0.011604
   10  H  2  S   -0.058323   0.350679  -0.008330  -0.050648  -0.071050
   11  H  2  S   -0.425940  -0.200867   0.367558  -0.468278   0.036163
   12  C  3  S   -0.002216   0.043140   0.030243  -0.005279   0.005935
   13  C  3  S   -0.003757   0.036850  -0.116967   0.040803  -0.039993
   14  C  3  X   -0.078684   0.067157  -0.206314  -0.011966   0.023952
   15  C  3  Y   -0.649410   0.224919   0.403687   0.235547  -0.205846
   16  C  3  Z   -0.678767  -0.353153  -0.055843   0.364377  -0.211875
   17  C  3  S    0.035490  -0.161070   0.226747  -0.119337   0.079490
   18  C  3  X    0.261658  -0.386164   1.070555  -0.119908   0.028218
   19  C  3  Y    1.489906  -0.013093  -0.836598   0.207423   0.533834
   20  C  3  Z    1.558134   0.374294   0.175552  -0.072868   0.473090
   21  C  4  S    0.001484  -0.027368  -0.006752   0.003381  -0.000765
   22  C  4  S    0.020275   0.446565   0.458530  -0.087864  -0.002751
   23  C  4  X    0.072066  -0.212496   0.291369  -0.033735  -0.027017
   24  C  4  Y    0.059909   0.107016  -0.221062   0.160628   0.066538
   25  C  4  Z    0.178530  -0.072972   0.204241   0.104176   0.093703
   26  C  4  S   -0.195681  -0.068301  -1.100784   0.200008  -0.025549
   27  C  4  X   -0.074426   0.231956  -0.917154   0.171427   0.130048
   28  C  4  Y   -0.257747  -0.707866   1.371472  -0.608266  -0.358603
   29  C  4  Z   -0.630176   0.450137  -1.001288  -0.084702  -0.397560
   30  N  5  S   -0.007310   0.006921  -0.051193   0.012390   0.002876
   31  N  5  S    0.007969  -0.003293   0.075903  -0.019893  -0.006192
   32  N  5  X    0.004722  -0.082264   0.025870  -0.027474  -0.071916
   33  N  5  Y    0.113780   0.046938  -0.039500  -0.037704  -0.616290
   34  N  5  Z    0.183451  -0.034077  -0.036673  -0.179219  -0.778557
   35  N  5  S    0.102195  -0.332323   1.009268  -0.235315  -0.065041
   36  N  5  X   -0.028373   0.391180  -0.372035   0.156546   0.072157
   37  N  5  Y   -0.047103  -0.013739   0.166851   0.069250   0.627008
   38  N  5  Z   -0.038281   0.004144  -0.031507   0.240221   0.879744
   39  O  6  S    0.000797  -0.018015   0.021820  -0.009573  -0.000235
   40  O  6  S   -0.001480   0.033587  -0.014799   0.021277  -0.005107
   41  O  6  X    0.011677  -0.020143  -0.051934   0.016878   0.006615
   42  O  6  Y    0.052198   0.080855   0.002985   0.100848   0.082706
   43  O  6  Z    0.079036  -0.037728   0.008208   0.150467   0.101291
   44  O  6  S   -0.030805   0.397486  -0.518430   0.152967   0.025892
   45  O  6  X    0.013657  -0.056293   0.251865  -0.057882  -0.026603
   46  O  6  Y    0.020998  -0.090584   0.065796  -0.063831  -0.016564
   47  O  6  Z    0.043384   0.061552  -0.052389  -0.036803  -0.001090
   48  H  7  S   -0.112846   0.501259   0.145797  -0.868534   0.183896
   49  H  7  S   -0.724953  -0.465043  -0.061106   0.926429  -0.498138
   50  H  8  S    0.095309   0.511322   0.411933   0.776114  -0.052312
   51  H  8  S    0.763698  -0.252445  -0.727868  -0.702430   0.417917
   52  H  9  S   -0.111248   0.122982  -0.421078   0.137931  -0.065096
   53  H  9  S    0.057103  -0.036125   0.306426  -0.103835   0.075874
   54  H 10  S   -0.037863  -0.256979  -0.281046   0.000786   0.082823
   55  H 10  S    0.034232   0.062116   0.322822  -0.036130  -0.100531
   56  H 11  S   -0.079350   0.555533  -0.189164   0.006010  -0.103147
   57  H 11  S   -0.087554   0.205035  -0.701286   0.151178   0.086089
   58  H 12  S    0.066658   0.340554   0.155059   0.068161  -0.027975
   59  H 12  S    0.497600  -0.100989   0.159701   0.344370   0.045364

                     46         47         48         49         50
                    1.1762     1.1821     1.1907     1.2340     1.3120
                     A          A          A          A          A   
    1  C  1  S   -0.005844  -0.005643  -0.017361  -0.080024   0.008106
    2  C  1  S   -0.017452   0.021050   0.014516   0.322237  -0.037021
    3  C  1  X    0.062857   0.091126  -0.493345  -0.318647   0.196031
    4  C  1  Y    0.082563   0.554684  -0.231956   0.244713  -0.031802
    5  C  1  Z   -0.064936   0.434326   0.324985  -0.281819  -0.023800
    6  C  1  S    0.198139  -0.004422   0.168677  -0.463837   0.236199
    7  C  1  X   -0.029076  -0.103057   0.434217   0.657193  -0.268788
    8  C  1  Y   -0.113804  -0.506614   0.127395  -0.291636  -0.015723
    9  C  1  Z    0.120709  -0.319601  -0.155265   0.263378   0.120563
   10  H  2  S   -0.091549   0.717717   0.424712  -0.682412   0.117899
   11  H  2  S    0.095523  -0.933715  -0.567059   0.691721  -0.033817
   12  C  3  S   -0.008704   0.006657   0.011932   0.048722   0.023825
   13  C  3  S   -0.012615  -0.040189  -0.084084  -0.334146  -0.077037
   14  C  3  X   -0.179846   0.040046  -0.185382   0.115802  -0.048960
   15  C  3  Y   -0.034527   0.185537   0.004096   0.198919   0.101122
   16  C  3  Z   -0.036016   0.115824   0.041710  -0.201788  -0.141236
   17  C  3  S   -0.260184   0.090002   0.066349   0.303579  -0.218406
   18  C  3  X    0.240547  -0.005248   0.581016  -0.107893  -0.214277
   19  C  3  Y   -0.090611  -0.460798  -0.050225  -0.231705  -0.214646
   20  C  3  Z    0.178848  -0.358593  -0.141120   0.335915   0.271663
   21  C  4  S   -0.004036  -0.000920   0.004455  -0.006755   0.013671
   22  C  4  S    0.268528   0.015254   0.058887  -0.056686  -0.858893
   23  C  4  X    0.121770  -0.016338   0.123344  -0.169718   0.166000
   24  C  4  Y    0.078381   0.015146  -0.065883   0.132591   0.067881
   25  C  4  Z   -0.050692   0.019337   0.036036  -0.130439  -0.052162
   26  C  4  S   -0.636295   0.039612  -0.513762   0.311994   2.522919
   27  C  4  X   -0.505916   0.037665  -0.079535   0.518529   0.245127
   28  C  4  Y   -0.162033   0.110579   0.284609  -0.537557  -0.201042
   29  C  4  Z    0.072140  -0.011559  -0.136590   0.443976   0.107943
   30  N  5  S   -0.012291  -0.000608  -0.007355   0.019897   0.038274
   31  N  5  S    0.019080  -0.001006   0.012794  -0.071015  -0.107860
   32  N  5  X    0.519817  -0.022436   0.104470   0.078777  -0.297939
   33  N  5  Y    0.291591  -0.067344   0.076132   0.091582   0.629363
   34  N  5  Z   -0.340263  -0.046861  -0.019114   0.075551  -0.451970
   35  N  5  S    0.215371   0.010126   0.191035  -0.420327  -0.378185
   36  N  5  X   -0.361255  -0.010392  -0.150845   0.088567   0.651441
   37  N  5  Y    0.027464   0.034327  -0.038821  -0.212237  -1.156020
   38  N  5  Z    0.123290   0.058963  -0.017965  -0.021495   0.811773
   39  O  6  S   -0.013889   0.006796   0.002798  -0.005054   0.024368
   40  O  6  S    0.037691  -0.020842  -0.017062  -0.005593  -0.023075
   41  O  6  X    0.074654   0.023600   0.077468   0.085683   0.054281
   42  O  6  Y    0.022731  -0.104449   0.005881  -0.010129  -0.247957
   43  O  6  Z   -0.017604  -0.086838  -0.030143   0.014827   0.159556
   44  O  6  S    0.239875  -0.058137  -0.029340   0.222221  -0.479606
   45  O  6  X    0.002624  -0.019800  -0.036151  -0.191350  -0.062791
   46  O  6  Y   -0.072416   0.100573  -0.031367  -0.000657   0.417609
   47  O  6  Z    0.060527   0.045395   0.032531  -0.016693  -0.276156
   48  H  7  S   -0.121108   0.225398   0.195050   0.382276   0.198144
   49  H  7  S    0.031010   0.051041  -0.043480  -0.594359  -0.330863
   50  H  8  S   -0.261513  -0.103500   0.087417   0.489248   0.109335
   51  H  8  S    0.255936  -0.242368  -0.062145  -0.621656  -0.148425
   52  H  9  S    0.668552  -0.073034   0.031686   0.019872   0.097577
   53  H  9  S   -0.756153   0.067219  -0.085100  -0.053565  -0.724888
   54  H 10  S   -0.799670   0.053066  -0.140960   0.046632   0.216231
   55  H 10  S    0.940426  -0.050310   0.190938  -0.066323  -0.263741
   56  H 11  S    0.093275   0.045898  -1.052065  -0.313618   0.027495
   57  H 11  S   -0.183093  -0.124671   1.231762   0.475384  -0.221098
   58  H 12  S   -0.191172  -0.852726   0.287869  -0.538799   0.130667
   59  H 12  S    0.183158   1.145362  -0.432648   0.544446  -0.117524

                     51         52         53         54         55
                    1.4157     1.5672     1.5838     1.6247     1.7638
                     A          A          A          A          A   
    1  C  1  S   -0.034381   0.000319  -0.000587   0.001829  -0.002063
    2  C  1  S    0.342491  -0.248160   0.119368  -0.052534   0.251956
    3  C  1  X   -0.147473   0.140201  -0.042469  -0.118313   0.010802
    4  C  1  Y    0.028611   0.035701  -0.009405  -0.007523   0.007838
    5  C  1  Z   -0.035405  -0.042535   0.031083   0.046812   0.000123
    6  C  1  S   -0.084679   0.631246  -0.229343  -0.089859  -0.485129
    7  C  1  X    0.542933  -0.205498   0.085195   0.173809  -0.004809
    8  C  1  Y   -0.230062  -0.132602  -0.134892   0.097413  -0.036602
    9  C  1  Z    0.267160   0.142483  -0.252961  -0.157326   0.013691
   10  H  2  S   -0.177741   0.000007  -0.140243  -0.025374   0.005271
   11  H  2  S    0.296822  -0.024056   0.051643  -0.075919   0.107821
   12  C  3  S   -0.027416   0.006341  -0.001804   0.005700  -0.022078
   13  C  3  S    0.441926  -0.216577   0.008845  -0.397275   0.748412
   14  C  3  X   -0.271378  -0.081607  -0.004097  -0.016531   0.273820
   15  C  3  Y    0.040799   0.117524  -0.067704  -0.034270  -0.006638
   16  C  3  Z   -0.029836  -0.095988  -0.057715   0.029328   0.018729
   17  C  3  S   -0.480570   0.099455   0.017574   0.398383  -0.082721
   18  C  3  X    1.053437   0.119180  -0.031113  -0.171232   0.226712
   19  C  3  Y   -0.203656  -0.288004   0.420248  -0.137492   0.388436
   20  C  3  Z    0.134570   0.282351   0.437718   0.082971  -0.385853
   21  C  4  S    0.001955  -0.013997   0.001376  -0.004956  -0.009879
   22  C  4  S    0.831353  -0.611569   0.047060  -0.164633   0.318409
   23  C  4  X   -0.126588   0.028214   0.002559   0.077525  -0.250455
   24  C  4  Y   -0.104041  -0.116796   0.078796  -0.073530  -0.159205
   25  C  4  Z    0.070903   0.094784   0.082818   0.036506   0.128555
   26  C  4  S   -0.774884   0.344632  -0.034234  -0.079525  -0.631932
   27  C  4  X    0.736595  -0.110331  -0.036210  -0.569729   1.503466
   28  C  4  Y    0.061351  -0.415567  -0.432281   0.157728   0.689387
   29  C  4  Z   -0.062563   0.208340  -0.580304  -0.022670  -0.549719
   30  N  5  S    0.005491   0.012704  -0.000812  -0.011875   0.002959
   31  N  5  S   -0.032542  -0.128914   0.007967   0.016553  -0.004979
   32  N  5  X   -0.745417  -0.297626   0.016344   0.005501   0.430811
   33  N  5  Y    0.224438  -0.120381  -0.053592   0.256491   0.395131
   34  N  5  Z   -0.116094   0.083646  -0.122427  -0.165151  -0.297711
   35  N  5  S    0.180093   0.001725  -0.000330   0.340745  -0.103995
   36  N  5  X    1.195242   0.728183  -0.037045  -0.170067  -1.191298
   37  N  5  Y   -0.401519   0.296432   0.144140  -0.333641  -1.182830
   38  N  5  Z    0.219363  -0.201402   0.281389   0.206529   0.878294
   39  O  6  S    0.000414  -0.053691   0.001569  -0.018392   0.018289
   40  O  6  S    0.009643   0.216878  -0.006175   0.072443  -0.083861
   41  O  6  X   -0.015821   0.503322  -0.130361  -0.717589   0.325448
   42  O  6  Y    0.039882   0.464000  -0.578573   0.525331   0.272254
   43  O  6  Z   -0.009452  -0.471903  -0.777256  -0.273755  -0.205918
   44  O  6  S    0.039147   0.164668   0.011820   0.016734  -0.334075
   45  O  6  X   -0.073735  -0.610330   0.154745   0.922701  -0.584662
   46  O  6  Y   -0.017847  -0.676628   0.696955  -0.675399  -0.228428
   47  O  6  Z   -0.003930   0.649303   0.930706   0.353382   0.185951
   48  H  7  S   -0.224521  -0.002010  -0.202524   0.004968  -0.014181
   49  H  7  S    0.337928  -0.205842  -0.025518  -0.182032   0.429646
   50  H  8  S   -0.304719   0.001550   0.169779  -0.029512   0.015443
   51  H  8  S    0.402276  -0.200986   0.071309  -0.168014   0.352227
   52  H  9  S    0.101444   0.251575  -0.013935  -0.119632  -0.563844
   53  H  9  S   -0.313152  -0.039688  -0.010744  -0.158200  -0.324410
   54  H 10  S   -0.127688  -0.220811   0.019543   0.115415   0.546017
   55  H 10  S   -0.478438  -0.235854   0.015454   0.035646   0.266782
   56  H 11  S   -0.149394  -0.009209   0.007869   0.017354   0.020655
   57  H 11  S    0.426254  -0.288852   0.114776   0.105174   0.103712
   58  H 12  S   -0.217409   0.018113   0.125289  -0.137234   0.040902
   59  H 12  S    0.303916  -0.048300  -0.011874   0.117402   0.075200

                     56         57         58         59
                    1.8690     2.2886     2.5756     3.2943
                     A          A          A          A   
    1  C  1  S   -0.020564   0.078679   0.010600  -0.000020
    2  C  1  S   -1.682390   1.098464   0.264692  -0.011573
    3  C  1  X   -0.134583  -0.081879   0.107649  -0.031614
    4  C  1  Y    0.033654   0.036396  -0.008408   0.007157
    5  C  1  Z   -0.026506  -0.030994   0.005448  -0.000870
    6  C  1  S    3.002918  -3.489148  -0.354917  -0.192429
    7  C  1  X    0.189678  -0.706512  -0.341535   0.120925
    8  C  1  Y    0.016608   0.497076  -0.080641   0.099624
    9  C  1  Z   -0.063279  -0.484886   0.129532  -0.155009
   10  H  2  S   -0.173465   0.278605   0.073605  -0.035085
   11  H  2  S   -0.608374   0.251859   0.102361  -0.002828
   12  C  3  S   -0.016605  -0.122690  -0.000657   0.010723
   13  C  3  S   -0.657028  -1.883715   0.152795   0.062639
   14  C  3  X    0.143158   0.071818   0.007336  -0.011330
   15  C  3  Y   -0.054224  -0.033512  -0.000639  -0.010492
   16  C  3  Z    0.039749   0.034429   0.018269  -0.002431
   17  C  3  S    1.552595   5.793749  -0.310515  -0.754746
   18  C  3  X    0.940550   0.214689   0.013928  -0.640862
   19  C  3  Y    0.104871   0.863257  -0.189888   0.268658
   20  C  3  Z    0.002099  -0.774080   0.020201  -0.092571
   21  C  4  S    0.024019   0.049074   0.029955   0.000252
   22  C  4  S    0.717379   0.514956   0.104520  -0.277429
   23  C  4  X   -0.217109  -0.004566  -0.001997  -0.002947
   24  C  4  Y   -0.013877  -0.073325   0.009934  -0.136546
   25  C  4  Z    0.013226   0.060077  -0.002410   0.095434
   26  C  4  S   -1.504530  -2.213938  -1.508749  -0.528301
   27  C  4  X    1.590431   1.775377  -1.458340  -0.699136
   28  C  4  Y    0.224646   0.574390   0.851522  -1.719235
   29  C  4  Z   -0.259421  -0.486282  -0.525533   1.231818
   30  N  5  S    0.012072  -0.002930  -0.007794   0.003158
   31  N  5  S   -0.234831  -0.031240  -1.894093   0.143222
   32  N  5  X   -0.054260   0.022391   0.097330  -0.113899
   33  N  5  Y    0.177269   0.109318  -0.102136  -0.081477
   34  N  5  Z   -0.112527  -0.083208   0.067482   0.059336
   35  N  5  S    0.209788   0.119813   3.651665  -0.510800
   36  N  5  X   -0.042130  -0.379824  -0.624442   0.694743
   37  N  5  Y   -0.582563  -0.461131   0.645994   0.470867
   38  N  5  Z    0.401960   0.347349  -0.431769  -0.350732
   39  O  6  S    0.013741   0.009162   0.004226   0.034978
   40  O  6  S   -0.105639  -0.095252  -0.103691  -1.783229
   41  O  6  X    0.104960   0.212600  -0.113334   0.020049
   42  O  6  Y   -0.080489  -0.009573   0.010773   0.198151
   43  O  6  Z   -0.001441   0.023081   0.005984  -0.143989
   44  O  6  S    0.072815   0.007811   0.090545   3.235224
   45  O  6  X   -0.362147  -0.537334   0.418761  -0.111497
   46  O  6  Y    0.137297   0.011819  -0.125809  -0.901279
   47  O  6  Z   -0.010221  -0.019892   0.055722   0.647714
   48  H  7  S   -0.098103  -0.436301  -0.005916   0.040467
   49  H  7  S   -0.156231  -0.335904   0.117853   0.027343
   50  H  8  S   -0.061036  -0.407419  -0.029110   0.085305
   51  H  8  S   -0.141472  -0.369165   0.032985   0.078186
   52  H  9  S   -0.191391  -0.237482  -0.135028   0.271076
   53  H  9  S   -0.297184  -0.104685  -0.226628   0.131041
   54  H 10  S    0.135433   0.184920  -0.249882  -0.230858
   55  H 10  S   -0.171463  -0.036481  -0.212500  -0.075829
   56  H 11  S   -0.116282   0.252495  -0.024340   0.056455
   57  H 11  S   -0.449571   0.338523  -0.120157   0.061350
   58  H 12  S   -0.133938   0.311411   0.070113  -0.009135
   59  H 12  S   -0.634177   0.223626   0.075568   0.000614

  ----- BETA SET ----- 

          ------------
          EIGENVECTORS
          ------------

                      1          2          3          4          5
                  -20.8279   -15.7803   -11.6093   -11.4168   -11.3449
                     A          A          A          A          A   
    1  C  1  S   -0.000042  -0.000143  -0.000642  -0.001745   0.987500
    2  C  1  S   -0.000134  -0.001035  -0.001147  -0.002572   0.101741
    3  C  1  X    0.000515  -0.000959  -0.000983   0.000618   0.000814
    4  C  1  Y   -0.000083  -0.000008   0.000135  -0.000238  -0.000137
    5  C  1  Z   -0.000008   0.000044  -0.000086   0.000181   0.000125
    6  C  1  S    0.004714   0.000036   0.001771   0.022797  -0.079948
    7  C  1  X   -0.000872   0.003883   0.002344   0.009081  -0.004904
    8  C  1  Y   -0.002045   0.001133  -0.001039  -0.006558   0.001939
    9  C  1  Z    0.002700  -0.001703   0.000926   0.006507  -0.001611
   10  H  2  S    0.000238  -0.000512  -0.000412  -0.001368   0.000390
   11  H  2  S    0.000207  -0.000597   0.000370   0.000807   0.014367
   12  C  3  S   -0.000024  -0.000021  -0.001168   0.988066   0.001007
   13  C  3  S   -0.000060  -0.000548  -0.002485   0.104772  -0.001720
   14  C  3  X   -0.000248  -0.000246  -0.000146   0.000739  -0.000129
   15  C  3  Y    0.000350  -0.000124  -0.000181   0.000442   0.000065
   16  C  3  Z   -0.000158  -0.000030   0.000248  -0.000287   0.000003
   17  C  3  S    0.006077   0.000433   0.020991  -0.095182   0.017956
   18  C  3  X    0.008649  -0.002096   0.015823  -0.003025  -0.007949
   19  C  3  Y   -0.005458   0.002973   0.002596  -0.007046   0.005249
   20  C  3  Z    0.002914  -0.001003  -0.002992   0.005585  -0.005498
   21  C  4  S    0.000180  -0.000302   0.986684   0.000418   0.000520
   22  C  4  S    0.001837  -0.001697   0.095265  -0.002446  -0.000740
   23  C  4  X    0.000228   0.000123  -0.000275  -0.000098   0.000899
   24  C  4  Y    0.001480  -0.000010   0.001133   0.000189  -0.000222
   25  C  4  Z   -0.001042  -0.000031  -0.000759  -0.000127   0.000218
   26  C  4  S    0.014770   0.022486  -0.050374   0.023006  -0.002064
   27  C  4  X    0.007971   0.016696   0.016315  -0.017442  -0.004081
   28  C  4  Y    0.024730  -0.013571   0.012502  -0.001828   0.003273
   29  C  4  Z   -0.017724   0.008794  -0.009676   0.002047  -0.002174
   30  N  5  S   -0.000069   0.985966   0.000008  -0.000044  -0.000116
   31  N  5  S   -0.000471   0.101544  -0.000345  -0.000778  -0.001003
   32  N  5  X    0.000929  -0.001254   0.001029   0.000625   0.000414
   33  N  5  Y    0.000681   0.001110   0.000329  -0.000276  -0.000161
   34  N  5  Z   -0.000496  -0.000750  -0.000264   0.000156   0.000043
   35  N  5  S    0.004487  -0.066360   0.006980   0.001998   0.004465
   36  N  5  X   -0.007572   0.008706  -0.006152  -0.000981  -0.003082
   37  N  5  Y   -0.005369  -0.007256  -0.003966   0.001949   0.001524
   38  N  5  Z    0.004006   0.004804   0.003026  -0.001285  -0.000791
   39  O  6  S    0.984214  -0.000005   0.000214   0.000049   0.000024
   40  O  6  S    0.099399  -0.000374   0.002039   0.000201   0.000111
   41  O  6  X   -0.000669   0.000613   0.000487  -0.000333   0.000088
   42  O  6  Y   -0.003904   0.000038   0.000139   0.000176   0.000101
   43  O  6  Z    0.002795  -0.000070  -0.000136  -0.000154   0.000013
   44  O  6  S   -0.059205   0.001895  -0.005941  -0.001856  -0.001314
   45  O  6  X    0.002223  -0.004157  -0.001699   0.002945   0.000556
   46  O  6  Y    0.013492   0.000816   0.004946   0.000329  -0.000165
   47  O  6  Z   -0.009643  -0.000344  -0.003347  -0.000229  -0.000146
   48  H  7  S   -0.000321   0.000211  -0.001602   0.001176  -0.001137
[...]
   58  H 12  S   -0.121985   0.312611   0.065973  -0.008450
   59  H 12  S   -0.634675   0.215475   0.074477   0.000687
 ...... END OF UHF CALCULATION ......
 CPU     0: STEP CPU TIME=     0.37 TOTAL CPU TIME=          0.4 (      0.0 MIN)
 TOTAL WALL CLOCK TIME=          0.5 SECONDS, CPU UTILIZATION IS    93.48%

     ----------------------------------------------------------------
     PROPERTY VALUES FOR THE UHF   SELF-CONSISTENT FIELD WAVEFUNCTION
     ----------------------------------------------------------------

          -----------------
          ENERGY COMPONENTS
          -----------------

         WAVEFUNCTION NORMALIZATION =       1.0000000000

                ONE ELECTRON ENERGY =    -675.4042029106
                TWO ELECTRON ENERGY =     252.2994843881
           NUCLEAR REPULSION ENERGY =     177.7628458403
                                      ------------------
                       TOTAL ENERGY =    -245.3418726822

 ELECTRON-ELECTRON POTENTIAL ENERGY =     252.2994843881
  NUCLEUS-ELECTRON POTENTIAL ENERGY =    -919.9213538409
   NUCLEUS-NUCLEUS POTENTIAL ENERGY =     177.7628458403
                                      ------------------
             TOTAL POTENTIAL ENERGY =    -489.8590236126
               TOTAL KINETIC ENERGY =     244.5171509304
                 VIRIAL RATIO (V/T) =       2.0033728585

          ---------------------------------------
          MULLIKEN AND LOWDIN POPULATION ANALYSES
          ---------------------------------------

     ATOMIC MULLIKEN POPULATION IN EACH MOLECULAR ORBITAL
        ALPHA ORBITALS

                      1          2          3          4          5

                  1.000000   1.000000   1.000000   1.000000   1.000000

    1            -0.000002   0.000000   0.000039   0.002473   0.993703
    2             0.000000  -0.000000   0.000001   0.000009   0.001438
    3             0.000028  -0.000031   0.002728   0.991697   0.002045
    4             0.004004   0.003633   0.997759   0.002979   0.000055
    5            -0.000014   0.995184   0.000463   0.000009   0.000000
    6             0.995981  -0.000004  -0.001059  -0.000004  -0.000000
    7            -0.000000  -0.000001   0.000029   0.001433   0.000012
    8            -0.000000   0.000000   0.000020   0.001398   0.000007
    9            -0.000000   0.000621  -0.000014   0.000002   0.000000
   10             0.000003   0.000598   0.000035   0.000000   0.000000
   11            -0.000000   0.000000   0.000000  -0.000003   0.001308
   12             0.000000  -0.000000   0.000001   0.000007   0.001433

                      6          7          8          9         10

                  1.000000   1.000000   1.000000   1.000000   1.000000

    1            -0.000224  -0.000008   0.188206   0.355942   0.146926
    2            -0.000049   0.000018   0.004591   0.026997   0.014102
    3            -0.004613   0.021566   0.537205   0.049525   0.065520
    4             0.078421   0.120828   0.136846   0.171502   0.133606
    5             0.016751   0.745778   0.045188   0.162446   0.209405
    6             0.909627   0.045535   0.034384   0.119192   0.326382
    7            -0.000116  -0.000058   0.015320   0.000427   0.006312
    8             0.000076  -0.000278   0.016857   0.000429   0.006979
    9             0.000523   0.035969   0.002281   0.018532   0.062182
   10            -0.000530   0.030821   0.009663   0.033292   0.000340
   11             0.000051  -0.000164   0.004386   0.033080   0.016660
   12             0.000084  -0.000007   0.005074   0.028636   0.011587

                     11         12         13         14         15

                  1.000000   1.000000   1.000000   1.000000   1.000000

    1             0.020202   0.073320   0.007878   0.006083   0.136569
    2             0.002505   0.015097   0.001314   0.000146   0.039065
    3             0.122267   0.130740   0.050307   0.008511   0.437826
    4             0.125349   0.093622   0.222157   0.050651  -0.002025
    5             0.047444   0.376699   0.055912   0.403363   0.003200
    6             0.621420   0.106801   0.636443   0.337359   0.131879
    7             0.020712   0.030104   0.008743   0.001812   0.096535
    8             0.024291   0.021984   0.012688   0.002417   0.118462
    9             0.005886   0.007898   0.000182   0.141393   0.000079
   10             0.006111   0.122426   0.000146   0.046253   0.000010
   11             0.000067   0.006094   0.000217   0.001209   0.000025
   12             0.003746   0.015215   0.004013   0.000801   0.038374

                     16         17         18         19         20

                  1.000000   1.000000   1.000000   1.000000   1.000000

    1             0.118138   0.336166   0.212039   0.465051   0.238717
    2             0.008188   0.058140   0.041932   0.043445   0.115052
    3             0.294871   0.369619   0.054396   0.071109   0.126509
    4             0.136183   0.048175   0.055547   0.065659   0.013898
    5             0.065319   0.088296   0.432973   0.009663   0.288347
    6             0.224637   0.023135   0.085008   0.013044   0.022658
    7             0.047497   0.015070   0.001631   0.018865   0.065691
    8             0.031078   0.006929   0.015651   0.028496   0.048453
    9             0.000073   0.000094   0.000017   0.000250   0.000011
   10             0.017707   0.011763   0.001682   0.003231   0.000058
   11             0.052131   0.038080   0.006814   0.196090   0.001506
   12             0.004179   0.004534   0.092311   0.085098   0.079100

     ATOMIC MULLIKEN POPULATION IN EACH MOLECULAR ORBITAL
         BETA ORBITALS

                      1          2          3          4          5

                  1.000000   1.000000   1.000000   1.000000   1.000000

    1            -0.000002   0.000000   0.000039   0.002476   0.993701
    2             0.000000  -0.000000   0.000001   0.000009   0.001438
    3             0.000027  -0.000030   0.002734   0.991718   0.002046
    4             0.003976   0.003628   0.997746   0.002956   0.000055
    5            -0.000014   0.995189   0.000464   0.000009   0.000000
    6             0.996010  -0.000004  -0.001053  -0.000004  -0.000000
    7            -0.000000  -0.000001   0.000029   0.001432   0.000012
    8            -0.000000   0.000000   0.000020   0.001398   0.000007
    9            -0.000000   0.000620  -0.000014   0.000002   0.000000
   10             0.000003   0.000598   0.000035   0.000000   0.000000
   11            -0.000000   0.000000   0.000000  -0.000003   0.001308
   12             0.000000  -0.000000   0.000001   0.000007   0.001433

                      6          7          8          9         10

                  1.000000   1.000000   1.000000   1.000000   1.000000

    1            -0.000834   0.000283   0.220955   0.398188   0.104793
    2            -0.000041   0.000006   0.005796   0.032169   0.013253
    3            -0.004711   0.018447   0.533084   0.074553   0.112587
    4             0.196071   0.096278   0.118010   0.169495   0.125360
    5             0.048877   0.720412   0.040380   0.149110   0.278186
    6             0.760196   0.091598   0.020340   0.053040   0.222878
    7            -0.000302   0.000086   0.018617   0.002731   0.018720
    8            -0.000032  -0.000131   0.020120   0.002932   0.019972
    9             0.001402   0.038802   0.001879   0.010866   0.077673
   10            -0.000662   0.034317   0.008777   0.035895   0.002892
   11             0.000021  -0.000101   0.005786   0.037606   0.011800
   12             0.000015   0.000004   0.006256   0.033413   0.011886

                     11         12         13         14         15

                  1.000000   1.000000   1.000000   1.000000   1.000000

    1             0.054122   0.009667   0.019289   0.097203   0.148333
    2             0.011164   0.000393   0.004323   0.003754   0.049154
    3             0.077941   0.074980   0.116490   0.241421   0.362451
    4             0.065285   0.198696   0.284236   0.241344   0.017954
    5             0.464786   0.232404   0.095921   0.088241   0.010593
    6             0.097089   0.373022   0.418499   0.137600   0.192014
    7             0.018092   0.013838   0.024945   0.033081   0.099252
    8             0.010870   0.015677   0.028163   0.053386   0.083454
    9             0.037212   0.078185   0.000146   0.025660   0.000077
   10             0.147159   0.001034   0.000385   0.037990   0.000571
   11             0.005939   0.001540   0.000323   0.028217   0.000613
   12             0.010342   0.000564   0.007281   0.012101   0.035534

                     16         17         18         19

                  1.000000   1.000000   1.000000   1.000000

    1             0.380883   0.470435   0.221483   0.188391
    2             0.019072   0.069935   0.070899   0.090086
    3             0.371331   0.089585   0.042930   0.101380
    4             0.052803   0.045553   0.016965   0.009400
    5             0.031761   0.006791   0.343107   0.391863
    6             0.008819   0.012718   0.155535   0.064330
    7             0.012331   0.026012   0.014757   0.051421
    8             0.008357   0.024901   0.030710   0.039767
    9             0.000805   0.000777   0.000016   0.000011
   10             0.012625   0.000929   0.000186   0.000016
   11             0.095870   0.167984   0.000267   0.000972
   12             0.005344   0.084379   0.103145   0.062361

     ATOMIC SPIN POPULATION (ALPHA MINUS BETA)
       ATOM         MULL.POP.                    LOW.POP.
    1 C            -0.008190                    -0.004562
    2 H             0.000579                     0.000393
    3 C             0.122860                     0.088791
    4 C            -0.186964                    -0.115270
    5 N             0.048342                     0.036342
    6 O             1.029794                     0.997418
    7 H            -0.005036                    -0.003044
    8 H            -0.003634                    -0.001907
    9 H             0.001859                     0.001786
   10 H             0.000859                     0.000160
   11 H            -0.000589                    -0.000361
   12 H             0.000121                     0.000253


          ********* ALL ELECTRONS ********

               ----- POPULATIONS IN EACH AO -----
                             MULLIKEN      LOWDIN
              1  C  1  S      1.98821     1.97641
              2  C  1  S      0.34988     0.41226
              3  C  1  X      0.53448     0.51190
              4  C  1  Y      0.54245     0.51218
              5  C  1  Z      0.54685     0.51653
              6  C  1  S      1.14619     0.58438
              7  C  1  X      0.48304     0.57342
              8  C  1  Y      0.50101     0.58467
              9  C  1  Z      0.51851     0.59146
             10  H  2  S      0.46118     0.46269
             11  H  2  S      0.28222     0.41872
             12  C  3  S      1.98953     1.97633
             13  C  3  S      0.34558     0.41756
             14  C  3  X      0.47445     0.45842
             15  C  3  Y      0.56827     0.54253
             16  C  3  Z      0.56975     0.54379
             17  C  3  S      1.18081     0.57344
             18  C  3  X      0.23983     0.48386
             19  C  3  Y      0.58002     0.59545
             20  C  3  Z      0.59255     0.60057
             21  C  4  S      1.98735     1.97662
             22  C  4  S      0.44383     0.44422
             23  C  4  X      0.65428     0.62461
             24  C  4  Y      0.48780     0.46240
             25  C  4  Z      0.38334     0.36076
             26  C  4  S      0.57855     0.51297
             27  C  4  X      0.28430     0.47377
             28  C  4  Y      0.07331     0.38373
             29  C  4  Z      0.21191     0.39248
             30  N  5  S      1.98729     1.97746
             31  N  5  S      0.36346     0.46219
             32  N  5  X      0.58405     0.56054
             33  N  5  Y      0.61869     0.60492
             34  N  5  Z      0.66335     0.66038
             35  N  5  S      1.31829     0.73413
             36  N  5  X      0.63914     0.65881
             37  N  5  Y      0.78452     0.76317
             38  N  5  Z      0.88571     0.86352
             39  O  6  S      1.98810     1.98289
             40  O  6  S      0.45558     0.61652
             41  O  6  X      0.51246     0.50776
             42  O  6  Y      0.73612     0.72609
             43  O  6  Z      0.77095     0.76422
             44  O  6  S      1.59523     1.05079
             45  O  6  X      0.49147     0.51379
             46  O  6  Y      0.81347     0.83233
             47  O  6  Z      0.87167     0.87781
             48  H  7  S      0.44535     0.45030
             49  H  7  S      0.21972     0.38599
             50  H  8  S      0.44846     0.45266
             51  H  8  S      0.22704     0.38952
             52  H  9  S      0.41071     0.41475
             53  H  9  S      0.13938     0.30471
             54  H 10  S      0.41584     0.42233
             55  H 10  S      0.15052     0.30970
             56  H 11  S      0.45567     0.45317
             57  H 11  S      0.26003     0.40735
             58  H 12  S      0.46255     0.46386
             59  H 12  S      0.28570     0.42023

          ----- MULLIKEN ATOMIC OVERLAP POPULATIONS -----
          (OFF-DIAGONAL ELEMENTS NEED TO BE MULTIPLIED BY 2)

             1           2           3           4           5

    1    5.4274739
    2    0.3776181   0.4552520
    3    0.1897453  -0.0477541   5.7235694
    4   -0.0858251  -0.0020560   0.1289946   4.5902494
    5    0.0019456  -0.0000168  -0.0587280   0.3247568   6.9842998
    6    0.0013721   0.0003845  -0.0467249   0.2809809  -0.0467618
    7   -0.0290967   0.0021882   0.3659571  -0.0402981  -0.0004870
    8   -0.0288482  -0.0017233   0.3685182  -0.0389622  -0.0006937
    9    0.0000794  -0.0000010  -0.0013635  -0.0229883   0.3205355
   10   -0.0000698   0.0000006   0.0021892  -0.0307631   0.3196701
   11    0.3782997  -0.0162455  -0.0338628   0.0032412  -0.0000181
   12    0.3779251  -0.0242461  -0.0497485  -0.0026661   0.0000060

             6           7           8           9          10

    6    8.0436920
    7    0.0005366   0.3834325
    8    0.0007509  -0.0144592   0.3889557
    9    0.0009533   0.0003450   0.0008222   0.2635534
   10   -0.0013274  -0.0000656  -0.0000345  -0.0118405   0.2885958
   11    0.0000529  -0.0015643  -0.0010733  -0.0000022   0.0000004
   12    0.0011362  -0.0014195   0.0022503  -0.0000003   0.0000014

            11          12

   11    0.4026744
   12   -0.0158056   0.4608193

          TOTAL MULLIKEN AND LOWDIN ATOMIC POPULATIONS
       ATOM         MULL.POP.    CHARGE          LOW.POP.     CHARGE
    1 C             6.610619   -0.610619         6.263199   -0.263199
    2 H             0.743400    0.256600         0.881409    0.118591
    3 C             6.540792   -0.540792         6.191958   -0.191958
    4 C             5.104664    0.895336         5.631551    0.368449
    5 N             7.844508   -0.844508         7.285116   -0.285116
    6 O             8.235045   -0.235045         7.872211    0.127789
    7 H             0.665069    0.334931         0.836282    0.163718
    8 H             0.675503    0.324497         0.842182    0.157818
    9 H             0.550093    0.449907         0.719459    0.280541
   10 H             0.566357    0.433643         0.732026    0.267974
   11 H             0.715697    0.284303         0.860522    0.139478
   12 H             0.748252    0.251748         0.884087    0.115913

          -------------------------------
          BOND ORDER AND VALENCE ANALYSIS     BOND ORDER THRESHOLD=0.050
          -------------------------------

                   BOND                       BOND                       BOND
  ATOM PAIR DIST  ORDER      ATOM PAIR DIST  ORDER      ATOM PAIR DIST  ORDER
    1   2  1.094  0.904        1   3  1.536  0.875        1  11  1.094  0.901
    1  12  1.093  0.904        3   4  1.536  0.803        3   7  1.099  0.849
    3   8  1.098  0.858        4   5  1.371  1.249        4   6  1.239  1.097
    5   6  2.295  0.088        5   9  1.012  0.776        5  10  1.014  0.785

                       TOTAL       BONDED        FREE
      ATOM            VALENCE     VALENCE     VALENCE
    1 C                 3.559       3.559       0.000
    2 H                 0.894       0.894       0.000
    3 C                 3.385       3.375       0.010
    4 C                 3.153       3.141       0.012
    5 N                 2.901       2.897       0.004
    6 O                 2.081       1.228       0.853
    7 H                 0.851       0.851       0.000
    8 H                 0.860       0.860       0.000
    9 H                 0.782       0.782       0.000
   10 H                 0.793       0.793       0.000
   11 H                 0.891       0.891       0.000
   12 H                 0.897       0.897       0.000

          -----------------------------------------
          ATOMIC SPIN DENSITY AT THE NUCLEUS (A.U.)
          -----------------------------------------
                            SPIN DENS    ALPHA DENS     BETA DENS
    1  C            6.0    -0.0028705      46.98594      46.98881
    2  H            1.0     0.0001129       0.18066       0.18055
    3  C            6.0     0.0326656      47.06947      47.03680
    4  C            6.0    -0.0706184      46.97503      47.04564
    5  N            7.0     0.0647600      76.56944      76.50468
    6  O            8.0     0.2171883     117.24069     117.02350
    7  H            1.0    -0.0009543       0.17364       0.17459
    8  H            1.0    -0.0003865       0.17510       0.17548
    9  H            1.0     0.0014961       0.16225       0.16075
   10  H            1.0    -0.0005650       0.16368       0.16425
   11  H            1.0    -0.0000401       0.17768       0.17772
   12  H            1.0     0.0002279       0.18131       0.18109

          ---------------------
          ELECTROSTATIC MOMENTS
          ---------------------

 POINT   1           X           Y           Z (BOHR)    CHARGE
                 2.793278   -0.152052   -0.053462        1.00 (A.U.)
         DX          DY          DZ         /D/  (DEBYE)
     1.953107   -2.572940    1.894919    3.745045
 ...... END OF PROPERTY EVALUATION ......
 CPU     0: STEP CPU TIME=     0.03 TOTAL CPU TIME=          0.5 (      0.0 MIN)
 TOTAL WALL CLOCK TIME=          0.5 SECONDS, CPU UTILIZATION IS    93.88%
               580000  WORDS OF DYNAMIC MEMORY USED
 EXECUTION OF GAMESS TERMINATED NORMALLY Sat May 16 17:05:09 2020
 DDI: 263640 bytes (0.3 MB / 0 MWords) used by master data server.
Note: The following floating-point exceptions are signalling:Note: The following floating-point exceptions are signalling:Note: The following floating-point exceptions are signalling: IEEE_DENORMAL IEEE_DENORMAL
 ----------------------------------------
 CPU timing information for all processes
 ========================================
 0: 0.345 + 0.120 = 0.466
 1: 0.351 + 0.15 = 0.367
 2: 0.350 + 0.08 = 0.358
 3: 0.352 + 0.11 = 0.364
 4: 0.354 + 0.08 = 0.362
 5: 0.348 + 0.07 = 0.356
 ----------------------------------------
 IEEE_DENORMAL


Note: The following floating-point exceptions are signalling:Note: The following floating-point exceptions are signalling: IEEE_DENORMALNote: The following floating-point exceptions are signalling: IEEE_DENORMAL IEEE_DENORMAL


 ddikick.x: exited gracefully.
unset echo
----- accounting info -----
Files used on the master node pietdev were:
-rwxr-xr-x 1 piet piet      828 mei 16 17:05 /home/piet/scr/asparagine_fukui_base.F05*
-rw-r--r-- 1 piet piet 68812800 mei 16 17:05 /home/piet/scr/asparagine_fukui_base.F10
ls: No match.
ls: No match.
ls: No match.
za 16 mei 2020 17:05:12 CEST
0.118u 0.024s 0:03.64 3.5%	0+0k 0+8io 0pf+0w
