----- GAMESS execution script 'rungms' -----
This job is running on host pietdev
under operating system Linux at za 16 mei 2020 17:05:00 CEST
Available scratch disk space (Kbyte units) at beginning of the job is
Filesystem     1K-blocks     Used Available Use% Mounted on
/dev/sda2      244568380 30358964 201716360  14% /
GAMESS temporary binary files will be written to /home/piet/scr
GAMESS supplementary output files will be written to /home/piet/gamess/scr
Copying input file asparagine_fukui_acid.inp to your run's scratch directory...
cp asparagine_fukui_acid.inp /home/piet/scr/asparagine_fukui_acid.F05
unset echo
 
Assuming a single but multicore node.
 
/home/piet/gamess/ddikick.x /home/piet/gamess/gamess.03.x asparagine_fukui_acid -ddi 1 6 pietdev:cpus=6 -scr /home/piet/scr

 Distributed Data Interface kickoff program.
 Initiating 6 compute processes on 1 nodes to run the following command:
 /home/piet/gamess/gamess.03.x asparagine_fukui_acid 

          ******************************************************
          *         GAMESS VERSION = 30 SEP 2019 (R2)          *
          *             FROM IOWA STATE UNIVERSITY             *
          * M.W.SCHMIDT, K.K.BALDRIDGE, J.A.BOATZ, S.T.ELBERT, *
          *   M.S.GORDON, J.H.JENSEN, S.KOSEKI, N.MATSUNAGA,   *
          *          K.A.NGUYEN, S.J.SU, T.L.WINDUS,           *
          *       TOGETHER WITH M.DUPUIS, J.A.MONTGOMERY       *
          *         J.COMPUT.CHEM.  14, 1347-1363(1993)        *
          **************** 64 BIT LINUX VERSION ****************

  SINCE 1993, STUDENTS AND POSTDOCS WORKING AT IOWA STATE UNIVERSITY
  AND ALSO IN THEIR VARIOUS JOBS AFTER LEAVING ISU HAVE MADE IMPORTANT
  CONTRIBUTIONS TO THE CODE:
     IVANA ADAMOVIC, CHRISTINE AIKENS, YURI ALEXEEV, POOJA ARORA,
     ANDREY ASADCHEV, ROB BELL, PRADIPTA BANDYOPADHYAY, JONATHAN BENTZ,
     COLLEEN BERTONI, BRETT BODE, KURT BRORSEN, CALEB CARLIN, GALINA CHABAN,
     WEI CHEN, CHEOL HO CHOI, PAUL DAY, ALBERT DEFUSCO, NUWAN DESILVA,
     TIM DUDLEY, DMITRI FEDOROV, ALEX FINDLATER, GRAHAM FLETCHER, 
     MARK FREITAG, KURT GLAESEMANN, EMILIE B GUIDEZ, ANASTASIA GUNINA, 
     DAN KEMP, SAROM SOK LEANG, GRANT MERRILL,
     NORIYUKI MINEZAWA, JONATHAN MULLIN,
     TAKESHI NAGATA, SEAN NEDD, HEATHER NETZLOFF, BOSILJKA NJEGIC, RYAN OLSON,
     MIKE PAK, BUU PHAM, DAVID POOLE,
     SPENCER PRUITT, LUKE ROSKOP, TOSAPORN SATTASATHUCHANA,
     JIM SHOEMAKER, LYUDMILA SLIPCHENKO,
     TONY SMITH, JIE SONG, TETSUYA TAKETSUGU, SIMON WEBB,
     JORGE LUIS GALVEZ VALLEJO, PENG XU, SOOHAENG YOO,
     FEDERICO ZAHARIEV

  ADDITIONAL CODE HAS BEEN PROVIDED BY COLLABORATORS IN OTHER GROUPS:
     IOWA STATE UNIVERSITY:
          JOE IVANIC, AARON WEST, LAIMUTIS BYTAUTAS, KLAUS RUEDENBERG
     UNIVERSITY OF TOKYO: KIMIHIKO HIRAO, TAKAHITO NAKAJIMA,
          TAKAO TSUNEDA, MUNEAKI KAMIYA, SUSUMU YANAGISAWA,
          KIYOSHI YAGI, MAHITO CHIBA, SEIKEN TOKURA, NAOAKI KAWAKAMI
     UNIVERSITY OF AARHUS: FRANK JENSEN
     UNIVERSITY OF IOWA: VISVALDAS KAIRYS, HUI LI
     NATIONAL INST. OF STANDARDS AND TECHNOLOGY: WALT STEVENS, DAVID GARMER
     UNIVERSITY OF PISA: BENEDETTA MENNUCCI, JACOPO TOMASI
     UNIVERSITY OF MEMPHIS: HENRY KURTZ, PRAKASHAN KORAMBATH
     UNIVERSITY OF ALBERTA: TOBY ZENG, MARIUSZ KLOBUKOWSKI
     UNIVERSITY OF NEW ENGLAND: MARK SPACKMAN
     MIE UNIVERSITY: HIROAKI UMEDA
     NAT. INST. OF ADVANCED INDUSTRIAL SCIENCE AND TECHNOLOGY: KAZUO KITAURA
     MICHIGAN STATE UNIVERSITY:
          KAROL KOWALSKI, MARTA WLOCH, JEFFREY GOUR, JESSE LUTZ,
          WEI LI, JUN SHEN, J. EMILIANO DEUSTUA, PIOTR PIECUCH
     UNIVERSITY OF MINNESOTA:
          ANDREW SAND, PRACHI SHARMA, YINAN SHU
     UNIVERSITY OF SILESIA: MONIKA MUSIAL, STANISLAW KUCHARSKI
     FACULTES UNIVERSITAIRES NOTRE-DAME DE LA PAIX:
          OLIVIER QUINET, BENOIT CHAMPAGNE
     UNIVERSITY OF CALIFORNIA - SANTA BARBARA: BERNARD KIRTMAN
     INSTITUTE FOR MOLECULAR SCIENCE:
          KAZUYA ISHIMURA, MICHIO KATOUDA, AND SHIGERU NAGASE
     UNIVERSITY OF NOTRE DAME: ANNA POMOGAEVA, DAN CHIPMAN
     KYUSHU UNIVERSITY:
          HARUYUKI NAKANO,
          FENG LONG GU, JACEK KORCHOWIEC, MARCIN MAKOWSKI, AND YURIKO AOKI,
          HIROTOSHI MORI AND EISAKU MIYOSHI
     PENNSYLVANIA STATE UNIVERSITY:
          TZVETELIN IORDANOV, CHET SWALINA, JONATHAN SKONE,
          SHARON HAMMES-SCHIFFER
     WASEDA UNIVERSITY:
          MASATO KOBAYASHI, TOMOKO AKAMA, TSUGUKI TOUMA,
          TAKESHI YOSHIKAWA, YASUHIRO IKABATA, JUNJI SEINO,
          YUYA NAKAJIMA, HIROMI NAKAI
     NANJING UNIVERSITY: SHUHUA LI
     UNIVERSITY OF NEBRASKA:
          PEIFENG SU, DEJUN SI, NANDUN THELLAMUREGE, YALI WANG, HUI LI
     UNIVERSITY OF ZURICH: ROBERTO PEVERATI, KIM BALDRIDGE
     N. COPERNICUS UNIVERSITY AND JACKSON STATE UNIVERSITY:
          MARIA BARYSZ
     UNIVERSITY OF COPENHAGEN: Jimmy Kromann, CASPER STEINMANN
     TOKYO INSTITUTE OF TECHNOLOGY: HIROYA NAKATA
     NAGOYA UNIVERSITY: YOSHIO NISHIMOTO, STEPHAN IRLE
     MOSCOW STATE UNIVERSITY: VLADIMIR MIRONOV
     A.N.NESMEYANOV INSTITUTE OF ORGANOELEMENT COMPOUNDS OF RUSSIAN ACADEMY OF SCIENCES:
          IGOR S. GERASIMOV
     JOHANNES KEPLER UNIVERSITY LINZ:
          CHRISTIAN FRIEDL


 PARALLEL VERSION RUNNING ON        6 PROCESSORS IN        1 NODES.

 EXECUTION OF GAMESS BEGUN Sat May 16 17:05:00 2020

            ECHO OF THE FIRST FEW INPUT CARDS -
 INPUT CARD> $BASIS GBASIS=N21 NGAUSS=3 $END                                                
 INPUT CARD> $CONTRL SCFTYP=UHF MAXIT=60 MULT=2 ICHARG=-1 $END                              
 INPUT CARD> $SYSTEM MEMDDI=1000 MWORDS=30 $END                                             
 INPUT CARD> $SCF DIRSCF=.TRUE. $END                                                        
 INPUT CARD> $STATPT OPTTOL=0.0001 NSTEP=999 $END                                           
 INPUT CARD> $DATA                                                                          
 INPUT CARD>                                                                                
 INPUT CARD>C1                                                                              
 INPUT CARD>C 6.0000000 -0.4805827013 0.2574298214 -0.3562470455                            
 INPUT CARD>H 1.0000000 -0.3950906039 0.0842825993 -1.4331830201                            
 INPUT CARD>C 6.0000000 0.5816350737 -0.5546029556 0.4005330954                             
 INPUT CARD>C 6.0000000 1.9939761610 -0.1002376789 0.0037717868                             
 INPUT CARD>N 7.0000000 2.9966123094 -0.8837403629 0.5145850527                             
 INPUT CARD>O 8.0000000 2.2086812885 0.8928453784 -0.7056850388                             
 INPUT CARD>H 1.0000000 0.4681171458 -0.4168998755 1.4851742701                             
 INPUT CARD>H 1.0000000 0.4765843979 -1.6281400787 0.1966126165                             
 INPUT CARD>H 1.0000000 2.8118031458 -1.7000282039 1.0841740673                             
 INPUT CARD>H 1.0000000 3.9584715651 -0.6374866458 0.3076958403                             
 INPUT CARD>H 1.0000000 -1.4882215998 -0.0185355895 -0.0302550974                           
 INPUT CARD>H 1.0000000 -0.3224061821 1.3252335915 -0.1832165273                            
 INPUT CARD> $END                                                                           
   30000000 WORDS OF MEMORY AVAILABLE

     BASIS OPTIONS
     -------------
     GBASIS=N21          IGAUSS=       3      POLAR=NONE    
     NDFUNC=       0     NFFUNC=       0     DIFFSP=       F
     NPFUNC=       0      DIFFS=       F     BASNAM=        


     RUN TITLE
     ---------
                                                                                 

 THE POINT GROUP OF THE MOLECULE IS C1      
 THE ORDER OF THE PRINCIPAL AXIS IS     0

 ATOM      ATOMIC                      COORDINATES (BOHR)
           CHARGE         X                   Y                   Z
 C           6.0    -0.9081696199        0.4864718235       -0.6732092999
 H           1.0    -0.7466129817        0.1592710182       -2.7083231982
 C           6.0     1.0991309141       -1.0480476181        0.7568977993
 C           6.0     3.7680685703       -0.1894217468        0.0071276435
 N           7.0     5.6627761562       -1.6700271302        0.9724247470
 O           8.0     4.1738024295        1.6872331146       -1.3335513570
 H           1.0     0.8846131357       -0.7878265290        2.8065724145
 H           1.0     0.9006139221       -3.0767386184        0.3715439709
 H           1.0     5.3135374770       -3.2125874768        2.0487919102
 H           1.0     7.4804265882       -1.2046750814        0.5814608257
 H           1.0    -2.8123310326       -0.0350271852       -0.0571738438
 H           1.0    -0.6092593409        2.5043283577       -0.3462290330

          INTERNUCLEAR DISTANCES (ANGS.)
          ------------------------------

                1 C          2 H          3 C          4 C          5 N     

   1 C       0.0000000    1.0941115 *  1.5363658 *  2.5260604 *  3.7618484  
   2 H       1.0941115 *  0.0000000    2.1736335 *  2.7940163 *  4.0292081  
   3 C       1.5363658 *  2.1736335 *  0.0000000    1.5357652 *  2.4399701 *
   4 C       2.5260604 *  2.7940163 *  1.5357652 *  0.0000000    1.3711622 *
   5 N       3.7618484    4.0292081    2.4399701 *  1.3711622 *  0.0000000  
   6 O       2.7853188 *  2.8218177 *  2.4425611 *  1.2392099 *  2.2948096 *
   7 H       2.1784362 *  3.0843347    1.0992247 *  2.1501335 *  2.7483215 *
   8 H       2.1856799 *  2.5196116 *  1.0977710 *  2.1619785 *  2.6468430 *
   9 H       4.0922194    4.4502831    2.5986561 *  2.0965304 *  1.0123793 *
  10 H       4.5767782    4.7439555    3.3791291    2.0591864 *  1.0142077 *
  11 H       1.0944240 *  1.7814920 *  2.1811129 *  3.4833223    4.5999093  
  12 H       1.0932357 *  1.7628552 *  2.1660655 *  2.7262722 *  4.0475149  

                6 O          7 H          8 H          9 H         10 H     

   1 C       2.7853188 *  2.1784362 *  2.1856799 *  4.0922194    4.5767782  
   2 H       2.8218177 *  3.0843347    2.5196116 *  4.4502831    4.7439555  
   3 C       2.4425611 *  1.0992247 *  1.0977710 *  2.5986561 *  3.3791291  
   4 C       1.2392099 *  2.1501335 *  2.1619785 *  2.0965304 *  2.0591864 *
   5 N       2.2948096 *  2.7483215 *  2.6468430 *  1.0123793 *  1.0142077 *
   6 O       0.0000000    3.0894758    3.1889917    3.2078568    2.5358673 *
   7 H       3.0894758    0.0000000    1.7684925 *  2.7018667 *  3.6902152  
   8 H       3.1889917    1.7684925 *  0.0000000    2.4992358 *  3.6217775  
   9 H       3.2078568    2.7018667 *  2.4992358 *  0.0000000    1.7454975 *
  10 H       2.5358673 *  3.6902152    3.6217775    1.7454975 *  0.0000000  
  11 H       3.8670288    2.5064879 *  2.5500506 *  4.7496929    5.4921560  
  12 H       2.6203696 *  2.5384019 *  3.0830297    4.5367120    4.7348896  

               11 H         12 H     

   1 C       1.0944240 *  1.0932357 *
   2 H       1.7814920 *  1.7628552 *
   3 C       2.1811129 *  2.1660655 *
   4 C       3.4833223    2.7262722 *
   5 N       4.5999093    4.0475149  
   6 O       3.8670288    2.6203696 *
   7 H       2.5064879 *  2.5384019 *
   8 H       2.5500506 *  3.0830297  
   9 H       4.7496929    4.5367120  
  10 H       5.4921560    4.7348896  
  11 H       0.0000000    1.7855639 *
  12 H       1.7855639 *  0.0000000  

  * ... LESS THAN  3.000


     ATOMIC BASIS SET
     ----------------
 THE CONTRACTED PRIMITIVE FUNCTIONS HAVE BEEN UNNORMALIZED
 THE CONTRACTED BASIS FUNCTIONS ARE NOW NORMALIZED TO UNITY

  SHELL TYPE  PRIMITIVE        EXPONENT          CONTRACTION COEFFICIENT(S)

 C         

      1   S       1           172.2560000    0.061766907377
      1   S       2            25.9109000    0.358794042852
      1   S       3             5.5333500    0.700713083689

      2   L       4             3.6649800   -0.395895162119    0.236459946619
      2   L       5             0.7705450    1.215834355681    0.860618805716

      3   L       6             0.1958570    1.000000000000    1.000000000000

 H         

      4   S       7             5.4471780    0.156284978695
      4   S       8             0.8245472    0.904690876670

      5   S       9             0.1831916    1.000000000000

 C         

      6   S      10           172.2560000    0.061766907377
      6   S      11            25.9109000    0.358794042852
      6   S      12             5.5333500    0.700713083689

      7   L      13             3.6649800   -0.395895162119    0.236459946619
      7   L      14             0.7705450    1.215834355681    0.860618805716

      8   L      15             0.1958570    1.000000000000    1.000000000000

 C         

      9   S      16           172.2560000    0.061766907377
      9   S      17            25.9109000    0.358794042852
      9   S      18             5.5333500    0.700713083689

     10   L      19             3.6649800   -0.395895162119    0.236459946619
     10   L      20             0.7705450    1.215834355681    0.860618805716

     11   L      21             0.1958570    1.000000000000    1.000000000000

 N         

     12   S      22           242.7660000    0.059865700508
     12   S      23            36.4851000    0.352955002994
     12   S      24             7.8144900    0.706513005993

     13   L      25             5.4252200   -0.413300077430    0.237972016222
     13   L      26             1.1491500    1.224417266851    0.858953058551

     14   L      27             0.2832050    1.000000000000    1.000000000000

 O         

     15   S      28           322.0370000    0.059239393389
     15   S      29            48.4308000    0.351499960776
     15   S      30            10.4206000    0.707657921031

     16   L      31             7.4029400   -0.404453583190    0.244586106967
     16   L      32             1.5762000    1.221561761397    0.853955373466

     17   L      33             0.3736840    1.000000000000    1.000000000000

 H         

     18   S      34             5.4471780    0.156284978695
     18   S      35             0.8245472    0.904690876670

     19   S      36             0.1831916    1.000000000000

 H         

     20   S      37             5.4471780    0.156284978695
     20   S      38             0.8245472    0.904690876670

     21   S      39             0.1831916    1.000000000000

 H         

     22   S      40             5.4471780    0.156284978695
     22   S      41             0.8245472    0.904690876670

     23   S      42             0.1831916    1.000000000000

 H         

     24   S      43             5.4471780    0.156284978695
     24   S      44             0.8245472    0.904690876670

     25   S      45             0.1831916    1.000000000000

 H         

     26   S      46             5.4471780    0.156284978695
     26   S      47             0.8245472    0.904690876670

     27   S      48             0.1831916    1.000000000000

 H         

     28   S      49             5.4471780    0.156284978695
     28   S      50             0.8245472    0.904690876670

     29   S      51             0.1831916    1.000000000000

 TOTAL NUMBER OF BASIS SET SHELLS             =   29
 NUMBER OF CARTESIAN GAUSSIAN BASIS FUNCTIONS =   59
 NUMBER OF ELECTRONS                          =   41
 CHARGE OF MOLECULE                           =   -1
 SPIN MULTIPLICITY                            =    2
 NUMBER OF OCCUPIED ORBITALS (ALPHA)          =   21
 NUMBER OF OCCUPIED ORBITALS (BETA )          =   20
 TOTAL NUMBER OF ATOMS                        =   12
 THE NUCLEAR REPULSION ENERGY IS      177.7628458403

     $CONTRL OPTIONS
     ---------------
 SCFTYP=UHF          RUNTYP=ENERGY       EXETYP=RUN     
 MPLEVL=       0     CITYP =NONE         CCTYP =NONE         VBTYP =NONE    
 DFTTYP=NONE         TDDFT =NONE    
 MULT  =       2     ICHARG=      -1     NZVAR =       0     COORD =UNIQUE  
 PP    =NONE         RELWFN=NONE         LOCAL =NONE         NUMGRD=       F
 ISPHER=      -1     NOSYM =       0     MAXIT =      60     UNITS =ANGS    
 PLTORB=       F     MOLPLT=       F     AIMPAC=       F     FRIEND=        
 NPRINT=       7     IREST =       0     GEOM  =INPUT   
 NORMF =       0     NORMP =       0     ITOL  =      20     ICUT  =       9
 INTTYP=BEST         GRDTYP=BEST         QMTTOL= 1.0E-06

     $SYSTEM OPTIONS
     ---------------
  REPLICATED MEMORY=    30000000 WORDS (ON EVERY NODE).
 DISTRIBUTED MEMDDI=        1000 MILLION WORDS IN AGGREGATE,
 MEMDDI DISTRIBUTED OVER   6 PROCESSORS IS   166666666 WORDS/PROCESSOR.
 TOTAL MEMORY REQUESTED ON EACH PROCESSOR=   196666666 WORDS.
 TIMLIM=      525600.00 MINUTES, OR     365.0 DAYS.
 PARALL= T  BALTYP=  DLB     KDIAG=    0  COREFL= F
 MXSEQ2=     300 MXSEQ3=     150  mem10=         0

          ----------------
          PROPERTIES INPUT
          ----------------

     MOMENTS            FIELD           POTENTIAL          DENSITY
 IEMOM =       1   IEFLD =       0   IEPOT =       0   IEDEN =       0
 WHERE =COMASS     WHERE =NUCLEI     WHERE =NUCLEI     WHERE =NUCLEI  
 OUTPUT=BOTH       OUTPUT=BOTH       OUTPUT=BOTH       OUTPUT=BOTH    
 IEMINT=       0   IEFINT=       0                     IEDINT=       0
                                                       MORB  =       0
          EXTRAPOLATION IN EFFECT
          SOSCF IN EFFECT
          DIIS or SOSCF will be reset if energy rises
 ORBITAL PRINTING OPTION: NPREO=     1    59     2     1

     -------------------------------
     INTEGRAL TRANSFORMATION OPTIONS
     -------------------------------
     NWORD  =            0
     CUTOFF = 1.0E-09     MPTRAN =       0
     DIRTRF =       T     AOINTS =DUP     

          ----------------------
          INTEGRAL INPUT OPTIONS
          ----------------------
 NOPK  =       1 NORDER=       0 SCHWRZ=       T

     ------------------------------------------
     THE POINT GROUP IS C1 , NAXIS= 0, ORDER= 1
     ------------------------------------------

     DIMENSIONS OF THE SYMMETRY SUBSPACES ARE
 A   =   59

 ..... DONE SETTING UP THE RUN .....
 CPU     0: STEP CPU TIME=     0.03 TOTAL CPU TIME=          0.0 (      0.0 MIN)
 TOTAL WALL CLOCK TIME=          0.0 SECONDS, CPU UTILIZATION IS    75.00%

          ********************
          1 ELECTRON INTEGRALS
          ********************
 ...... END OF ONE-ELECTRON INTEGRALS ......
 CPU     0: STEP CPU TIME=     0.01 TOTAL CPU TIME=          0.0 (      0.0 MIN)
 TOTAL WALL CLOCK TIME=          0.1 SECONDS, CPU UTILIZATION IS    80.00%

          -------------
          GUESS OPTIONS
          -------------
          GUESS =HUCKEL            NORB  =       0          NORDER=       0
          MIX   =       F          PRTMO =       F          PUNMO =       F
          TOLZ  = 1.0E-08          TOLE  = 1.0E-05
          SYMDEN=       F          PURIFY=       F

 INITIAL GUESS ORBITALS GENERATED BY HUCKEL   ROUTINE.
 HUCKEL GUESS REQUIRES     38133 WORDS.

 SYMMETRIES FOR INITIAL GUESS ORBITALS FOLLOW.  ALPHA SET(S).
    21 ORBITALS ARE OCCUPIED (    5 CORE ORBITALS).
     6=A        7=A        8=A        9=A       10=A       11=A       12=A   
    13=A       14=A       15=A       16=A       17=A       18=A       19=A   
    20=A       21=A       22=A       23=A       24=A       25=A       26=A   
    27=A       28=A       29=A       30=A       31=A   

 SYMMETRIES FOR INITIAL GUESS ORBITALS FOLLOW.   BETA SET(S).
    20 ORBITALS ARE OCCUPIED (    5 CORE ORBITALS).
     6=A        7=A        8=A        9=A       10=A       11=A       12=A   
    13=A       14=A       15=A       16=A       17=A       18=A       19=A   
    20=A       21=A       22=A       23=A       24=A       25=A       26=A   
    27=A       28=A       29=A       30=A   
 ...... END OF INITIAL ORBITAL SELECTION ......
 CPU     0: STEP CPU TIME=     0.03 TOTAL CPU TIME=          0.1 (      0.0 MIN)
 TOTAL WALL CLOCK TIME=          0.1 SECONDS, CPU UTILIZATION IS    77.78%

                    ----------------------
                    AO INTEGRAL TECHNOLOGY
                    ----------------------
     S,P,L SHELL ROTATED AXIS INTEGRALS, REPROGRAMMED BY
        KAZUYA ISHIMURA (IMS) AND JOSE SIERRA (SYNSTAR).
     S,P,D,L SHELL ROTATED AXIS INTEGRALS PROGRAMMED BY
        KAZUYA ISHIMURA (INSTITUTE FOR MOLECULAR SCIENCE).
     S,P,D,F,G SHELL TO TOTAL QUARTET ANGULAR MOMENTUM SUM 5,
        ERIC PROGRAM BY GRAHAM FLETCHER (ELORET AND NASA ADVANCED
        SUPERCOMPUTING DIVISION, AMES RESEARCH CENTER).
     S,P,D,F,G,L SHELL GENERAL RYS QUADRATURE PROGRAMMED BY
        MICHEL DUPUIS (PACIFIC NORTHWEST NATIONAL LABORATORY).

          --------------------
          2 ELECTRON INTEGRALS
          --------------------

 DIRECT SCF METHOD SKIPS INTEGRAL STORAGE ON DISK.
 DIRECT TRANSFORMATION SKIPS AO INTEGRAL STORAGE ON DISK.
  ...... END OF TWO-ELECTRON INTEGRALS .....
 CPU     0: STEP CPU TIME=     0.01 TOTAL CPU TIME=          0.1 (      0.0 MIN)
 TOTAL WALL CLOCK TIME=          0.1 SECONDS, CPU UTILIZATION IS    80.00%

          ---------------------------
                  UHF SCF CALCULATION
          ---------------------------

     NUCLEAR ENERGY =       177.7628458403
     MAXIT = 60     NPUNCH=  2     MULT=  2
     EXTRAP=T  DAMP=F  SHIFT=F  RSTRCT=F  DIIS=F  SOSCF=T
     DENSITY MATRIX CONV=  2.00E-05
     SOSCF WILL OPTIMIZE     798 ALPHA AND     780 BETA ROTATION ANGLES.
     SOGTOL= 2.500E-01
     MEMORY REQUIRED FOR UHF/ROHF ITERS=     92026 WORDS.

 DIRECT SCF CALCULATION, SCHWRZ=T   FDIFF=T
 SCHWARZ INEQUALITY OVERHEAD:      1753 INTEGRALS, T=        0.00

                                                                                NONZERO     BLOCKS
 ITER EX      TOTAL ENERGY        E CHANGE  DENSITY CHANGE    ORB. GRAD       INTEGRALS    SKIPPED
   1  0     -244.8089512796  -244.8089512796   0.799350888   0.000000000        1348603      22742
          ---------------START SECOND ORDER SCF---------------
   2  1     -245.4068045117    -0.5978532321   0.180464960   0.102136319        1345753      23534
   3  2     -245.4489812986    -0.0421767869   0.128364530   0.067019580        1338699      25143
   4  3     -245.4770326240    -0.0280513254   0.039624572   0.004428682        1329507      26548
   5  4     -245.4777177474    -0.0006851234   0.013962556   0.002231858        1312734      28467
   6  5     -245.4778382740    -0.0001205265   0.007617808   0.000769037        1291811      30552
   7  6     -245.4778652567    -0.0000269827   0.003323320   0.000323400        1278728      31923
   8  7     -245.4778710276    -0.0000057709   0.001368294   0.000212240        1258850      33324
   9  8     -245.4778724659    -0.0000014383   0.000512818   0.000080793        1236675      35060
  10  9     -245.4778727809    -0.0000003149   0.000290607   0.000068353        1213758      37175
  11 10     -245.4778728300    -0.0000000492   0.000067972   0.000020953        1183261      39681
  12 11     -245.4778728367    -0.0000000067   0.000031225   0.000004635        1143602      42624
  13 12     -245.4778728382    -0.0000000014   0.000023819   0.000003152        1108515      44969
  14 13     -245.4778728386    -0.0000000004   0.000009223   0.000003293        1083422      46514
  15 14     -245.4778728388    -0.0000000002   0.000002199   0.000000858        1039101      49331

          -----------------
          DENSITY CONVERGED
          -----------------
     TIME TO FORM FOCK OPERATORS=       0.3 SECONDS (       0.0 SEC/ITER)
     FOCK TIME ON FIRST ITERATION=       0.0, LAST ITERATION=       0.0
     TIME TO SOLVE SCF EQUATIONS=       0.0 SECONDS (       0.0 SEC/ITER)

 FINAL UHF ENERGY IS     -245.4778728388 AFTER  15 ITERATIONS

          --------------------
          SPIN SZ   =    0.500
          S-SQUARED =    0.762
          --------------------

  ----- ALPHA SET ----- 

          ------------
          EIGENVECTORS
          ------------

                      1          2          3          4          5
                  -20.0636   -15.2230   -10.9738   -10.9531   -10.9215
                     A          A          A          A          A   
    1  C  1  S   -0.000041  -0.000139   0.987516   0.004254   0.002500
    2  C  1  S   -0.000139  -0.001013   0.101680  -0.001906  -0.000873
    3  C  1  X    0.000503  -0.000955   0.000064   0.000624  -0.000961
    4  C  1  Y   -0.000086  -0.000008   0.000035  -0.000218   0.000130
    5  C  1  Z   -0.000006   0.000045  -0.000082   0.000163  -0.000080
    6  C  1  S    0.004721  -0.000041  -0.080340   0.022363   0.001904
    7  C  1  X   -0.000845   0.003840  -0.004531   0.008974   0.002482
    8  C  1  Y   -0.002063   0.001146   0.001978  -0.006687  -0.001119
    9  C  1  Z    0.002706  -0.001717  -0.001634   0.006614   0.001023
   10  H  2  S    0.000238  -0.000506   0.000367  -0.001341  -0.000435
   11  H  2  S    0.000204  -0.000595   0.014415   0.000923   0.000422
   12  C  3  S   -0.000026  -0.000016  -0.005017   0.988090   0.004399
   13  C  3  S   -0.000089  -0.000518  -0.002430   0.104694  -0.001745
   14  C  3  X   -0.000259  -0.000234  -0.000140  -0.000606  -0.000270
   15  C  3  Y    0.000345  -0.000136   0.000069   0.000068  -0.000209
   16  C  3  Z   -0.000153  -0.000020  -0.000004   0.000017   0.000281
   17  C  3  S    0.006215   0.000298   0.018691  -0.095697   0.020124
   18  C  3  X    0.008774  -0.002227  -0.007997  -0.002575   0.015900
   19  C  3  Y   -0.005474   0.002973   0.005360  -0.006866   0.002495
   20  C  3  Z    0.002916  -0.001016  -0.005562   0.005458  -0.002942
   21  C  4  S    0.000175  -0.000316  -0.002601  -0.005146   0.986271
   22  C  4  S    0.001708  -0.001714  -0.000976  -0.003048   0.096482
   23  C  4  X    0.000172   0.000118   0.000864  -0.000103  -0.000795
   24  C  4  Y    0.001298  -0.000001  -0.000212   0.000159   0.000016
   25  C  4  Z   -0.000912  -0.000034   0.000212  -0.000096   0.000087
   26  C  4  S    0.014414   0.022055  -0.002152   0.023303  -0.048877
   27  C  4  X    0.007996   0.016263  -0.003729  -0.017846   0.017045
   28  C  4  Y    0.024896  -0.013488   0.003054  -0.001987   0.012911
   29  C  4  Z   -0.017843   0.008757  -0.002015   0.002162  -0.010020
   30  N  5  S   -0.000074   0.985886  -0.000111  -0.000038   0.000094
   31  N  5  S   -0.000512   0.101753  -0.000961  -0.000764  -0.000098
   32  N  5  X    0.000944  -0.000655   0.000405   0.000585   0.001091
   33  N  5  Y    0.000672   0.000490  -0.000154  -0.000308   0.000327
   34  N  5  Z   -0.000491  -0.000342   0.000039   0.000178  -0.000267
   35  N  5  S    0.004654  -0.066124   0.004214   0.001974   0.005996
   36  N  5  X   -0.007679   0.008313  -0.002992  -0.000749  -0.005824
   37  N  5  Y   -0.005334  -0.006763   0.001450   0.002111  -0.004549
   38  N  5  Z    0.003985   0.004478  -0.000750  -0.001402   0.003431
   39  O  6  S    0.983664  -0.000006   0.000021   0.000051   0.000289
   40  O  6  S    0.101082  -0.000389   0.000085   0.000193   0.002171
   41  O  6  X   -0.000640   0.000589   0.000091  -0.000329   0.000483
   42  O  6  Y   -0.003645   0.000035   0.000099   0.000165   0.000173
   43  O  6  Z    0.002615  -0.000067   0.000013  -0.000146  -0.000162
   44  O  6  S   -0.058828   0.002006  -0.001154  -0.001778  -0.006854
   45  O  6  X    0.002196  -0.004116   0.000499   0.003120  -0.001829
   46  O  6  Y    0.013278   0.000778  -0.000212   0.000288   0.005139
   47  O  6  Z   -0.009493  -0.000320  -0.000113  -0.000209  -0.003471
   48  H  7  S   -0.000329   0.000227  -0.001149   0.001112  -0.001601
   49  H  7  S   -0.000662  -0.000749   0.000912   0.014394   0.002684
   50  H  8  S   -0.000831   0.000432  -0.001180   0.000910  -0.001608
   51  H  8  S   -0.001398   0.000183   0.000499   0.014108   0.001946
   52  H  9  S   -0.002406   0.000954  -0.000457   0.000264  -0.002354
   53  H  9  S   -0.001383   0.007049   0.001088   0.000550  -0.001072
   54  H 10  S    0.002238   0.001465   0.000089  -0.000365   0.001077
   55  H 10  S    0.001232   0.006511   0.000866   0.001521   0.002205
   56  H 11  S   -0.000651   0.000376  -0.000004  -0.001206  -0.000198
   57  H 11  S   -0.001168   0.002284   0.013456  -0.000147   0.001872
   58  H 12  S   -0.000060  -0.000536   0.000383  -0.001424  -0.000415
   59  H 12  S    0.000227  -0.000124   0.014314   0.000740   0.000383

                      6          7          8          9         10
                   -1.0580    -0.9229    -0.8252    -0.6681    -0.5189
                     A          A          A          A          A   
    1  C  1  S   -0.010970  -0.002359  -0.159857  -0.129465  -0.025815
    2  C  1  S    0.012977   0.005107   0.157225   0.116237   0.026028
    3  C  1  X    0.007816   0.004492   0.027697  -0.070034  -0.028981
    4  C  1  Y   -0.002262  -0.002803  -0.024757   0.046394   0.063884
    5  C  1  Z    0.002773   0.001819   0.022864  -0.043736  -0.064212
    6  C  1  S    0.004543   0.012291   0.416766   0.447646   0.100762
    7  C  1  X    0.002610  -0.018277  -0.011920  -0.025668  -0.039601
    8  C  1  Y    0.007035  -0.005506  -0.003374   0.011810   0.041011
    9  C  1  Z   -0.009449   0.008789   0.002977  -0.011238  -0.038236
   10  H  2  S    0.004556   0.002383   0.082251   0.094637   0.049375
   11  H  2  S    0.000389   0.000108   0.006436   0.035562   0.031379
   12  C  3  S   -0.028737  -0.020947  -0.144179   0.123768   0.062725
   13  C  3  S    0.028242   0.021221   0.134993  -0.110518  -0.052178
   14  C  3  X    0.021262   0.015303  -0.038065  -0.084486   0.114777
   15  C  3  Y    0.009693  -0.005897   0.025339   0.043133   0.055111
   16  C  3  Z   -0.008485   0.003439  -0.023655  -0.040035  -0.056099
   17  C  3  S    0.029364   0.051012   0.382103  -0.404394  -0.252079
   18  C  3  X   -0.030277   0.017110  -0.003592  -0.013378   0.044322
   19  C  3  Y    0.012388  -0.018427   0.011409   0.010420   0.038353
   20  C  3  Z   -0.005532   0.009062  -0.008070  -0.010328  -0.040671
   21  C  4  S   -0.133426  -0.028372  -0.017148   0.067182  -0.126964
   22  C  4  S    0.142528   0.037088   0.023451  -0.072484   0.136481
   23  C  4  X    0.040183   0.049793  -0.073663   0.077507   0.064960
   24  C  4  Y    0.076536  -0.121550  -0.025795   0.052090  -0.087900
   25  C  4  Z   -0.055401   0.083783   0.020551  -0.044108   0.054663
   26  C  4  S    0.168297   0.019713   0.025957  -0.155465   0.343352
   27  C  4  X   -0.043448  -0.026331   0.017212   0.032542  -0.039528
   28  C  4  Y   -0.052569   0.018955  -0.019974   0.037494  -0.082078
   29  C  4  Z    0.039139  -0.012023   0.013330  -0.029558   0.057410
   30  N  5  S   -0.074573  -0.197857   0.035187  -0.041271   0.021427
   31  N  5  S    0.068817   0.177034  -0.028108   0.034469  -0.017127
   32  N  5  X   -0.022630  -0.014009  -0.019846   0.082672  -0.200993
   33  N  5  Y    0.022309  -0.000277  -0.000734  -0.021096   0.153944
   34  N  5  Z   -0.014764   0.001004   0.001317   0.010916  -0.102041
   35  N  5  S    0.193448   0.622468  -0.130446   0.155884  -0.085424
   36  N  5  X    0.004757  -0.030813  -0.000711   0.054800  -0.162203
   37  N  5  Y    0.033868   0.007380  -0.010383  -0.016463   0.146767
   38  N  5  Z   -0.023955  -0.003838   0.006921   0.008927  -0.098228
   39  O  6  S   -0.191417   0.104626   0.033053  -0.031985   0.066679
   40  O  6  S    0.174257  -0.095873  -0.031236   0.030125  -0.061355
   41  O  6  X   -0.015575   0.015490  -0.014901   0.015008   0.003426
   42  O  6  Y   -0.080262   0.023589   0.006742   0.010525  -0.066098
   43  O  6  Z    0.057398  -0.017312  -0.004607  -0.009526   0.044346
   44  O  6  S    0.610235  -0.349287  -0.105642   0.113186  -0.251471
   45  O  6  X   -0.008890   0.021924  -0.016411   0.010437   0.010772
   46  O  6  Y   -0.088060   0.027411   0.007977   0.009138  -0.062922
   47  O  6  Z    0.062756  -0.020543  -0.005233  -0.007728   0.041840
   48  H  7  S    0.010916   0.010369   0.071931  -0.089512  -0.082616
   49  H  7  S   -0.004363   0.002417   0.006636  -0.033493  -0.061116
   50  H  8  S    0.011874   0.011271   0.072393  -0.090970  -0.079455
   51  H  8  S   -0.001488   0.000353   0.008462  -0.034615  -0.059580
   52  H  9  S    0.034554   0.107677  -0.016900   0.029519  -0.108577
   53  H  9  S    0.007466   0.031743  -0.009878   0.016137  -0.088623
   54  H 10  S    0.026178   0.100588  -0.027059   0.064101  -0.101186
   55  H 10  S    0.003209   0.026823  -0.016858   0.039270  -0.082254
   56  H 11  S    0.004685   0.000261   0.084625   0.102024   0.015636
   57  H 11  S    0.002016  -0.012106   0.008296   0.044630  -0.003126
   58  H 12  S    0.005422   0.001944   0.081727   0.092808   0.047053
   59  H 12  S    0.003607  -0.004203   0.004242   0.034097   0.021554

                     11         12         13         14         15
                   -0.4533    -0.4224    -0.4100    -0.3319    -0.3295
                     A          A          A          A          A   
    1  C  1  S    0.004755  -0.001152   0.000060  -0.002596  -0.000267
    2  C  1  S   -0.002950   0.001253   0.003377   0.002402   0.000043
    3  C  1  X   -0.023316   0.018473   0.226863  -0.044229   0.080599
    4  C  1  Y   -0.057500   0.172021   0.057413  -0.019463   0.248661
    5  C  1  Z    0.063148   0.159067  -0.087740   0.260045   0.012081
    6  C  1  S   -0.031158   0.006330  -0.011364  -0.001348   0.014984
    7  C  1  X   -0.021865   0.012353   0.155314  -0.027831   0.061020
    8  C  1  Y   -0.037632   0.139204   0.051250   0.004108   0.221380
    9  C  1  Z    0.042493   0.126216  -0.073446   0.225885   0.030092
   10  H  2  S   -0.038735  -0.123156   0.066982  -0.192138  -0.034934
   11  H  2  S   -0.034484  -0.108989   0.057077  -0.193114  -0.023124
   12  C  3  S   -0.022517   0.000946  -0.019670   0.000663  -0.002985
   13  C  3  S    0.019482  -0.000473   0.017563   0.002499  -0.000619
   14  C  3  X   -0.091494   0.019151   0.066444  -0.024429  -0.014173
   15  C  3  Y   -0.027652   0.182195   0.105890   0.054317  -0.127776
   16  C  3  Z    0.045326   0.165334  -0.127955  -0.132294   0.032090
   17  C  3  S    0.074360  -0.006452   0.061167  -0.035764   0.047877
   18  C  3  X   -0.082815   0.009283   0.026339  -0.041066   0.014285
   19  C  3  Y   -0.016633   0.131226   0.092323   0.036193  -0.125651
   20  C  3  Z    0.028485   0.119255  -0.104967  -0.125592   0.016360
   21  C  4  S   -0.001199  -0.005413  -0.015449  -0.033699   0.043003
   22  C  4  S    0.005265   0.006014   0.018170   0.037530  -0.047540
   23  C  4  X    0.124852  -0.022468  -0.149263  -0.058870   0.080579
   24  C  4  Y    0.022958   0.088876   0.045645  -0.033289  -0.175909
   25  C  4  Z   -0.009074   0.111246  -0.059639  -0.191822  -0.057051
   26  C  4  S   -0.014839   0.020038   0.071405   0.116274  -0.150346
   27  C  4  X    0.053312  -0.015711  -0.089178  -0.066487   0.081619
   28  C  4  Y    0.000917   0.056439  -0.032830  -0.101445  -0.058557
   29  C  4  Z    0.006467   0.090252   0.001966  -0.115241  -0.117493
   30  N  5  S   -0.002724  -0.000600   0.003421   0.003950  -0.007722
   31  N  5  S    0.003257   0.000480  -0.001224  -0.003276   0.006242
   32  N  5  X    0.164373   0.014326   0.188756   0.020808  -0.056389
   33  N  5  Y    0.236912   0.028138  -0.001450  -0.119653  -0.008781
   34  N  5  Z   -0.167330   0.061421  -0.021096  -0.085906  -0.133179
   35  N  5  S    0.013798   0.000714  -0.034438  -0.027476   0.047792
   36  N  5  X    0.154791   0.017713   0.204412   0.039376  -0.082781
   37  N  5  Y    0.219138   0.028471  -0.007016  -0.121943  -0.020907
   38  N  5  Z   -0.154922   0.060283  -0.018194  -0.101517  -0.138071
   39  O  6  S    0.020167   0.006801   0.032527   0.030502  -0.038003
   40  O  6  S   -0.018399  -0.006085  -0.029616  -0.026693   0.033506
   41  O  6  X    0.066771  -0.019284  -0.097907  -0.063780   0.075069
   42  O  6  Y   -0.036002   0.038819  -0.039318  -0.161515   0.038796
   43  O  6  Z    0.028309   0.065458   0.011459  -0.053047  -0.171891
   44  O  6  S   -0.074518  -0.025785  -0.119745  -0.126839   0.158013
   45  O  6  X    0.066023  -0.018000  -0.092177  -0.062515   0.074231
   46  O  6  Y   -0.036082   0.034001  -0.039823  -0.166393   0.049258
   47  O  6  Z    0.027451   0.058877   0.013236  -0.045453  -0.176263
   48  H  7  S    0.051170   0.126362  -0.067486  -0.092442   0.015717
   49  H  7  S    0.039931   0.124504  -0.077681  -0.103743   0.024549
   50  H  8  S    0.033260  -0.146514  -0.044117  -0.020000   0.094816
   51  H  8  S    0.019314  -0.146645  -0.053184  -0.028253   0.106489
   52  H  9  S   -0.215237   0.005742  -0.038883   0.030947  -0.037652
   53  H  9  S   -0.180193   0.003777  -0.037112   0.030195  -0.036392
   54  H 10  S    0.168005   0.005813   0.127408   0.000623  -0.012601
   55  H 10  S    0.133034   0.003644   0.104222  -0.004893  -0.005917
   56  H 11  S    0.034053  -0.007866  -0.178653   0.104353  -0.109814
   57  H 11  S    0.032132  -0.008704  -0.191279   0.123714  -0.130166
   58  H 12  S   -0.035124   0.132507   0.052206   0.015436   0.191869
   59  H 12  S   -0.033682   0.109794   0.039787  -0.002598   0.189126

                     16         17         18         19         20
                   -0.2949    -0.2730    -0.2541    -0.1788    -0.1035
                     A          A          A          A          A   
    1  C  1  S   -0.029472   0.003674   0.002727  -0.000269  -0.005605
    2  C  1  S    0.027214  -0.003441  -0.003593  -0.002341   0.012984
    3  C  1  X    0.251846  -0.014599  -0.066163  -0.001446  -0.004475
    4  C  1  Y   -0.154695  -0.074092  -0.070773   0.014148   0.021932
    5  C  1  Z    0.103356  -0.117857   0.043897   0.017572  -0.007706
    6  C  1  S    0.122990  -0.018091  -0.008109   0.013932   0.018266
    7  C  1  X    0.207827  -0.009511  -0.034665   0.012924  -0.112562
    8  C  1  Y   -0.146249  -0.060563  -0.080308   0.018355   0.026773
    9  C  1  Z    0.097050  -0.106408   0.045662   0.016278   0.006358
   10  H  2  S   -0.015516   0.105384  -0.034986  -0.017721   0.005863
   11  H  2  S   -0.031753   0.138320  -0.027888  -0.005029  -0.019798
   12  C  3  S   -0.010773   0.001863  -0.014201   0.000369  -0.038515
   13  C  3  S    0.007459  -0.001681   0.014707   0.000533   0.013660
   14  C  3  X   -0.237193   0.003276   0.137088  -0.001118   0.152394
   15  C  3  Y    0.154030   0.135143   0.098006  -0.014459   0.065906
   16  C  3  Z   -0.101658   0.190804  -0.067831  -0.013879  -0.058064
   17  C  3  S    0.060441  -0.006755   0.061497  -0.005742   0.365206
   18  C  3  X   -0.157286  -0.004073   0.157965   0.000680   0.239894
   19  C  3  Y    0.123994   0.116816   0.058833  -0.031499   0.122789
   20  C  3  Z   -0.079002   0.161050  -0.039437  -0.006574  -0.121971
   21  C  4  S    0.031004  -0.001041   0.022660  -0.000201  -0.008717
   22  C  4  S   -0.028240   0.001811  -0.045181   0.000205   0.009292
   23  C  4  X    0.149237   0.002433  -0.159082  -0.000250  -0.080835
   24  C  4  Y   -0.046572  -0.076363  -0.218310  -0.016198  -0.017772
   25  C  4  Z    0.043811  -0.131018   0.151079  -0.025768   0.014621
   26  C  4  S   -0.137743   0.004254  -0.012578   0.003745   0.033221
   27  C  4  X    0.158068   0.001718  -0.116409  -0.005588   0.221289
   28  C  4  Y    0.009460  -0.098971  -0.034134  -0.033301  -0.052683
   29  C  4  Z    0.003303  -0.138727   0.016812  -0.050153   0.026841
   30  N  5  S   -0.021810   0.000240  -0.008831  -0.000339   0.044646
   31  N  5  S    0.019406   0.000170   0.005307   0.000085  -0.018239
   32  N  5  X   -0.149511  -0.008332   0.027619   0.011383   0.085138
   33  N  5  Y    0.036992  -0.101846   0.062519   0.217983  -0.078727
   34  N  5  Z   -0.000957  -0.132695  -0.051981   0.314861   0.054291
   35  N  5  S    0.094073  -0.004714   0.067563   0.004322  -0.359255
   36  N  5  X   -0.168444  -0.005366  -0.001356   0.015677   0.144276
   37  N  5  Y    0.030888  -0.113623   0.052699   0.294844  -0.138919
   38  N  5  Z    0.007344  -0.148239  -0.044691   0.424684   0.094867
   39  O  6  S   -0.018686   0.002538  -0.062299   0.000149   0.000324
   40  O  6  S    0.016407  -0.002265   0.053348   0.000081   0.000309
   41  O  6  X    0.103362  -0.002732  -0.036536  -0.013355   0.446689
   42  O  6  Y    0.057494  -0.143427   0.272932  -0.196367  -0.052651
   43  O  6  Z   -0.029742  -0.174639  -0.206411  -0.274014   0.017477
   44  O  6  S    0.081223  -0.010519   0.270134  -0.001709  -0.005810
   45  O  6  X    0.096385  -0.003797  -0.029336  -0.015076   0.533922
   46  O  6  Y    0.063781  -0.151029   0.309257  -0.228482  -0.058054
   47  O  6  Z   -0.033684  -0.182264  -0.233231  -0.319170   0.017191
   48  H  7  S   -0.035824   0.182483  -0.048527  -0.011946  -0.031380
   49  H  7  S   -0.043760   0.238173  -0.077395   0.008441  -0.061864
   50  H  8  S   -0.080102  -0.153624  -0.075597   0.012266  -0.034335
   51  H  8  S   -0.098003  -0.197249  -0.115785  -0.019193  -0.074121
   52  H  9  S    0.014802   0.007399  -0.080068  -0.001547   0.041009
   53  H  9  S    0.005556   0.007212  -0.103282  -0.003734   0.055570
   54  H 10  S   -0.087327  -0.005224   0.060949  -0.000412   0.020898
   55  H 10  S   -0.092502  -0.006381   0.081814  -0.000616   0.080836
   56  H 11  S   -0.108648  -0.006771   0.081578   0.002360   0.007394
   57  H 11  S   -0.153430  -0.003557   0.117606   0.009129  -0.031982
   58  H 12  S   -0.049392  -0.083704  -0.063219   0.012777   0.014343
   59  H 12  S   -0.065598  -0.110542  -0.040069  -0.007158  -0.047885

                     21         22         23         24         25
                    0.1080     0.4546     0.4704     0.5098     0.5139
                     A          A          A          A          A   
    1  C  1  S   -0.007364  -0.070382  -0.121387   0.061345   0.039930
    2  C  1  S    0.001721   0.010993   0.018066  -0.012852  -0.007362
    3  C  1  X    0.009380  -0.107968  -0.061958  -0.100738  -0.003000
    4  C  1  Y   -0.009597   0.024036  -0.013994  -0.037897  -0.182593
    5  C  1  Z    0.005279  -0.039563  -0.000620   0.186547  -0.107478
    6  C  1  S    0.080310   1.014123   1.741846  -0.878683  -0.577880
    7  C  1  X    0.015105  -0.374290  -0.153306  -0.530397  -0.069552
    8  C  1  Y   -0.075841   0.197168  -0.042011  -0.173377  -0.809161
    9  C  1  Z   -0.050756  -0.266272  -0.021815   0.828689  -0.473142
   10  H  2  S   -0.004388  -0.004760  -0.001368   0.041997  -0.040970
   11  H  2  S   -0.053758  -0.559351  -0.652983   1.452947  -0.616922
   12  C  3  S   -0.001006  -0.095085   0.011811  -0.032748  -0.012729
   13  C  3  S    0.001978   0.014866   0.001089  -0.008041  -0.005953
   14  C  3  X    0.003744  -0.021876  -0.003184  -0.068380  -0.036294
   15  C  3  Y    0.000204  -0.095757  -0.028015  -0.012319  -0.138017
   16  C  3  Z   -0.005334   0.069382   0.038523   0.114756  -0.081708
   17  C  3  S    0.006662   1.282836  -0.115916   0.535593   0.233221
   18  C  3  X    0.028208  -0.117140   0.235425  -0.198319  -0.131325
   19  C  3  Y    0.143031  -0.362647  -0.260999   0.025374  -0.533071
   20  C  3  Z    0.180913   0.280323   0.281355   0.354684  -0.308098
   21  C  4  S    0.001357   0.013246  -0.006848  -0.026306  -0.015028
   22  C  4  S    0.001363   0.006114   0.027399   0.014969   0.006691
   23  C  4  X    0.016895  -0.026616   0.044910  -0.023000  -0.002087
   24  C  4  Y    0.264520   0.016252  -0.045073  -0.044817  -0.000280
   25  C  4  Z    0.374155  -0.016288   0.002522   0.010270   0.048677
   26  C  4  S   -0.026928  -0.102259  -0.170588   0.212516   0.155358
   27  C  4  X    0.027072   0.006773  -0.107749  -0.097212  -0.041800
   28  C  4  Y    0.352194  -0.042098   0.062922  -0.092565   0.075031
   29  C  4  Z    0.489717   0.026388  -0.090842  -0.036384   0.153834
   30  N  5  S    0.001133  -0.075332   0.096820   0.033760   0.028109
   31  N  5  S   -0.000779   0.022014  -0.036981  -0.011699  -0.009797
   32  N  5  X   -0.006318   0.029866  -0.066695  -0.067760  -0.060761
   33  N  5  Y   -0.112436  -0.071981   0.072574  -0.036714  -0.059136
   34  N  5  Z   -0.169256   0.044950  -0.041069   0.048008   0.001733
   35  N  5  S   -0.007637   0.755377  -0.899379  -0.329259  -0.277831
   36  N  5  X   -0.014725   0.122754  -0.311904  -0.244986  -0.211252
   37  N  5  Y   -0.199030  -0.239779   0.284754  -0.144231  -0.174088
   38  N  5  Z   -0.307666   0.155024  -0.166837   0.146110   0.051381
   39  O  6  S   -0.000100  -0.018976  -0.003422   0.000200   0.003966
   40  O  6  S   -0.000220   0.014551   0.003170  -0.001506  -0.004414
   41  O  6  X   -0.010093  -0.011427  -0.077756  -0.011507   0.002369
   42  O  6  Y   -0.166650  -0.028361   0.014099  -0.000411  -0.035604
   43  O  6  Z   -0.235757   0.022383   0.004505   0.017480  -0.021533
   44  O  6  S    0.002316   0.128957   0.011683  -0.001513  -0.024920
   45  O  6  X   -0.016279  -0.030141  -0.082074  -0.008115   0.006605
   46  O  6  Y   -0.260044  -0.067353   0.008979   0.009349  -0.050647
   47  O  6  Z   -0.365119   0.051228   0.019436   0.027936  -0.049589
   48  H  7  S   -0.092114   0.017684  -0.009481  -0.035194   0.010818
   49  H  7  S   -0.382590  -0.740375  -0.176328  -0.803883   0.448796
   50  H  8  S    0.078637   0.016339  -0.021988  -0.008872  -0.042090
   51  H  8  S    0.329285  -0.844834  -0.165581  -0.130013  -0.951842
   52  H  9  S    0.001987  -0.014910   0.018315   0.007081   0.008618
   53  H  9  S    0.016089  -0.740584   0.800927  -0.183921  -0.148674
   54  H 10  S    0.000791  -0.018735   0.044836   0.020116   0.010851
   55  H 10  S    0.001599  -0.387009   0.731917   0.609648   0.509604
   56  H 11  S   -0.002768   0.000628   0.011941  -0.044154  -0.020128
   57  H 11  S   -0.022769  -0.712400  -0.875830  -0.687345   0.038526
   58  H 12  S    0.004300   0.000389  -0.005725  -0.002542   0.064965
   59  H 12  S    0.017543  -0.406499  -0.554144   0.449771   1.445780

                     26         27         28         29         30
                    0.5250     0.5472     0.5720     0.6215     0.7028
                     A          A          A          A          A   
    1  C  1  S    0.049146   0.044983   0.002459  -0.070405  -0.033131
    2  C  1  S   -0.002336  -0.007952   0.000257   0.007284   0.011836
    3  C  1  X    0.192611  -0.045495   0.000757   0.125352   0.035380
    4  C  1  Y    0.098988  -0.074813  -0.084398  -0.125102   0.046418
    5  C  1  Z   -0.050017   0.003940  -0.124368   0.105349  -0.029327
    6  C  1  S   -0.678755  -0.620991  -0.041723   1.093343   0.441831
    7  C  1  X    0.899347  -0.266226  -0.042477   1.065092   0.586353
    8  C  1  Y    0.595545  -0.280732  -0.662829  -0.982206   0.037173
    9  C  1  Z   -0.355318  -0.123651  -0.847131   0.832604  -0.037255
   10  H  2  S    0.005938  -0.013601  -0.016284   0.053395   0.050761
   11  H  2  S   -0.054682   0.115246  -0.950767   0.238971  -0.205821
   12  C  3  S   -0.081209  -0.081123   0.007196   0.064857   0.115057
   13  C  3  S    0.009684   0.019047  -0.005052  -0.002200  -0.014210
   14  C  3  X   -0.037971   0.004766  -0.009913   0.213682  -0.096839
   15  C  3  Y   -0.043405  -0.005275   0.201495  -0.111567  -0.096588
   16  C  3  Z    0.074126   0.045484   0.190645   0.134610   0.099987
   17  C  3  S    1.171009   1.115355  -0.084455  -1.059719  -1.702528
   18  C  3  X   -0.238053   0.008575  -0.087247   1.310116  -1.328573
   19  C  3  Y   -0.433397   0.022315   1.054105  -0.734507  -0.737755
   20  C  3  Z    0.524818   0.223385   0.971480   0.824120   0.710459
   21  C  4  S    0.016680   0.002641  -0.001589   0.043956  -0.167956
   22  C  4  S    0.003856   0.012773   0.001681  -0.012731   0.021785
   23  C  4  X    0.050309   0.052194  -0.026005   0.026424  -0.153677
   24  C  4  Y   -0.006717  -0.004879  -0.077906  -0.008734  -0.109732
   25  C  4  Z    0.004639  -0.029572  -0.113757  -0.024205   0.089627
   26  C  4  S   -0.149862  -0.122078   0.022416  -0.605229   2.566618
   27  C  4  X   -0.040030   0.118712  -0.027525   0.054111  -0.906570
   28  C  4  Y    0.066507   0.073145  -0.250154   0.048807  -0.495361
   29  C  4  Z   -0.080889  -0.133269  -0.285399  -0.132397   0.384200
   30  N  5  S    0.028550   0.009416  -0.005671  -0.024255   0.044570
   31  N  5  S   -0.007959  -0.001893   0.004079  -0.008573  -0.022731
   32  N  5  X   -0.080158   0.148913  -0.032727   0.069188   0.136267
   33  N  5  Y    0.005377   0.156025   0.010278  -0.009441  -0.048325
   34  N  5  Z   -0.000512  -0.102029   0.074997   0.006289   0.025180
   35  N  5  S   -0.276298  -0.082130   0.037423   0.393607  -0.440578
   36  N  5  X   -0.277010   0.536667  -0.107518   0.060586   0.657121
   37  N  5  Y    0.036891   0.560637  -0.032262   0.012071  -0.129810
   38  N  5  Z   -0.008203  -0.381744   0.178908   0.009914   0.065051
   39  O  6  S    0.001255   0.009162   0.002134  -0.017546   0.027298
   40  O  6  S   -0.003246  -0.003887  -0.004419   0.009323  -0.018679
   41  O  6  X   -0.008468  -0.013344   0.022386   0.001162   0.077713
   42  O  6  Y   -0.011041   0.033910   0.016853  -0.057252   0.075070
   43  O  6  Z    0.023370  -0.018659   0.031206   0.055515  -0.051525
   44  O  6  S   -0.008522  -0.088665   0.004556   0.138788  -0.209436
   45  O  6  X   -0.007830  -0.025264   0.033522  -0.020322   0.222999
   46  O  6  Y   -0.021937   0.070697   0.055307  -0.117257   0.184684
   47  O  6  Z    0.037428  -0.030045   0.092083   0.115167  -0.135425
   48  H  7  S   -0.012611   0.000826   0.029044  -0.018331  -0.075131
   49  H  7  S   -0.942337  -0.689281  -1.132015  -0.270545  -0.178632
   50  H  8  S   -0.004545  -0.015278  -0.021277  -0.026188  -0.069849
   51  H  8  S   -0.733994  -0.450033   1.352883  -0.108980  -0.123896
   52  H  9  S    0.026579   0.036682  -0.005019  -0.046464  -0.033797
   53  H  9  S    0.115654   1.169814  -0.245751  -0.224388   0.137673
   54  H 10  S    0.003538  -0.022189   0.000484   0.046896   0.009649
   55  H 10  S    0.490220  -1.018793   0.190312  -0.262555  -0.352641
   56  H 11  S    0.019000  -0.001011  -0.005744   0.065407  -0.049870
   57  H 11  S    1.552494  -0.102313   0.078178   0.143345   0.217935
   58  H 12  S   -0.014209   0.003539   0.017658   0.056402   0.067995
   59  H 12  S   -0.489189   0.667202   0.794526   0.338422  -0.258669

                     31         32         33         34         35
                    0.8549     0.8988     1.1103     1.1738     1.2245
                     A          A          A          A          A   
    1  C  1  S    0.018708  -0.000304  -0.000775  -0.013937   0.040642
    2  C  1  S   -0.010504  -0.051560   0.003364   0.009411  -0.059979
    3  C  1  X    0.077345  -0.228372   0.036402   0.132854  -0.618585
    4  C  1  Y    0.012247   0.020429  -0.393904  -0.551168   0.064993
    5  C  1  Z   -0.023764  -0.016411  -0.416458   0.480343  -0.321787
    6  C  1  S   -0.360812   0.560093  -0.007837   0.401268  -0.208161
    7  C  1  X   -0.185388   0.318546  -0.046118   0.077967   0.971759
    8  C  1  Y    0.181637  -0.197169   0.629628   0.805399   0.097177
    9  C  1  Z   -0.169566   0.232807   0.688003  -0.711469   0.351926
   10  H  2  S    0.033115  -0.028077   0.509413  -0.302029   0.094394
   11  H  2  S   -0.016077   0.055389  -0.060338  -0.084770   0.120448
   12  C  3  S    0.011743   0.025598   0.000850   0.037767  -0.022162
   13  C  3  S    0.030945  -0.015153  -0.003264  -0.107594   0.124137
   14  C  3  X   -0.015405   0.029692  -0.002314  -0.510134  -0.121640
   15  C  3  Y    0.094279  -0.009118  -0.152065   0.098188   0.093962
   16  C  3  Z   -0.087381  -0.027816  -0.159215  -0.076914  -0.002949
   17  C  3  S   -0.669483  -0.464520   0.034518   0.205994  -0.754056
   18  C  3  X   -0.923355   0.043847   0.014817   0.346299  -0.245598
   19  C  3  Y   -0.002251  -0.827938   0.177596  -0.323254  -0.161134
   20  C  3  Z   -0.008255   0.605536   0.161403   0.285062   0.011233
   21  C  4  S    0.063025   0.039880  -0.002299  -0.023365  -0.003570
   22  C  4  S    0.061746  -0.028909   0.013945  -0.005738   0.015886
   23  C  4  X   -0.217437  -0.317614  -0.031468   0.023362   0.494860
   24  C  4  Y   -0.044845   0.138866  -0.171102  -0.037988  -0.062755
   25  C  4  Z    0.048386  -0.084222  -0.230764   0.070418   0.434918
   26  C  4  S   -0.962291  -0.565951  -0.018083   0.013000   0.214882
   27  C  4  X   -1.415734  -1.504638   0.053333  -0.175727  -0.565621
   28  C  4  Y   -1.074544   1.605568   0.088543   0.132569  -0.601829
   29  C  4  Z    0.834385  -1.073240   0.135672  -0.152677   0.036626
   30  N  5  S   -0.040101  -0.097063   0.000107   0.003742   0.031831
   31  N  5  S    0.031819   0.021491  -0.000612  -0.033623  -0.032760
   32  N  5  X   -0.060271  -0.137261   0.004500   0.102798   0.011522
   33  N  5  Y    0.114130   0.088569   0.000141  -0.042720  -0.005442
   34  N  5  Z   -0.078347  -0.065867   0.004394   0.019318   0.043939
   35  N  5  S    0.302828   1.525992  -0.013829   0.158820  -0.135273
   36  N  5  X   -0.090725  -0.987995  -0.001024  -0.104705   0.284202
   37  N  5  Y    0.571482   0.704114  -0.025944  -0.059791  -0.076936
   38  N  5  Z   -0.400998  -0.452953  -0.019480   0.060260   0.094359
   39  O  6  S   -0.114374   0.057231   0.000942   0.008918  -0.028709
   40  O  6  S    0.030265  -0.003762  -0.003364  -0.020677   0.008146
   41  O  6  X    0.062007   0.160388   0.003950   0.093201   0.066720
   42  O  6  Y   -0.137439   0.002485  -0.007349  -0.015829  -0.047874
   43  O  6  Z    0.091007  -0.004718  -0.013772   0.021732   0.044456
   44  O  6  S    1.439308  -0.882136   0.001173  -0.085887   0.378261
   45  O  6  X    0.153788   0.495631  -0.005494   0.044592   0.025403
   46  O  6  Y   -0.623459   0.181671  -0.010851   0.006426  -0.153145
   47  O  6  Z    0.428548  -0.146456  -0.013274   0.002614   0.170846
   48  H  7  S   -0.061249  -0.031291  -0.353653  -0.008582   0.111860
   49  H  7  S    0.078070  -0.122949   0.130043  -0.026665  -0.041140
   50  H  8  S   -0.093826   0.015486   0.342388   0.000152   0.034246
   51  H  8  S    0.061583  -0.315979  -0.123384  -0.045128  -0.050590
   52  H  9  S   -0.140057   0.067794  -0.005390  -0.184495  -0.080820
   53  H  9  S    0.493328   0.224859   0.003771  -0.000218   0.054004
   54  H 10  S    0.156927   0.009029  -0.003470   0.165035   0.084585
   55  H 10  S   -0.085900   0.273742  -0.001993  -0.099826  -0.076163
   56  H 11  S   -0.129954   0.152829  -0.058266   0.252338   0.480282
   57  H 11  S    0.107621  -0.269386   0.014820  -0.019767   0.072357
   58  H 12  S    0.036571  -0.024615  -0.457802  -0.340712  -0.091450
   59  H 12  S    0.008320  -0.007700   0.050915  -0.093234   0.067458

                     36         37         38         39         40
                    1.2496     1.2648     1.2980     1.3668     1.4059
                     A          A          A          A          A   
    1  C  1  S    0.021896   0.014051   0.033260  -0.000348   0.021684
    2  C  1  S   -0.037047   0.025286  -0.118527  -0.030265   0.023110
    3  C  1  X   -0.206633   0.114490  -0.171004   0.162281  -0.077687
    4  C  1  Y    0.359488   0.214692   0.183490   0.078501  -0.027552
    5  C  1  Z    0.185574  -0.257430  -0.209883  -0.092297   0.063871
    6  C  1  S   -0.017540  -0.271271   0.577070   0.336166  -0.077230
    7  C  1  X    0.346909  -0.332716   0.340656  -0.300090   0.277225
    8  C  1  Y   -0.565396  -0.467902  -0.414066  -0.278519  -0.012428
    9  C  1  Z   -0.385638   0.531216   0.474547   0.304237  -0.054346
   10  H  2  S   -0.117316   0.113771   0.159731   0.030816   0.159487
   11  H  2  S   -0.028160   0.166317   0.064538   0.071806  -0.078573
   12  C  3  S   -0.013012   0.023068  -0.053551   0.000528   0.019564
   13  C  3  S    0.059630  -0.046701   0.080238  -0.043183  -0.039371
   14  C  3  X   -0.180728  -0.710021  -0.488585  -0.150375  -0.084369
   15  C  3  Y   -0.034330  -0.446082   0.478192   0.131042   0.155833
   16  C  3  Z   -0.154382   0.448681  -0.411841  -0.125048  -0.166741
   17  C  3  S   -0.288347  -0.033931   0.280567   0.127500   0.608538
   18  C  3  X    0.105409   1.076269   1.067983   0.577645   0.389867
   19  C  3  Y    0.099581   0.909529  -0.828983  -0.253600  -0.025316
   20  C  3  Z    0.266454  -0.929364   0.714469   0.213177   0.086162
   21  C  4  S   -0.003523  -0.015771   0.011039  -0.032306   0.033525
   22  C  4  S    0.010601   0.015554  -0.194988   0.248788  -0.087656
   23  C  4  X    0.186238  -0.317815  -0.209220   0.160748  -0.653935
   24  C  4  Y   -0.597353   0.152068   0.317800  -0.028138  -0.647393
   25  C  4  Z   -0.624221  -0.059097  -0.118093   0.071328   0.490452
   26  C  4  S   -0.007133  -0.724011   0.029969  -0.638665  -0.528065
   27  C  4  X   -0.208507   0.602251   0.660182  -0.226015   1.116737
   28  C  4  Y    0.446582  -0.234746   0.323243   0.484931   0.380665
   29  C  4  Z    0.812246   0.155519  -0.418084  -0.427691  -0.341034
   30  N  5  S    0.013282  -0.003341  -0.017424   0.062585   0.008989
   31  N  5  S   -0.019806   0.001267  -0.020694  -0.060192  -0.006630
   32  N  5  X    0.016479   0.000137   0.143178   0.091765   0.116221
   33  N  5  Y   -0.080783   0.052328  -0.079984  -0.053162   0.027997
   34  N  5  Z   -0.082277  -0.016168   0.044766   0.048475  -0.024184
   35  N  5  S    0.003877  -0.163627   0.071441   0.246478  -0.127446
   36  N  5  X    0.062797  -0.056566  -0.245014  -0.543646  -0.002616
   37  N  5  Y   -0.101387  -0.027776  -0.108065   0.324743  -0.030476
   38  N  5  Z   -0.059985   0.004352   0.117441  -0.196744   0.028193
   39  O  6  S   -0.010194  -0.002935   0.032607   0.012150  -0.042244
   40  O  6  S    0.005339  -0.015156  -0.014693  -0.004875   0.055151
   41  O  6  X    0.026697   0.051497  -0.072085  -0.019678  -0.125220
   42  O  6  Y   -0.037835   0.030823   0.031214   0.038315  -0.154987
   43  O  6  Z   -0.010176  -0.039999  -0.010563  -0.024505   0.118258
   44  O  6  S    0.115431   0.196210  -0.438466  -0.193475   0.013047
   45  O  6  X    0.012306  -0.060241  -0.056690   0.064435  -0.199314
   46  O  6  Y   -0.147072  -0.026132   0.219288   0.050998  -0.265305
   47  O  6  Z   -0.068735   0.019216  -0.126305  -0.023586   0.199058
   48  H  7  S   -0.120329   0.276933  -0.311189   0.005949   0.147151
   49  H  7  S   -0.051461   0.225753  -0.118655  -0.048558  -0.084472
   50  H  8  S    0.136691   0.215266  -0.343351  -0.011787   0.140371
   51  H  8  S    0.002156   0.223601  -0.141165  -0.047611  -0.039828
   52  H  9  S   -0.051930  -0.092027  -0.259974   0.845591   0.307152
   53  H  9  S    0.019578   0.098532  -0.099771  -0.426301  -0.183524
   54  H 10  S    0.077020   0.110981   0.015117   0.888822  -0.198749
   55  H 10  S   -0.047906  -0.103419  -0.020238  -0.351247   0.012021
   56  H 11  S    0.198367   0.110745  -0.116280  -0.136133   0.174182
   57  H 11  S    0.028609  -0.168447   0.139229  -0.150379   0.103359
   58  H 12  S    0.151195   0.111241   0.136496   0.030325   0.143877
   59  H 12  S    0.121057   0.157210   0.053901   0.062672  -0.036529

                     41         42         43         44         45
                    1.4368     1.4561     1.5285     1.5484     1.5566
                     A          A          A          A          A   
    1  C  1  S   -0.002860  -0.069352  -0.010537   0.003615  -0.017983
    2  C  1  S   -0.011895   0.005660   0.086650  -0.017707   0.030181
    3  C  1  X    0.084029  -0.011425  -0.772346   0.128633  -0.112858
    4  C  1  Y    0.442178   0.226867  -0.223325   0.519339  -0.110569
    5  C  1  Z    0.360891  -0.284567   0.482319   0.423666  -0.009022
    6  C  1  S    0.101588   0.358363  -0.485329   0.000055   0.323831
    7  C  1  X   -0.178978  -0.261739   1.002473  -0.145555  -0.051408
    8  C  1  Y   -1.062762  -0.270120   0.483231  -0.542964  -0.419862
    9  C  1  Z   -0.866767   0.398333  -0.761791  -0.476842   0.077174
   10  H  2  S    0.119734  -0.543508   0.379838   0.497851  -0.198728
   11  H  2  S   -0.625523   0.390202  -0.737135  -0.828395   0.108192
   12  C  3  S    0.000306  -0.031840  -0.017346  -0.002055   0.031857
   13  C  3  S   -0.001667  -0.049723   0.055991   0.007432  -0.103601
   14  C  3  X   -0.059898  -0.124343  -0.028481   0.027985  -0.173324
   15  C  3  Y   -0.595231  -0.187231  -0.263448   0.454491   0.314093
   16  C  3  Z   -0.639916   0.269722   0.205789   0.489449   0.076575
   17  C  3  S   -0.009058   0.205000  -0.057064  -0.011950   0.018957
   18  C  3  X    0.196887   0.667526  -0.187969  -0.086858   0.665995
   19  C  3  Y    1.380602  -0.045925   0.553415  -0.617124  -0.170373
   20  C  3  Z    1.491777  -0.176319  -0.446966  -0.656839   0.277586
   21  C  4  S    0.000392   0.042262   0.012320   0.001411  -0.004252
   22  C  4  S    0.025576  -0.324529  -0.210346  -0.012842   0.177088
   23  C  4  X    0.081382   0.046405  -0.163964  -0.019098   0.217214
   24  C  4  Y    0.134459  -0.407553   0.117398   0.091467  -0.073166
   25  C  4  Z    0.315546   0.275749  -0.103627   0.071191   0.228878
   26  C  4  S   -0.151806  -0.380173   0.189118   0.073900  -0.501251
   27  C  4  X   -0.087995   0.127239   0.684181  -0.010667  -0.409299
   28  C  4  Y   -0.426724   0.781426  -0.668078  -0.079387   0.379249
   29  C  4  Z   -0.766674  -0.526466   0.523292  -0.008469  -0.665315
   30  N  5  S   -0.003899  -0.007248   0.025816   0.000921  -0.015447
   31  N  5  S    0.002694  -0.005813  -0.025952  -0.002112   0.014864
   32  N  5  X    0.003898   0.134922  -0.011076  -0.005356  -0.028246
   33  N  5  Y    0.097709  -0.044025   0.011822  -0.020679   0.001980
   34  N  5  Z    0.162242   0.010030  -0.011010  -0.072574   0.006885
   35  N  5  S    0.075087   0.329669  -0.539766  -0.029054   0.418360
   36  N  5  X   -0.005010  -0.299522   0.151041   0.018255  -0.081198
   37  N  5  Y   -0.010795  -0.019806  -0.082390   0.044629   0.043250
   38  N  5  Z    0.023678   0.033595   0.040170   0.061541   0.044241
   39  O  6  S   -0.000757  -0.004088  -0.009834  -0.000193   0.006170
   40  O  6  S   -0.001711   0.002886  -0.016080   0.001637   0.000426
   41  O  6  X    0.018408   0.004602   0.049532   0.002395   0.021895
   42  O  6  Y    0.029894  -0.124624   0.005375  -0.015903   0.050881
   43  O  6  Z    0.060623   0.085879  -0.015796   0.003806   0.075535
   44  O  6  S   -0.002509  -0.290794   0.320451   0.010961  -0.194290
   45  O  6  X    0.013907  -0.017668  -0.151728  -0.001511   0.083692
   46  O  6  Y    0.051559  -0.086471  -0.060722   0.015805   0.006664
   47  O  6  Z    0.112074   0.056632   0.041622   0.003074   0.005211
   48  H  7  S   -0.149049  -0.403886  -0.044854  -0.392877  -0.263715
   49  H  7  S   -0.610701   0.327378   0.222740   0.812241   0.249889
   50  H  8  S    0.163052  -0.389928  -0.176513   0.327344   0.889577
   51  H  8  S    0.625037   0.190364   0.384161  -0.775975  -0.815247
   52  H  9  S   -0.090192  -0.087070   0.214737   0.032615  -0.230303
   53  H  9  S    0.044536  -0.013047  -0.155511  -0.006769   0.171843
   54  H 10  S   -0.022418   0.034323   0.163661  -0.009076  -0.062827
   55  H 10  S    0.018381   0.024001  -0.164357   0.003222   0.066158
   56  H 11  S   -0.043821  -0.470211  -0.630903   0.169289  -0.623929
   57  H 11  S   -0.075382  -0.040501   1.367056  -0.230228   0.420832
   58  H 12  S   -0.155349  -0.482930   0.039847  -0.604816   0.501559
   59  H 12  S    0.703302   0.258829  -0.262976   0.985660  -0.305305

                     46         47         48         49         50
                    1.5745     1.6368     1.6670     1.6692     1.8440
                     A          A          A          A          A   
    1  C  1  S   -0.028646   0.062139  -0.007874  -0.013757  -0.002493
    2  C  1  S    0.053598  -0.410654   0.085955   0.061917  -0.017589
    3  C  1  X    0.033029   0.334312  -0.055600  -0.055230   0.110302
    4  C  1  Y    0.153538  -0.206805   0.029766   0.024897  -0.008258
    5  C  1  Z    0.034788   0.192421  -0.021201  -0.026329  -0.018571
    6  C  1  S    0.387868   0.845836  -0.240850   0.115772   0.284902
    7  C  1  X   -0.176860  -0.845777   0.145828   0.166668  -0.099808
    8  C  1  Y   -0.222471   0.173893   0.132918  -0.058588  -0.061742
    9  C  1  Z    0.623108   0.063518   0.071442   0.170507   0.126353
   10  H  2  S    0.397928   0.607275  -0.063100  -0.083530   0.042503
   11  H  2  S   -0.140581  -0.570325   0.146570   0.137143  -0.003191
   12  C  3  S    0.043639  -0.044454   0.006342   0.008906   0.012301
   13  C  3  S   -0.193280   0.239878  -0.037352  -0.048144  -0.025505
   14  C  3  X   -0.108847  -0.159294   0.123081  -0.205305  -0.097134
   15  C  3  Y    0.197963  -0.133186   0.158521   0.095251   0.089405
   16  C  3  Z   -0.222120   0.244639   0.079587  -0.004958  -0.107889
   17  C  3  S    0.155836  -0.196589   0.229583  -0.385432  -0.220012
   18  C  3  X    0.649990   0.461530  -0.195481   0.224925   0.039218
   19  C  3  Y   -0.852540  -0.125646  -0.378449  -0.387234  -0.248484
   20  C  3  Z   -0.027306  -0.418268  -0.391421   0.037646   0.261835
   21  C  4  S   -0.010798   0.012865   0.003688  -0.013138   0.026156
   22  C  4  S    0.230391   0.052732  -0.159024   0.309969  -0.749081
   23  C  4  X    0.208128   0.356111  -0.144780   0.180551   0.101169
   24  C  4  Y   -0.238143  -0.328350  -0.085638   0.094390  -0.001788
   25  C  4  Z    0.020662   0.203042  -0.100518  -0.151372  -0.003296
   26  C  4  S   -0.495395  -0.573639   0.379794  -0.522153   2.192237
   27  C  4  X   -0.512926  -0.823930   0.421620  -0.676396   0.434033
   28  C  4  Y    1.030327   1.195386   0.304895  -0.099098  -0.134682
   29  C  4  Z   -0.303742  -0.638948   0.457713   0.404548   0.066847
   30  N  5  S   -0.023264  -0.029961   0.009006  -0.011318   0.038338
   31  N  5  S    0.023536   0.068786  -0.018438   0.013991  -0.162667
   32  N  5  X    0.004383   0.013902  -0.169741   0.460019  -0.493332
   33  N  5  Y   -0.090739   0.077733   0.367847   0.602262   0.685225
   34  N  5  Z   -0.040437   0.166344   0.875215   0.083208  -0.462473
   35  N  5  S    0.569715   0.767822  -0.200531   0.221423  -0.236547
   36  N  5  X   -0.204036  -0.314390   0.089266  -0.216981   0.891938
   37  N  5  Y    0.051823   0.029710  -0.603547  -0.273903  -1.224482
   38  N  5  Z   -0.013407  -0.253138  -0.825418  -0.373800   0.826189
   39  O  6  S    0.019425   0.011118   0.005833  -0.011972   0.016705
   40  O  6  S   -0.022851   0.004392  -0.013219   0.021245   0.003273
   41  O  6  X    0.028655  -0.028892  -0.032083   0.077450   0.041251
   42  O  6  Y   -0.069110  -0.052073  -0.071593   0.016230  -0.181323
   43  O  6  Z   -0.073397  -0.012468  -0.058582  -0.064908   0.120469
   44  O  6  S   -0.354705  -0.441972  -0.100240   0.299091  -0.453180
   45  O  6  X    0.114659   0.197572  -0.053765   0.057793  -0.068253
   46  O  6  Y    0.050361   0.006807   0.013840  -0.075415   0.274913
   47  O  6  Z   -0.045390  -0.013178  -0.064454   0.026047  -0.185105
   48  H  7  S    0.910173  -0.287474   0.099246   0.004191   0.078543
   49  H  7  S   -0.717274   0.555934   0.113101   0.052562  -0.195266
   50  H  8  S   -0.139488  -0.473501   0.102981  -0.052350   0.006983
   51  H  8  S   -0.217845   0.389567  -0.405190  -0.092793  -0.063139
   52  H  9  S   -0.317340  -0.123596  -0.273810   0.593540   0.066199
   53  H  9  S    0.216855   0.096935   0.285648  -0.623215  -0.739645
   54  H 10  S   -0.057456  -0.090992   0.356700  -0.739610   0.194718
   55  H 10  S    0.093670   0.181520  -0.386402   0.789391  -0.398223
   56  H 11  S   -0.525373   0.008597   0.025761  -0.096862  -0.028908
   57  H 11  S    0.169005  -0.481580   0.086483   0.113951  -0.104862
   58  H 12  S   -0.376710   0.508286  -0.077630  -0.111382   0.030771
   59  H 12  S    0.333800  -0.607654   0.016472   0.081328  -0.035249

                     51         52         53         54         55
                    1.9086     2.1666     2.2302     2.2946     2.3213
                     A          A          A          A          A   
    1  C  1  S    0.023789  -0.008891   0.004773  -0.019034  -0.017779
    2  C  1  S   -0.508700  -0.792097   0.267461  -1.198276  -0.843944
    3  C  1  X    0.076110   0.010237   0.017883  -0.199152  -0.047533
    4  C  1  Y   -0.010312   0.025900  -0.001601   0.016424   0.008707
    5  C  1  Z    0.012312  -0.030024   0.020928   0.006730  -0.020279
    6  C  1  S    0.432973   1.584184  -0.488809   2.063737   1.697017
    7  C  1  X   -0.418880   0.027952  -0.039862   0.365118   0.160495
    8  C  1  Y    0.218615  -0.058458  -0.103140   0.027301  -0.042256
    9  C  1  Z   -0.240488   0.089750  -0.158299  -0.137963   0.035289
   10  H  2  S    0.107857  -0.064873  -0.048780  -0.180160  -0.104765
   11  H  2  S   -0.326652  -0.244416   0.092234  -0.437349  -0.283975
   12  C  3  S    0.027507   0.014660  -0.000468  -0.014411   0.010073
   13  C  3  S   -0.575529  -0.649948  -0.008633  -0.466039  -0.227141
   14  C  3  X    0.236302  -0.162329  -0.035549   0.142527  -0.050796
   15  C  3  Y   -0.040014   0.063505  -0.022158  -0.081341  -0.027438
   16  C  3  Z    0.017795  -0.047923  -0.059063   0.052171   0.006783
   17  C  3  S    0.640329   0.335504  -0.032780   1.261135  -0.009420
   18  C  3  X   -0.890108   0.240399  -0.134263   0.768822   0.344867
   19  C  3  Y    0.160793  -0.408049   0.261740   0.156057  -0.041663
   20  C  3  Z   -0.074322   0.342634   0.357609   0.006868   0.158932
   21  C  4  S    0.013000  -0.003775  -0.001697   0.009754   0.022143
   22  C  4  S   -1.020590  -0.412805  -0.173689   0.801627   0.390390
   23  C  4  X    0.138146   0.065414   0.046588  -0.216942  -0.032938
   24  C  4  Y    0.089526  -0.030303   0.041106  -0.037584   0.158933
   25  C  4  Z   -0.068862   0.005226   0.064228   0.038881  -0.109362
   26  C  4  S    1.174341   0.036122   0.203638  -1.543890  -0.136354
   27  C  4  X   -0.389717  -0.435838  -0.259335   1.281026   0.239825
   28  C  4  Y   -0.107755  -0.616752  -0.458833   0.403793  -0.363964
   29  C  4  Z    0.097864   0.498705  -0.412574  -0.444085   0.173955
   30  N  5  S    0.004680   0.010323  -0.000243   0.001649   0.009896
   31  N  5  S   -0.001017  -0.156019   0.006119  -0.122840  -0.061431
   32  N  5  X    0.678933  -0.471662  -0.029551   0.051682  -0.194906
   33  N  5  Y   -0.042492  -0.237861  -0.102566   0.336322  -0.210382
   34  N  5  Z    0.001167   0.202779  -0.037010  -0.238542   0.151945
   35  N  5  S   -0.300075   0.116795  -0.016346   0.296671  -0.137721
   36  N  5  X   -0.994997   1.141985   0.108365  -0.403822   0.582162
   37  N  5  Y    0.015016   0.654978   0.284849  -0.827413   0.419505
   38  N  5  Z    0.028037  -0.534214   0.094934   0.616164  -0.296493
   39  O  6  S    0.002105  -0.056578  -0.009433   0.014963   0.026620
   40  O  6  S   -0.012120   0.184522   0.038011  -0.073437  -0.137811
   41  O  6  X    0.020601   0.248916  -0.003904  -0.414401   0.162025
   42  O  6  Y   -0.079554   0.425480  -0.524636   0.101352  -0.738535
   43  O  6  Z    0.048644  -0.244210  -0.856398  -0.244579   0.397984
   44  O  6  S   -0.123000   0.424793   0.039720  -0.044797   0.186746
   45  O  6  X    0.023134  -0.245402   0.034627   0.262926  -0.207733
   46  O  6  Y    0.056180  -0.631892   0.567189  -0.040241   0.853333
   47  O  6  Z   -0.035961   0.382176   0.987910   0.238192  -0.455462
   48  H  7  S    0.209827   0.003596  -0.132009  -0.105862  -0.001861
   49  H  7  S   -0.405679  -0.360143  -0.061215  -0.072353  -0.107936
   50  H  8  S    0.261780  -0.035631   0.111966  -0.047772   0.028859
   51  H  8  S   -0.414556  -0.326724   0.027027  -0.051561  -0.056686
   52  H  9  S   -0.099087   0.410114   0.067294  -0.337060   0.224051
   53  H  9  S    0.079685   0.068286   0.043354  -0.341725   0.104191
   54  H 10  S    0.182645  -0.404242  -0.055284   0.280785  -0.226552
   55  H 10  S    0.374344  -0.356524  -0.008775  -0.037996  -0.183744
   56  H 11  S    0.063380  -0.069384   0.025196  -0.077727  -0.087726
   57  H 11  S   -0.376213  -0.314354   0.077305  -0.162300  -0.219125
   58  H 12  S    0.137183  -0.091829   0.111341  -0.164758  -0.055510
   59  H 12  S   -0.337731  -0.229461   0.060590  -0.383235  -0.359313

                     56         57         58         59
                    2.3664     2.7487     3.1063     4.0105
                     A          A          A          A   
    1  C  1  S   -0.022590   0.073249   0.008827   0.000455
    2  C  1  S   -0.529841   0.925512   0.218579  -0.004320
    3  C  1  X    0.047787  -0.071392   0.102486  -0.028491
    4  C  1  Y    0.022046   0.044094  -0.009431   0.006883
    5  C  1  Z   -0.027192  -0.039522   0.006562  -0.000887
    6  C  1  S    1.298248  -3.098015  -0.241577  -0.202610
    7  C  1  X    0.075218  -0.723499  -0.314107   0.102721
    8  C  1  Y   -0.164879   0.451203  -0.087634   0.096850
    9  C  1  Z    0.171693  -0.434344   0.134590  -0.147194
   10  H  2  S   -0.081934   0.258937   0.063920  -0.029291
   11  H  2  S   -0.120586   0.204041   0.086332  -0.002216
   12  C  3  S    0.000249  -0.121824   0.002982   0.008852
   13  C  3  S    0.715088  -1.852864   0.182313   0.050200
   14  C  3  X    0.201120   0.083261   0.004773  -0.007972
   15  C  3  Y    0.037365  -0.033871  -0.003311  -0.009661
   16  C  3  Z   -0.021887   0.036711   0.019665  -0.001595
   17  C  3  S   -0.632501   5.800329  -0.449497  -0.667269
   18  C  3  X    0.500937   0.397039  -0.005060  -0.596283
   19  C  3  Y    0.104023   0.862750  -0.216880   0.261287
   20  C  3  Z   -0.097057  -0.781688   0.047072  -0.098692
   21  C  4  S   -0.012700   0.049295   0.027636  -0.000090
   22  C  4  S    0.269365   0.622748   0.091951  -0.262459
   23  C  4  X   -0.269183  -0.037717   0.004461  -0.006122
   24  C  4  Y   -0.087883  -0.080414   0.016096  -0.139539
   25  C  4  Z    0.076350   0.066452  -0.007614   0.097758
   26  C  4  S   -0.417179  -2.435101  -1.445533  -0.574091
   27  C  4  X    1.442874   1.975106  -1.543009  -0.649924
   28  C  4  Y    0.266564   0.675528   0.849389  -1.622308
   29  C  4  Z   -0.279169  -0.565374  -0.519652   1.162912
   30  N  5  S    0.016490  -0.000353  -0.006044   0.002764
   31  N  5  S   -0.167741  -0.125226  -1.891182   0.118632
   32  N  5  X    0.198000   0.030955   0.108414  -0.103141
   33  N  5  Y    0.161959   0.118297  -0.119551  -0.071142
   34  N  5  Z   -0.122081  -0.089030   0.079861   0.051848
   35  N  5  S   -0.111832   0.251182   3.639159  -0.446300
   36  N  5  X   -0.488007  -0.428694  -0.637876   0.636226
   37  N  5  Y   -0.667878  -0.509632   0.692039   0.432354
   38  N  5  Z    0.493844   0.381609  -0.464244  -0.322123
   39  O  6  S    0.007811   0.012171   0.004077   0.042250
   40  O  6  S   -0.025579  -0.089341  -0.081755  -1.792979
   41  O  6  X    0.823184   0.344490  -0.145478   0.022205
   42  O  6  Y    0.077085  -0.029135   0.006345   0.205462
   43  O  6  Z   -0.145247   0.038145   0.011133  -0.148668
   44  O  6  S   -0.185470  -0.044767   0.059283   3.165341
   45  O  6  X   -1.092434  -0.693017   0.465682  -0.114073
   46  O  6  Y   -0.014255   0.050626  -0.113935  -0.889349
   47  O  6  Z    0.123086  -0.046550   0.045146   0.638184
   48  H  7  S    0.049472  -0.433992   0.006812   0.034749
   49  H  7  S    0.293164  -0.305638   0.113179   0.027614
   50  H  8  S    0.070669  -0.407082  -0.016536   0.075628
   51  H  8  S    0.248652  -0.343769   0.031176   0.073351
   52  H  9  S   -0.269010  -0.264912  -0.126573   0.244253
   53  H  9  S   -0.247959  -0.145741  -0.195667   0.115269
   54  H 10  S    0.247850   0.191058  -0.255399  -0.210156
   55  H 10  S    0.057504  -0.048707  -0.195821  -0.073153
   56  H 11  S   -0.083897   0.218277  -0.029936   0.051809
   57  H 11  S   -0.203420   0.259930  -0.129064   0.058684
   58  H 12  S   -0.026984   0.295834   0.058757  -0.006075
   59  H 12  S   -0.213733   0.164783   0.062620   0.001421

  ----- BETA SET ----- 

          ------------
          EIGENVECTORS
          ------------

                      1          2          3          4          5
                  -20.0491   -15.2208   -10.9735   -10.9574   -10.9019
                     A          A          A          A          A   
    1  C  1  S   -0.000042  -0.000140   0.987517   0.005516   0.001776
    2  C  1  S   -0.000141  -0.001015   0.101660  -0.001770  -0.000915
    3  C  1  X    0.000502  -0.000957   0.000060   0.000619  -0.000976
    4  C  1  Y   -0.000087  -0.000009   0.000038  -0.000214   0.000139
    5  C  1  Z   -0.000004   0.000045  -0.000084   0.000159  -0.000088
    6  C  1  S    0.004728  -0.000041  -0.080365   0.022219   0.001727
    7  C  1  X   -0.000833   0.003850  -0.004536   0.008959   0.002372
    8  C  1  Y   -0.002062   0.001152   0.001984  -0.006678  -0.001104
    9  C  1  Z    0.002704  -0.001723  -0.001639   0.006608   0.000999
   10  H  2  S    0.000236  -0.000507   0.000370  -0.001339  -0.000417
   11  H  2  S    0.000203  -0.000597   0.014415   0.000947   0.000423
   12  C  3  S   -0.000025  -0.000015  -0.006270   0.988013   0.002570
   13  C  3  S   -0.000082  -0.000512  -0.002565   0.104974  -0.002073
   14  C  3  X   -0.000262  -0.000234  -0.000141  -0.000584  -0.000162
   15  C  3  Y    0.000343  -0.000137   0.000069   0.000066  -0.000183
   16  C  3  Z   -0.000151  -0.000019  -0.000005   0.000022   0.000254
   17  C  3  S    0.006161   0.000259   0.018815  -0.095635   0.021122
   18  C  3  X    0.008748  -0.002258  -0.007980  -0.002608   0.016214
   19  C  3  Y   -0.005481   0.002976   0.005366  -0.006861   0.002635
   20  C  3  Z    0.002926  -0.001015  -0.005571   0.005442  -0.003065
   21  C  4  S    0.000171  -0.000316  -0.001876  -0.003351   0.986868
   22  C  4  S    0.001737  -0.001726  -0.000897  -0.002881   0.094797
   23  C  4  X    0.000187   0.000131   0.000862  -0.000103  -0.000809
   24  C  4  Y    0.001364  -0.000009  -0.000214   0.000156  -0.000033
   25  C  4  Z   -0.000959  -0.000031   0.000210  -0.000099   0.000134
   26  C  4  S    0.014586   0.022186  -0.002212   0.023222  -0.051321
   27  C  4  X    0.007997   0.016284  -0.003693  -0.017868   0.016828
   28  C  4  Y    0.024879  -0.013532   0.003064  -0.001968   0.013028
   29  C  4  Z   -0.017831   0.008788  -0.002026   0.002147  -0.010089
   30  N  5  S   -0.000072   0.985941  -0.000110  -0.000040   0.000029
   31  N  5  S   -0.000498   0.101579  -0.000959  -0.000770  -0.000341
   32  N  5  X    0.000943  -0.000676   0.000406   0.000587   0.001063
   33  N  5  Y    0.000673   0.000503  -0.000153  -0.000308   0.000330
   34  N  5  Z   -0.000491  -0.000356   0.000039   0.000178  -0.000267
   35  N  5  S    0.004588  -0.066219   0.004213   0.002011   0.007141
   36  N  5  X   -0.007659   0.008325  -0.002994  -0.000771  -0.006284
   37  N  5  Y   -0.005355  -0.006769   0.001444   0.002120  -0.004090
   38  N  5  Z    0.003999   0.004479  -0.000744  -0.001406   0.003123
   39  O  6  S    0.983891  -0.000004   0.000021   0.000050   0.000201
   40  O  6  S    0.100333  -0.000383   0.000086   0.000194   0.001891
   41  O  6  X   -0.000642   0.000591   0.000092  -0.000329   0.000474
   42  O  6  Y   -0.003661   0.000033   0.000099   0.000164   0.000166
   43  O  6  Z    0.002626  -0.000065   0.000013  -0.000145  -0.000155
   44  O  6  S   -0.058945   0.001990  -0.001158  -0.001776  -0.005630
   45  O  6  X    0.002200  -0.004125   0.000494   0.003127  -0.001882
   46  O  6  Y    0.013310   0.000789  -0.000207   0.000290   0.004598
   47  O  6  Z   -0.009516  -0.000328  -0.000115  -0.000211  -0.003091
   48  H  7  S   -0.000327   0.000230  -0.001149   0.001113  -0.001635
   49  H  7  S   -0.000666  -0.000753   0.000899   0.014400   0.002627
   50  H  8  S   -0.000828   0.000435  -0.001182   0.000902  -0.001642
   51  H  8  S   -0.001398   0.000183   0.000481   0.014111   0.001878
[...]

          -----------------
          ENERGY COMPONENTS
          -----------------

         WAVEFUNCTION NORMALIZATION =       1.0000000000

                ONE ELECTRON ENERGY =    -696.6030189411
                TWO ELECTRON ENERGY =     273.3623002619
           NUCLEAR REPULSION ENERGY =     177.7628458403
                                      ------------------
                       TOTAL ENERGY =    -245.4778728388

 ELECTRON-ELECTRON POTENTIAL ENERGY =     273.3623002619
  NUCLEUS-ELECTRON POTENTIAL ENERGY =    -942.1856974481
   NUCLEUS-NUCLEUS POTENTIAL ENERGY =     177.7628458403
                                      ------------------
             TOTAL POTENTIAL ENERGY =    -491.0605513459
               TOTAL KINETIC ENERGY =     245.5826785071
                 VIRIAL RATIO (V/T) =       1.9995732367

          ---------------------------------------
          MULLIKEN AND LOWDIN POPULATION ANALYSES
          ---------------------------------------

     ATOMIC MULLIKEN POPULATION IN EACH MOLECULAR ORBITAL
        ALPHA ORBITALS

                      1          2          3          4          5

                  1.000000   1.000000   1.000000   1.000000   1.000000

    1            -0.000002   0.000000   0.993629   0.002507   0.000051
    2             0.000000  -0.000000   0.001441   0.000010   0.000001
    3             0.000029  -0.000033   0.002090   0.991591   0.002758
    4             0.004002   0.003565   0.000057   0.003014   0.997912
    5            -0.000013   0.995215  -0.000002   0.000006   0.000331
    6             0.995983  -0.000004   0.000000  -0.000003  -0.001129
    7            -0.000000  -0.000001   0.000010   0.001448   0.000033
    8            -0.000000   0.000000   0.000005   0.001417   0.000023
    9            -0.000000   0.000645  -0.000000   0.000002  -0.000015
   10             0.000003   0.000612  -0.000000   0.000000   0.000033
   11            -0.000000   0.000000   0.001336  -0.000002   0.000001
   12             0.000000  -0.000000   0.001433   0.000009   0.000001

                      6          7          8          9         10

                  1.000000   1.000000   1.000000   1.000000   1.000000

    1             0.001446   0.000804   0.443924   0.303791   0.050162
    2             0.000115   0.000002   0.025360   0.041948   0.011048
    3             0.007047   0.014629   0.376600   0.276196   0.132459
    4             0.206842   0.051247   0.017152   0.112551   0.215640
    5             0.107709   0.654911   0.020759   0.058039   0.319710
    6             0.666779   0.168305   0.016431   0.016046   0.090380
    7            -0.000095   0.000662   0.020370   0.037768   0.035281
    8             0.000259   0.000566   0.021290   0.038909   0.032952
    9             0.005275   0.059576   0.001495   0.003648   0.056521
   10             0.004087   0.049411   0.004585   0.019929   0.046570
   11             0.000117  -0.000155   0.028067   0.050828   0.000609
   12             0.000419   0.000042   0.023967   0.040347   0.008667

                     11         12         13         14         15

                  1.000000   1.000000   1.000000   1.000000   1.000000

    1             0.034025   0.244507   0.250856   0.256290   0.254511
    2             0.007823   0.073118   0.020416   0.163273   0.004309
    3             0.057217   0.266930   0.145037   0.083315   0.068500
    4             0.051993   0.089708   0.087036   0.158570   0.147496
    5             0.471465   0.022790   0.150773   0.095697   0.087350
    6             0.036056   0.026092   0.061623   0.144184   0.168784
    7             0.011727   0.082621   0.026596   0.043134   0.001349
    8             0.004124   0.111485   0.012020   0.002131   0.044697
    9             0.194419   0.000088   0.006537   0.003144   0.004760
   10             0.118491   0.000127   0.065803  -0.000011   0.000604
   11             0.005784   0.000317   0.161575   0.049768   0.055249
   12             0.006877   0.082217   0.011726   0.000506   0.162392

                     16         17         18         19         20

                  1.000000   1.000000   1.000000   1.000000   1.000000

    1             0.335400   0.062522   0.033956   0.001415   0.006952
    2             0.002487   0.053285   0.003986   0.000600   0.000469
    3             0.279663   0.187085   0.109882   0.001560   0.128180
    4             0.093288   0.095733   0.186925   0.002688   0.024924
    5             0.083246   0.113513   0.020324   0.587867   0.067900
    6             0.061605   0.191098   0.520202   0.405102   0.740743
    7             0.006430   0.155280   0.012857   0.000208   0.005378
    8             0.030801   0.107591   0.029777   0.000230   0.006659
    9             0.000403   0.000160   0.025649   0.000015   0.007780
   10             0.031688   0.000101   0.013877   0.000001   0.008983
   11             0.061081   0.000133   0.030497   0.000042   0.000192
   12             0.013908   0.033498   0.012071   0.000271   0.001839

                     21

                  1.000000

    1             0.001073
    2             0.000977
    3             0.013897
    4             0.534524
    5             0.120618
    6             0.237802
    7             0.052617
    8             0.038044
    9             0.000175
   10             0.000003
   11             0.000264
   12             0.000005

     ATOMIC MULLIKEN POPULATION IN EACH MOLECULAR ORBITAL
         BETA ORBITALS

                      1          2          3          4          5

                  1.000000   1.000000   1.000000   1.000000   1.000000

    1            -0.000002   0.000000   0.993620   0.002521   0.000044
    2             0.000000  -0.000000   0.001441   0.000011   0.000001
    3             0.000028  -0.000033   0.002104   0.991576   0.002802
    4             0.004000   0.003576   0.000053   0.003009   0.997581
    5            -0.000014   0.995205  -0.000001   0.000007   0.000470
    6             0.995984  -0.000004  -0.000000  -0.000003  -0.000972
    7            -0.000000  -0.000001   0.000009   0.001451   0.000032
    8            -0.000000   0.000000   0.000005   0.001420   0.000022
    9            -0.000000   0.000645  -0.000000   0.000002  -0.000014
   10             0.000003   0.000611  -0.000000   0.000000   0.000034
   11            -0.000000   0.000000   0.001336  -0.000002   0.000001
   12             0.000000  -0.000000   0.001433   0.000009   0.000001

                      6          7          8          9         10

                  1.000000   1.000000   1.000000   1.000000   1.000000

    1             0.002913   0.000812   0.448500   0.308323   0.040698
    2             0.000205  -0.000000   0.025660   0.044785   0.009181
    3             0.017358   0.011501   0.395266   0.339534   0.104021
    4             0.179376   0.039768   0.005455   0.063299   0.195571
    5             0.157792   0.633285   0.013485   0.040388   0.414294
    6             0.624568   0.199496   0.017891   0.008012   0.071341
    7            -0.000106   0.000420   0.017319   0.041066   0.018698
    8             0.000252   0.000328   0.019125   0.044228   0.017442
    9             0.008620   0.062622   0.000746   0.001475   0.057529
   10             0.008279   0.051647   0.003153   0.014450   0.064279
   11             0.000174  -0.000011   0.029124   0.051689   0.000032
   12             0.000569   0.000132   0.024275   0.042752   0.006916

                     11         12         13         14         15

                  1.000000   1.000000   1.000000   1.000000   1.000000

    1             0.032315   0.320122   0.304570   0.273627   0.230910
    2             0.006730   0.073921   0.060765   0.049822   0.125485
    3             0.052473   0.250739   0.160261   0.218097   0.226991
    4             0.041121   0.022913   0.053234   0.060939   0.045140
    5             0.482669   0.015241   0.099590   0.011232   0.056279
    6             0.032682   0.013592   0.040118   0.148345   0.019253
    7             0.007302   0.052517   0.045014   0.043042   0.119394
    8             0.003456   0.111398   0.000714   0.051424   0.084632
    9             0.204150   0.000572   0.007709   0.004057   0.000045
   10             0.124438   0.004473   0.047209   0.000278   0.001407
   11             0.005345   0.013987   0.178768   0.054990   0.002732
   12             0.007318   0.120526   0.002048   0.084147   0.087731

                     16         17         18         19         20

                  1.000000   1.000000   1.000000   1.000000   1.000000

    1             0.264288   0.026161   0.004354   0.006506   0.001155
    2             0.002941   0.004838   0.005864   0.000653   0.000433
    3             0.251670   0.111651   0.049931   0.139230   0.000339
    4             0.130937   0.165875   0.167173   0.024869   0.116719
    5             0.086107   0.017372   0.600566   0.059567   0.285156
    6             0.105802   0.572954   0.108739   0.739458   0.588651
    7             0.001847   0.016237   0.032445   0.005270   0.003197
    8             0.027614   0.018976   0.026049   0.006179   0.003559
    9             0.000346   0.022706   0.000052   0.007940   0.000001
   10             0.032091   0.010942   0.000016   0.007898   0.000006
   11             0.086036   0.024378   0.000158   0.000256   0.000146
   12             0.010322   0.007911   0.004653   0.002172   0.000638

     ATOMIC SPIN POPULATION (ALPHA MINUS BETA)
       ATOM         MULL.POP.                    LOW.POP.
    1 C             0.016387                     0.010949
    2 H            -0.002068                    -0.001827
    3 C            -0.180908                    -0.092925
    4 C             0.764259                     0.656149
    5 N             0.009521                     0.048051
    6 O             0.260169                     0.273508
    7 H             0.088520                     0.069768
    8 H             0.066159                     0.051700
    9 H            -0.008925                    -0.006048
   10 H            -0.006318                    -0.004141
   11 H            -0.003438                    -0.002755
   12 H            -0.003358                    -0.002429


          ********* ALL ELECTRONS ********

               ----- POPULATIONS IN EACH AO -----
                             MULLIKEN      LOWDIN
              1  C  1  S      1.98825     1.97648
              2  C  1  S      0.35579     0.41448
              3  C  1  X      0.52436     0.49437
              4  C  1  Y      0.54284     0.51366
              5  C  1  Z      0.53577     0.50464
              6  C  1  S      1.09452     0.57879
              7  C  1  X      0.44127     0.56060
              8  C  1  Y      0.53507     0.60179
              9  C  1  Z      0.52137     0.59635
             10  H  2  S      0.46976     0.47321
             11  H  2  S      0.35365     0.45100
             12  C  3  S      1.98949     1.97627
             13  C  3  S      0.34477     0.41595
             14  C  3  X      0.55231     0.54169
             15  C  3  Y      0.51652     0.48711
             16  C  3  Z      0.51624     0.48635
             17  C  3  S      1.11867     0.57119
             18  C  3  X      0.43023     0.57246
             19  C  3  Y      0.49676     0.57375
             20  C  3  Z      0.50519     0.58114
             21  C  4  S      1.98586     1.97436
             22  C  4  S      0.38186     0.39279
             23  C  4  X      0.47398     0.45712
             24  C  4  Y      0.56880     0.55833
             25  C  4  Z      0.58132     0.58107
             26  C  4  S      0.51505     0.49725
             27  C  4  X      0.22458     0.46903
             28  C  4  Y      0.22456     0.50331
             29  C  4  Z      0.44946     0.59250
             30  N  5  S      1.98723     1.97736
             31  N  5  S      0.35167     0.46193
             32  N  5  X      0.54529     0.52302
             33  N  5  Y      0.62142     0.61418
             34  N  5  Z      0.71627     0.72887
             35  N  5  S      1.29351     0.74036
             36  N  5  X      0.64770     0.67288
             37  N  5  Y      0.80563     0.79761
             38  N  5  Z      0.97817     0.95213
             39  O  6  S      1.98666     1.98082
             40  O  6  S      0.40657     0.56518
             41  O  6  X      0.76300     0.76688
             42  O  6  Y      0.65593     0.65789
             43  O  6  Z      0.69050     0.69855
             44  O  6  S      1.54493     1.05636
             45  O  6  X      0.99222     1.04359
             46  O  6  Y      0.87412     0.89124
             47  O  6  Z      0.91806     0.92581
             48  H  7  S      0.47523     0.49329
             49  H  7  S      0.42360     0.49341
             50  H  8  S      0.47626     0.49204
             51  H  8  S      0.42354     0.49070
             52  H  9  S      0.45225     0.45951
             53  H  9  S      0.29723     0.39506
             54  H 10  S      0.44438     0.45353
             55  H 10  S      0.29173     0.39031
             56  H 11  S      0.47876     0.48507
             57  H 11  S      0.41609     0.48197
             58  H 12  S      0.46715     0.47000
             59  H 12  S      0.33660     0.44342

          ----- MULLIKEN ATOMIC OVERLAP POPULATIONS -----
          (OFF-DIAGONAL ELEMENTS NEED TO BE MULTIPLIED BY 2)

             1           2           3           4           5

    1    5.3372896
    2    0.3750245   0.5454924
    3    0.2307382  -0.0410758   5.8007364
    4   -0.0682905   0.0022043   0.2086360   4.9774768
    5    0.0032876   0.0000331  -0.1503343  -0.0043993   7.4979337
    6    0.0124064   0.0011522  -0.1116698   0.4675576  -0.0647987
    7   -0.0489134   0.0043015   0.3060941  -0.0761638   0.0079199
    8   -0.0302915  -0.0046849   0.3152715  -0.0648701   0.0074292
    9   -0.0000709  -0.0000046   0.0021228  -0.0205934   0.3248444
   10   -0.0001284  -0.0000017   0.0064692  -0.0234044   0.3248378
   11    0.3491882  -0.0326741  -0.0500880   0.0053388  -0.0000056
   12    0.3790161  -0.0263644  -0.0467295   0.0019825   0.0001513

             6           7           8           9          10

    6    8.5111743
    7    0.0024318   0.7925375
    8    0.0020923  -0.0863205   0.7577380
    9    0.0019449  -0.0000171   0.0017682   0.4694927
   10    0.0029731  -0.0001721  -0.0001485  -0.0299914   0.4556815
   11    0.0002691  -0.0001669  -0.0019502  -0.0000063   0.0000008
   12    0.0064513  -0.0027063   0.0037695  -0.0000076  -0.0000029

            11          12

   11    0.6560170
   12   -0.0310798   0.5192674

          TOTAL MULLIKEN AND LOWDIN ATOMIC POPULATIONS
       ATOM         MULL.POP.    CHARGE          LOW.POP.     CHARGE
    1 C             6.539256   -0.539256         6.241159   -0.241159
    2 H             0.823402    0.176598         0.924209    0.075791
    3 C             6.470171   -0.470171         6.205906   -0.205906
    4 C             5.405475    0.594525         6.025764   -0.025764
    5 N             7.946899   -0.946899         7.468340   -0.468340
    6 O             8.831984   -0.831984         8.586315   -0.586315
    7 H             0.898825    0.101175         0.986704    0.013296
    8 H             0.899803    0.100197         0.982734    0.017266
    9 H             0.749482    0.250518         0.854573    0.145427
   10 H             0.736113    0.263887         0.843839    0.156161
   11 H             0.894843    0.105157         0.967042    0.032958
   12 H             0.803748    0.196252         0.913415    0.086585

          -------------------------------
          BOND ORDER AND VALENCE ANALYSIS     BOND ORDER THRESHOLD=0.050
          -------------------------------

                   BOND                       BOND                       BOND
  ATOM PAIR DIST  ORDER      ATOM PAIR DIST  ORDER      ATOM PAIR DIST  ORDER
    1   2  1.094  0.937        1   3  1.536  0.932        1  11  1.094  0.940
    1  12  1.093  0.929        3   4  1.536  0.887        3   7  1.099  0.890
    3   8  1.098  0.902        4   5  1.371  0.676        4   6  1.239  1.509
    5   9  1.012  0.894        5  10  1.014  0.890

                       TOTAL       BONDED        FREE
      ATOM            VALENCE     VALENCE     VALENCE
    1 C                 3.717       3.717       0.000
    2 H                 0.927       0.927       0.000
    3 C                 3.606       3.593       0.013
    4 C                 3.444       3.043       0.401
    5 N                 2.503       2.497       0.006
    6 O                 1.710       1.625       0.086
    7 H                 0.919       0.911       0.008
    8 H                 0.926       0.921       0.005
    9 H                 0.908       0.908       0.000
   10 H                 0.908       0.907       0.000
   11 H                 0.935       0.935       0.000
   12 H                 0.927       0.927       0.000

          -----------------------------------------
          ATOMIC SPIN DENSITY AT THE NUCLEUS (A.U.)
          -----------------------------------------
                            SPIN DENS    ALPHA DENS     BETA DENS
    1  C            6.0     0.0070144      46.99149      46.98448
    2  H            1.0    -0.0009201       0.18384       0.18476
    3  C            6.0    -0.0696968      47.01004      47.07974
    4  C            6.0     0.1513327      46.94677      46.79543
    5  N            7.0    -0.0021548      76.53923      76.54138
    6  O            8.0     0.1332470     116.85048     116.71723
    7  H            1.0     0.0204063       0.19803       0.17763
    8  H            1.0     0.0152726       0.19565       0.18038
    9  H            1.0    -0.0029909       0.17776       0.18075
   10  H            1.0    -0.0020635       0.17518       0.17724
   11  H            1.0    -0.0011841       0.18759       0.18878
   12  H            1.0    -0.0008679       0.18282       0.18369

          ---------------------
          ELECTROSTATIC MOMENTS
          ---------------------

 POINT   1           X           Y           Z (BOHR)    CHARGE
                 2.793278   -0.152052   -0.053462       -1.00 (A.U.)
         DX          DY          DZ         /D/  (DEBYE)
    -1.223266   -2.680107    1.787785    3.446089
 ...... END OF PROPERTY EVALUATION ......
 CPU     0: STEP CPU TIME=     0.02 TOTAL CPU TIME=          0.5 (      0.0 MIN)
 TOTAL WALL CLOCK TIME=          0.6 SECONDS, CPU UTILIZATION IS    71.87%
               580000  WORDS OF DYNAMIC MEMORY USED
 EXECUTION OF GAMESS TERMINATED NORMALLY Sat May 16 17:05:00 2020
 DDI: 263640 bytes (0.3 MB / 0 MWords) used by master data server.
Note: The following floating-point exceptions are signalling: IEEE_DENORMALNote: The following floating-point exceptions are signalling:
 ----------------------------------------
 CPU timing information for all processes
 ========================================
 0: 0.358 + 0.121 = 0.479
 1: 0.351 + 0.20 = 0.372
 2: 0.323 + 0.19 = 0.343
 3: 0.355 + 0.15 = 0.371
 4: 0.339 + 0.22 = 0.361
 5: 0.327 + 0.12 = 0.339
 ----------------------------------------
Note: The following floating-point exceptions are signalling:
Note: The following floating-point exceptions are signalling: IEEE_DENORMAL IEEE_DENORMALNote: The following floating-point exceptions are signalling: IEEE_DENORMAL IEEE_DENORMAL
Note: The following floating-point exceptions are signalling: IEEE_DENORMAL



 ddikick.x: exited gracefully.
unset echo
----- accounting info -----
Files used on the master node pietdev were:
-rwxr-xr-x 1 piet piet      829 mei 16 17:05 /home/piet/scr/asparagine_fukui_acid.F05*
-rw-r--r-- 1 piet piet 68812800 mei 16 17:05 /home/piet/scr/asparagine_fukui_acid.F10
ls: No match.
ls: No match.
ls: No match.
za 16 mei 2020 17:05:04 CEST
0.119u 0.028s 0:03.82 3.4%	0+0k 0+8io 0pf+0w
